 Entering Gaussian System, Link 0=g16
 Input=M2785e.gjf
 Output=M2785e.log
 Initial command:
 /hpc/softwares/Gaussian/g16/l1.exe "/hpc/home/hpcmgac13/pbs.12372.admin1.x8z/Gau-1724408.inp" -scrdir="/hpc/home/hpcmgac13/pbs.12372.admin1.x8z/"
 Default linda workers: n1
 Default is to use  16 SMP processors on each worker.
 Entering Link 1 = /hpc/softwares/Gaussian/g16/l1.exe PID=   1724409.
  
 Copyright (c) 1988-2021, Gaussian, Inc.  All Rights Reserved.
  
 This is part of the Gaussian(R) 16 program.  It is based on
 the Gaussian(R) 09 system (copyright 2009, Gaussian, Inc.),
 the Gaussian(R) 03 system (copyright 2003, Gaussian, Inc.),
 the Gaussian(R) 98 system (copyright 1998, Gaussian, Inc.),
 the Gaussian(R) 94 system (copyright 1995, Gaussian, Inc.),
 the Gaussian 92(TM) system (copyright 1992, Gaussian, Inc.),
 the Gaussian 90(TM) system (copyright 1990, Gaussian, Inc.),
 the Gaussian 88(TM) system (copyright 1988, Gaussian, Inc.),
 the Gaussian 86(TM) system (copyright 1986, Carnegie Mellon
 University), and the Gaussian 82(TM) system (copyright 1983,
 Carnegie Mellon University). Gaussian is a federally registered
 trademark of Gaussian, Inc.
  
 This software contains proprietary and confidential information,
 including trade secrets, belonging to Gaussian, Inc.
  
 This software is provided under written license and may be
 used, copied, transmitted, or stored only in accord with that
 written license.
  
 The following legend is applicable only to US Government
 contracts under FAR:
  
                    RESTRICTED RIGHTS LEGEND
  
 Use, reproduction and disclosure by the US Government is
 subject to restrictions as set forth in subparagraphs (a)
 and (c) of the Commercial Computer Software - Restricted
 Rights clause in FAR 52.227-19.
  
 Gaussian, Inc.
 340 Quinnipiac St., Bldg. 40, Wallingford CT 06492
  
  
 ---------------------------------------------------------------
 Warning -- This program may not be used in any manner that
 competes with the business of Gaussian, Inc. or will provide
 assistance to any competitor of Gaussian, Inc.  The licensee
 of this program is prohibited from giving any competitor of
 Gaussian, Inc. access to this program.  By using this program,
 the user acknowledges that Gaussian, Inc. is engaged in the
 business of creating and licensing software in the field of
 computational chemistry and represents and warrants to the
 licensee that it is not a competitor of Gaussian, Inc. and that
 it will not use this program in any manner prohibited above.
 ---------------------------------------------------------------
  

 Cite this work as:
 Gaussian 16, Revision C.02,
 M. J. Frisch, G. W. Trucks, H. B. Schlegel, G. E. Scuseria, 
 M. A. Robb, J. R. Cheeseman, G. Scalmani, V. Barone, 
 G. A. Petersson, H. Nakatsuji, X. Li, M. Caricato, A. V. Marenich, 
 J. Bloino, B. G. Janesko, R. Gomperts, B. Mennucci, H. P. Hratchian, 
 J. V. Ortiz, A. F. Izmaylov, J. L. Sonnenberg, D. Williams-Young, 
 F. Ding, F. Lipparini, F. Egidi, J. Goings, B. Peng, A. Petrone, 
 T. Henderson, D. Ranasinghe, V. G. Zakrzewski, J. Gao, N. Rega, 
 G. Zheng, W. Liang, M. Hada, M. Ehara, K. Toyota, R. Fukuda, 
 J. Hasegawa, M. Ishida, T. Nakajima, Y. Honda, O. Kitao, H. Nakai, 
 T. Vreven, K. Throssell, J. A. Montgomery, Jr., J. E. Peralta, 
 F. Ogliaro, M. J. Bearpark, J. J. Heyd, E. N. Brothers, K. N. Kudin, 
 V. N. Staroverov, T. A. Keith, R. Kobayashi, J. Normand, 
 K. Raghavachari, A. P. Rendell, J. C. Burant, S. S. Iyengar, 
 J. Tomasi, M. Cossi, J. M. Millam, M. Klene, C. Adamo, R. Cammi, 
 J. W. Ochterski, R. L. Martin, K. Morokuma, O. Farkas, 
 J. B. Foresman, and D. J. Fox, Gaussian, Inc., Wallingford CT, 2019.
 
 ******************************************
 Gaussian 16:  ES64L-G16RevC.02  7-Dec-2021
                29-Jul-2025 
 ******************************************
 SetLPE:    new flags="-opt 'Tsnet.Node.lindarsharg: ssh'  -nodelist 'n1' -env GAUSS_MDEF=2147483648 -env GAUSS_EXEDIR="/hpc/softwares/Gaussian/g16/bsd:/hpc/softwares/Gaussian/g16""
 Will use up to    1 processors via Linda.
 ----------------------------------------------------------
 # td=(50-50,nstates=3) b3lyp/6-31+g(d,p) geom=connectivity
 ----------------------------------------------------------
 1/38=1,57=2,172=1/1;
 2/12=2,17=6,18=5,40=1/2;
 3/5=1,6=6,7=111,11=9,25=1,30=1,74=-5/1,2,3,8;
 4//1;
 5/5=2,38=5/2;
 8/6=1,10=2,108=3/1;
 9/41=3,42=1,48=2,70=2/14;
 6/7=2,8=2,9=2,10=2/1;
 99/5=1,9=1/99;
 -------------------
 Title Card Required
 -------------------
 Symbolic Z-matrix:
 Charge =  0 Multiplicity = 1
 C                     0.33921  -2.58532  -1.53296 
 C                    -0.2372   -1.48389  -0.98788 
 C                    -1.64444  -1.60625  -0.62701 
 C                    -2.39615  -0.57379  -0.19389 
 C                    -3.89177  -0.68647   0.13844 
 C                    -4.33619  -2.16205   0.20653 
 C                    -4.17807  -0.03885   1.51579 
 C                    -4.73271   0.02066  -0.95587 
 C                    -1.71583   0.74381  -0.13487 
 O                    -2.36729   1.78761  -0.1654 
 C                    -0.19798   0.8175   -0.0786 
 C                     0.35417   2.10696   0.59625 
 C                    -0.45532   2.36812   1.90299 
 C                     1.823     2.00143   1.06657 
 C                     0.21927   3.33544  -0.34135 
 C                     0.47716  -0.22154  -0.66623 
 C                     1.96043  -0.23223  -1.10047 
 C                     2.40618   0.97115  -1.81978 
 N                     2.83405   1.83889  -2.46272 
 C                     2.98812  -0.69311  -0.07239 
 N                     4.27239  -0.33981  -0.18705 
 S                     2.61942  -1.78306   1.1682 
 O                     3.97643  -2.03423   1.86462 
 H                    -0.25376  -3.48218  -1.67884 
 H                     1.37763  -2.67071  -1.82802 
 H                    -2.07716  -2.59178  -0.7579 
 H                    -5.38974  -2.20633   0.50011 
 H                    -4.25039  -2.66645  -0.76218 
 H                    -3.76098  -2.73001   0.94645 
 H                    -5.24048  -0.14954   1.75911 
 H                    -3.93981   1.02606   1.51701 
 H                    -3.601    -0.52882   2.30852 
 H                    -4.55427  -0.43349  -1.93714 
 H                    -5.79882  -0.08678  -0.72409 
 H                    -4.49391   1.08304  -1.01584 
 H                     0.01159   3.19878   2.44139 
 H                    -1.49226   2.63408   1.70837 
 H                    -0.43068   1.49329   2.56352 
 H                     2.05504   2.89831   1.64921 
 H                     2.54766   1.98241   0.2543 
 H                     1.98477   1.13904   1.71776 
 H                     0.81337   3.21409  -1.25071 
 H                    -0.82098   3.50589  -0.61809 
 H                     0.59114   4.22391   0.18252 
 H                     2.01797  -0.98074  -1.90029 
 H                     4.89638  -0.72897   0.52248 
 H                     4.58846   0.37588  -0.82585 
 
                          Input orientation:                          
 ---------------------------------------------------------------------
 Center     Atomic      Atomic             Coordinates (Angstroms)
 Number     Number       Type             X           Y           Z
 ---------------------------------------------------------------------
      1          6           0        0.339209   -2.585322   -1.532958
      2          6           0       -0.237198   -1.483893   -0.987875
      3          6           0       -1.644444   -1.606252   -0.627009
      4          6           0       -2.396145   -0.573792   -0.193885
      5          6           0       -3.891766   -0.686465    0.138443
      6          6           0       -4.336189   -2.162046    0.206530
      7          6           0       -4.178066   -0.038847    1.515789
      8          6           0       -4.732710    0.020659   -0.955871
      9          6           0       -1.715832    0.743811   -0.134874
     10          8           0       -2.367285    1.787612   -0.165400
     11          6           0       -0.197983    0.817500   -0.078600
     12          6           0        0.354172    2.106958    0.596249
     13          6           0       -0.455323    2.368123    1.902989
     14          6           0        1.823001    2.001426    1.066571
     15          6           0        0.219273    3.335439   -0.341347
     16          6           0        0.477158   -0.221540   -0.666228
     17          6           0        1.960431   -0.232227   -1.100471
     18          6           0        2.406176    0.971152   -1.819783
     19          7           0        2.834045    1.838885   -2.462723
     20          6           0        2.988123   -0.693112   -0.072392
     21          7           0        4.272389   -0.339808   -0.187052
     22         16           0        2.619420   -1.783062    1.168200
     23          8           0        3.976429   -2.034231    1.864617
     24          1           0       -0.253761   -3.482178   -1.678838
     25          1           0        1.377628   -2.670705   -1.828018
     26          1           0       -2.077161   -2.591780   -0.757897
     27          1           0       -5.389736   -2.206329    0.500110
     28          1           0       -4.250387   -2.666448   -0.762175
     29          1           0       -3.760978   -2.730010    0.946445
     30          1           0       -5.240480   -0.149542    1.759110
     31          1           0       -3.939813    1.026061    1.517014
     32          1           0       -3.601004   -0.528823    2.308519
     33          1           0       -4.554271   -0.433485   -1.937139
     34          1           0       -5.798823   -0.086781   -0.724087
     35          1           0       -4.493910    1.083040   -1.015842
     36          1           0        0.011586    3.198777    2.441393
     37          1           0       -1.492255    2.634077    1.708365
     38          1           0       -0.430677    1.493288    2.563516
     39          1           0        2.055037    2.898308    1.649211
     40          1           0        2.547655    1.982408    0.254304
     41          1           0        1.984774    1.139036    1.717761
     42          1           0        0.813374    3.214095   -1.250705
     43          1           0       -0.820977    3.505892   -0.618085
     44          1           0        0.591143    4.223911    0.182519
     45          1           0        2.017974   -0.980744   -1.900290
     46          1           0        4.896380   -0.728973    0.522478
     47          1           0        4.588460    0.375876   -0.825849
 ---------------------------------------------------------------------
                    Distance matrix (angstroms):
                    1          2          3          4          5
     1  C    0.000000
     2  C    1.357390   0.000000
     3  C    2.390439   1.457922   0.000000
     4  C    3.649867   2.473814   1.348564   0.000000
     5  C    4.929542   3.906450   2.546052   1.536235   0.000000
     6  C    5.006429   4.322988   2.872140   2.539026   1.542559
     7  C    6.015411   4.887426   3.669820   2.526736   1.548696
     8  C    5.731364   4.740710   3.506049   2.528543   1.550721
     9  C    4.154631   2.806534   2.402101   1.484044   2.618221
    10  O    5.321454   3.989546   3.500556   2.361752   2.921886
    11  C    3.739376   2.474819   2.875339   2.604016   3.994127
    12  C    5.152789   3.969053   4.390758   3.921094   5.103018
    13  C    6.080595   4.821068   4.859069   4.101041   4.924761
    14  C    5.476993   4.540112   5.282682   5.101146   6.383161
    15  C    6.040673   4.883884   5.289173   4.705767   5.771183
    16  C    2.521451   1.485697   2.533804   2.933097   4.466671
    17  C    2.890063   2.531584   3.886803   4.462994   5.999121
    18  C    4.123485   3.702262   4.947044   5.300253   6.800472
    19  N    5.163553   4.759051   5.941017   6.190600   7.640680
    20  C    3.567977   3.444726   4.754167   5.386960   6.883122
    21  N    4.724796   4.720871   6.066824   6.672641   8.177991
    22  S    3.624809   3.591438   4.629749   5.336057   6.682699
    23  O    5.007653   5.118030   6.163244   6.854197   8.167291
    24  H    1.085009   2.114438   2.561141   3.905586   4.934937
    25  H    1.082896   2.173022   3.421754   4.616145   5.964117
    26  H    2.537638   2.160039   1.084270   2.119466   2.779648
    27  H    6.090797   5.411530   3.956981   3.479712   2.164418
    28  H    4.654576   4.189876   2.816598   2.853134   2.204553
    29  H    4.793736   4.208495   2.866759   2.795067   2.201374
    30  H    6.921247   5.861676   4.554892   3.476265   2.175748
    31  H    6.376084   5.126763   4.098125   2.805284   2.198980
    32  H    5.874641   4.805576   3.688673   2.777721   2.195136
    33  H    5.360962   4.543300   3.399841   2.777792   2.193388
    34  H    6.676258   5.740486   4.424600   3.478004   2.177256
    35  H    6.089608   4.970868   3.937377   2.796663   2.196838
    36  H    7.025568   5.809404   5.936820   5.193663   5.969493
    37  H    6.411128   5.079622   4.843297   3.837447   4.387289
    38  H    5.831714   4.638256   4.610838   3.967259   4.755149
    39  H    6.568140   5.604663   6.257667   5.938476   7.106158
    40  H    5.379191   4.616672   5.588281   5.583564   6.971546
    41  H    5.210173   4.374629   5.119158   5.077462   6.352985
    42  H    5.825610   4.821190   5.446615   5.076019   6.267571
    43  H    6.267847   5.037410   5.178049   4.393737   5.251470
    44  H    7.026520   5.885151   6.296347   5.664232   6.649076
    45  H    2.351139   2.484242   3.927571   4.749934   6.258439
    46  H    5.332791   5.404137   6.698755   7.329269   8.796636
    47  H    5.227316   5.174164   6.543505   7.077143   8.600736
                    6          7          8          9         10
     6  C    0.000000
     7  C    2.499427   0.000000
     8  C    2.504517   2.533826   0.000000
     9  C    3.927701   3.065916   3.209133   0.000000
    10  O    4.428850   3.072666   3.056502   1.230790   0.000000
    11  C    5.107225   4.372238   4.687036   1.520678   2.377924
    12  C    6.354193   5.098158   5.712975   2.584111   2.844015
    13  C    6.201736   4.449971   5.655060   2.894850   2.875904
    14  C    7.483969   6.354315   7.140802   3.943147   4.372867
    15  C    7.160639   5.845627   5.990621   3.240956   3.019438
    16  C    5.262659   5.144481   5.223531   2.454271   3.518292
    17  C    6.714155   6.675579   6.699477   3.924275   4.866542
    18  C    7.705995   7.449724   7.253515   4.458873   5.117570
    19  N    8.633922   8.277931   7.926685   5.226801   5.686313
    20  C    7.475367   7.369169   7.803926   4.918927   5.902799
    21  N    8.808125   8.625569   9.045044   6.085700   6.972206
    22  S    7.031994   7.026302   7.862500   5.184351   6.276578
    23  O    8.477335   8.402323   9.382261   6.642087   7.679203
    24  H    4.686532   6.120649   5.731800   4.730799   5.876067
    25  H    6.086528   6.998104   6.733521   4.908681   6.055185
    26  H    2.493591   4.012595   3.730412   3.412460   4.428803
    27  H    1.094583   2.682858   2.740628   4.754377   5.052690
    28  H    1.095524   3.478310   2.736914   4.295037   4.872460
    29  H    1.095867   2.782171   3.482707   4.173644   4.856695
    30  H    2.697855   1.095528   2.767295   4.099805   3.963780
    31  H    3.469655   1.091236   2.784722   2.784689   2.425556
    32  H    2.761571   1.096129   3.498418   3.338209   3.606689
    33  H    2.762390   3.495709   1.095890   3.562432   3.585420
    34  H    2.704084   2.765175   1.096296   4.208072   3.949802
    35  H    3.471261   2.787031   1.090539   2.934092   2.396290
    36  H    7.255080   5.375141   6.644560   3.955753   3.800761
    37  H    5.774622   3.794099   4.942535   2.649646   2.234542
    38  H    5.845500   4.181877   5.749975   3.081339   3.359175
    39  H    8.278664   6.891753   7.819260   4.695133   4.907483
    40  H    8.035303   7.135274   7.636537   4.456782   4.936672
    41  H    7.289413   6.277643   7.315987   4.157276   4.786164
    42  H    7.585804   6.568835   6.406560   3.707326   3.650936
    43  H    6.720285   5.328099   5.250010   2.943357   2.355521
    44  H    8.065955   6.534070   6.877984   4.187358   3.848233
    45  H    6.797761   7.137764   6.889591   4.475722   5.468467
    46  H    9.348468   9.154699   9.770713   6.806067   7.717979
    47  H    9.335749   9.083350   9.328842   6.352710   7.128224
                   11         12         13         14         15
    11  C    0.000000
    12  C    1.556598   0.000000
    13  C    2.529298   1.559185   0.000000
    14  C    2.607197   1.545897   2.454551   0.000000
    15  C    2.565766   1.551274   2.535315   2.516698   0.000000
    16  C    1.371396   2.651580   3.765203   3.123374   3.581083
    17  C    2.608620   3.306163   4.649566   3.115151   4.041799
    18  C    3.136395   3.367193   4.898850   3.119711   3.543751
    19  N    3.990046   3.947017   5.491764   3.674853   3.684690
    20  C    3.526083   3.901944   5.013044   3.148854   4.895722
    21  N    4.619020   4.685365   5.835445   3.612817   5.473481
    22  S    4.031773   4.537701   5.217882   3.868716   5.851367
    23  O    5.416104   5.646145   6.246809   4.643345   6.914901
    24  H    4.588148   6.064985   6.862662   6.474575   6.963659
    25  H    4.208395   5.454411   6.532221   5.514146   6.294898
    26  H    3.951701   5.461065   5.857586   6.295831   6.370169
    27  H    6.035954   7.183743   6.873290   8.369567   7.929705
    28  H    5.387685   6.769984   6.844890   7.875240   7.495172
    29  H    5.131323   6.360295   6.150877   7.319955   7.368207
    30  H    5.453359   6.143628   5.408980   7.416134   6.809252
    31  H    4.073177   4.522660   3.753902   5.862104   5.107321
    32  H    4.369379   5.051992   4.295586   6.112645   6.045563
    33  H    4.898610   6.079862   6.276700   7.457926   6.287930
    34  H    5.709973   6.664467   6.440580   8.103041   6.933654
    35  H    4.404988   5.210676   5.145989   6.714406   5.267100
    36  H    3.473437   2.171173   1.094472   2.570021   2.793824
    37  H    2.858030   2.218997   1.088043   3.435560   2.760898
    38  H    2.737081   2.205157   1.096467   2.752837   3.500598
    39  H    3.520112   2.151257   2.578257   1.094398   2.742888
    40  H    3.001060   2.223467   3.447436   1.088698   2.758053
    41  H    2.845123   2.203072   2.738437   1.092674   3.490144
    42  H    2.853128   2.201785   3.503005   2.803512   1.092983
    43  H    2.811871   2.193764   2.789988   3.477370   1.089843
    44  H    3.506357   2.169981   2.738441   2.690439   1.096406
    45  H    3.385661   4.305212   5.638886   4.211130   4.929002
    46  H    5.357743   5.355334   6.335498   4.146899   6.256274
    47  H    4.864509   4.790428   6.070861   3.724437   5.299392
                   16         17         18         19         20
    16  C    0.000000
    17  C    1.545568   0.000000
    18  C    2.544467   1.471129   0.000000
    19  N    3.609385   2.628391   1.161639   0.000000
    20  C    2.622969   1.524963   2.482300   3.485460   0.000000
    21  N    3.827189   2.488184   2.804849   3.463267   1.336903
    22  S    3.223781   2.825991   4.069301   5.133046   1.692041
    23  O    4.683580   4.012881   5.007277   5.918779   2.554868
    24  H    3.491616   3.974838   5.189150   6.201833   4.568301
    25  H    2.856398   2.610586   3.784323   4.781255   3.096254
    26  H    3.485827   4.689029   5.824294   6.830605   5.452702
    27  H    6.302395   7.777139   8.732384   9.631859   8.532649
    28  H    5.323200   6.679381   7.659014   8.566158   7.534314
    29  H    5.182175   6.569879   7.706128   8.717314   7.123015
    30  H    6.211186   7.748365   8.516794   9.326075   8.447472
    31  H    5.082587   6.576275   7.169993   7.898363   7.312870
    32  H    5.057168   6.529835   7.441708   8.353481   7.008018
    33  H    5.193786   6.571291   7.101732   7.747717   7.773828
    34  H    6.277694   7.769739   8.345165   9.014292   8.831917
    35  H    5.151279   6.587534   6.947663   7.507576   7.747621
    36  H    4.644635   5.302319   5.371592   5.819445   5.506876
    37  H    4.203787   5.293987   5.514609   6.061945   5.857907
    38  H    3.767764   4.703148   5.247254   6.003409   4.839065
    39  H    4.193377   4.167727   3.983861   4.317086   4.090582
    40  H    3.160969   2.661739   2.311816   2.735846   2.731144
    41  H    3.131689   3.134228   3.566508   4.322904   2.751022
    42  H    3.501177   3.635305   2.809210   2.728241   4.624308
    43  H    3.947306   4.684278   4.275921   4.420496   5.695495
    44  H    4.527184   4.835099   4.228948   4.209069   5.476094
    45  H    2.115045   1.096950   1.991753   2.988747   2.089290
    46  H    4.604349   3.391241   3.818079   4.445059   1.999150
    47  H    4.157546   2.711410   2.470753   2.810289   2.066763
                   21         22         23         24         25
    21  N    0.000000
    22  S    2.579146   0.000000
    23  O    2.677313   1.545819   0.000000
    24  H    5.708410   4.387230   5.705009   0.000000
    25  H    4.062695   3.362630   4.560090   1.828161   0.000000
    26  H    6.761215   5.140209   6.620755   2.228391   3.617590
    27  H    9.864723   8.048110   9.466601   5.723097   7.171683
    28  H    8.853346   7.190338   8.659113   4.180754   5.728053
    29  H    8.457710   6.454097   7.822699   4.445047   5.840071
    30  H    9.711767   8.049571   9.408220   6.913271   7.938709
    31  H    8.497629   7.143975   8.494298   6.642640   7.289067
    32  H    8.261593   6.447257   7.738268   5.985429   6.818018
    33  H    8.998973   7.932612   9.475684   5.277844   6.340701
    34  H   10.088694   8.793460  10.298034   6.571756   7.706930
    35  H    8.919607   7.973960   9.474232   6.265752   7.016067
    36  H    6.130640   5.765461   6.590677   7.853781   7.385442
    37  H    6.757789   6.058776   7.191941   7.100393   6.991634
    38  H    5.748452   4.688760   5.688096   6.540958   6.316199
    39  H    4.332887   4.739739   5.297932   7.557583   6.600296
    40  H    2.926122   3.875451   4.557180   6.437909   5.230343
    41  H    3.323925   3.040304   3.749384   6.156585   5.239781
    42  H    5.072117   5.838192   6.874233   6.794273   5.939911
    43  H    6.396685   6.557452   7.737692   7.090843   6.666945
    44  H    5.875005   6.416323   7.311221   7.972598   7.224718
    45  H    2.903166   3.228170   4.372631   3.386295   1.808655
    46  H    1.021884   2.590870   2.085988   6.240984   4.655832
    47  H    1.010033   3.537565   3.663578   6.249742   4.538220
                   26         27         28         29         30
    26  H    0.000000
    27  H    3.564310   0.000000
    28  H    2.174513   1.761587   0.000000
    29  H    2.399819   1.768137   1.778467   0.000000
    30  H    4.722969   2.416140   3.697564   3.083531   0.000000
    31  H    4.661917   3.685745   4.350377   3.803367   1.769855
    32  H    3.997599   3.046954   3.797407   2.593465   1.770194
    33  H    3.490691   3.127485   2.541458   3.770729   3.770114
    34  H    4.486305   2.481631   3.008951   3.732311   2.545968
    35  H    4.405850   3.731027   3.765941   4.350530   3.126817
    36  H    6.937497   7.884036   7.926419   7.184541   6.265856
    37  H    5.808110   6.330858   6.465789   5.873760   4.669079
    38  H    5.516382   6.522045   6.553916   5.616233   5.145888
    39  H    7.280817   9.099582   8.748695   8.123908   7.907341
    40  H    6.583059   8.978202   8.298100   7.904732   8.213690
    41  H    6.045427   8.188867   7.714209   6.969800   7.339376
    42  H    6.504324   8.421694   7.775675   7.815660   7.551304
    43  H    6.227291   7.399553   7.062535   7.069500   6.208483
    44  H    7.379558   8.787478   8.474073   8.239026   7.457919
    45  H    4.546496   7.882775   6.590088   6.675337   8.171124
    46  H    7.330736  10.391692   9.437557   8.895715  10.228437
    47  H    7.296719  10.391840   9.347995   9.082988  10.176745
                   31         32         33         34         35
    31  H    0.000000
    32  H    1.777340   0.000000
    33  H    3.799869   4.352404   0.000000
    34  H    3.117189   3.771274   1.772176   0.000000
    35  H    2.593382   3.800889   1.775466   1.776626   0.000000
    36  H    4.603121   5.192636   7.294650   7.387558   6.060389
    37  H    2.934769   3.848499   5.663531   5.645035   4.340156
    38  H    3.691545   3.768943   6.400967   6.490142   5.430467
    39  H    6.281800   6.646105   8.224701   8.730774   7.299754
    40  H    6.678044   6.952128   7.815134   8.654622   7.211503
    41  H    5.929063   5.859323   7.654425   8.249220   7.032003
    42  H    5.919506   6.794427   6.525921   7.409066   5.723969
    43  H    4.520547   5.707231   5.585345   6.139828   4.418015
    44  H    5.704094   6.684493   7.256692   7.761164   6.095810
    45  H    7.155450   7.035000   6.595093   7.955183   6.888112
    46  H    9.063529   8.685363   9.769945  10.786737   9.686453
    47  H    8.868099   8.815331   9.245516  10.398079   9.111840
                   36         37         38         39         40
    36  H    0.000000
    37  H    1.765716   0.000000
    38  H    1.766127   1.777535   0.000000
    39  H    2.212132   3.557611   2.998134   0.000000
    40  H    3.562942   4.342792   3.800284   1.739917   0.000000
    41  H    2.942728   3.784834   2.583641   1.762009   1.780398
    42  H    3.778186   3.795845   4.365446   3.170325   2.605731
    43  H    3.185575   2.573528   3.784903   3.712310   3.798651
    44  H    2.547410   3.032544   3.764248   2.459958   2.976143
    45  H    6.351708   6.197663   5.660591   5.258077   3.701771
    46  H    6.555202   7.316494   6.122239   4.743409   3.597223
    47  H    6.292171   6.963965   6.158583   4.348197   2.812927
                   41         42         43         44         45
    41  H    0.000000
    42  H    3.806552   0.000000
    43  H    4.350911   1.776642   0.000000
    44  H    3.716938   1.767271   1.774993   0.000000
    45  H    4.193431   4.412448   5.462014   5.784667   0.000000
    46  H    3.660001   5.946671   7.205771   6.571278   3.770731
    47  H    3.719079   4.742074   6.253173   5.639390   3.098748
                   46         47
    46  H    0.000000
    47  H    1.770167   0.000000
 Stoichiometry    C18H24N2O2S
 Framework group  C1[X(C18H24N2O2S)]
 Deg. of freedom   135
 Full point group                 C1      NOp   1
 Largest Abelian subgroup         C1      NOp   1
 Largest concise Abelian subgroup C1      NOp   1
                         Standard orientation:                         
 ---------------------------------------------------------------------
 Center     Atomic      Atomic             Coordinates (Angstroms)
 Number     Number       Type             X           Y           Z
 ---------------------------------------------------------------------
      1          6           0        0.339209   -2.585322   -1.532958
      2          6           0       -0.237198   -1.483893   -0.987875
      3          6           0       -1.644444   -1.606252   -0.627009
      4          6           0       -2.396145   -0.573792   -0.193885
      5          6           0       -3.891766   -0.686465    0.138443
      6          6           0       -4.336189   -2.162046    0.206530
      7          6           0       -4.178066   -0.038847    1.515789
      8          6           0       -4.732710    0.020659   -0.955871
      9          6           0       -1.715832    0.743811   -0.134874
     10          8           0       -2.367285    1.787612   -0.165400
     11          6           0       -0.197983    0.817500   -0.078600
     12          6           0        0.354172    2.106958    0.596249
     13          6           0       -0.455323    2.368123    1.902989
     14          6           0        1.823001    2.001426    1.066571
     15          6           0        0.219273    3.335439   -0.341347
     16          6           0        0.477158   -0.221540   -0.666228
     17          6           0        1.960431   -0.232227   -1.100471
     18          6           0        2.406176    0.971152   -1.819783
     19          7           0        2.834045    1.838885   -2.462723
     20          6           0        2.988123   -0.693112   -0.072392
     21          7           0        4.272389   -0.339808   -0.187052
     22         16           0        2.619420   -1.783062    1.168200
     23          8           0        3.976429   -2.034231    1.864617
     24          1           0       -0.253761   -3.482178   -1.678838
     25          1           0        1.377628   -2.670705   -1.828018
     26          1           0       -2.077161   -2.591780   -0.757897
     27          1           0       -5.389736   -2.206329    0.500110
     28          1           0       -4.250387   -2.666448   -0.762175
     29          1           0       -3.760978   -2.730010    0.946445
     30          1           0       -5.240480   -0.149542    1.759110
     31          1           0       -3.939813    1.026061    1.517014
     32          1           0       -3.601004   -0.528823    2.308519
     33          1           0       -4.554271   -0.433485   -1.937139
     34          1           0       -5.798823   -0.086781   -0.724087
     35          1           0       -4.493910    1.083040   -1.015842
     36          1           0        0.011586    3.198777    2.441393
     37          1           0       -1.492255    2.634077    1.708365
     38          1           0       -0.430677    1.493288    2.563516
     39          1           0        2.055037    2.898308    1.649211
     40          1           0        2.547655    1.982408    0.254304
     41          1           0        1.984774    1.139036    1.717761
     42          1           0        0.813374    3.214095   -1.250705
     43          1           0       -0.820977    3.505892   -0.618085
     44          1           0        0.591143    4.223911    0.182519
     45          1           0        2.017974   -0.980744   -1.900290
     46          1           0        4.896380   -0.728973    0.522478
     47          1           0        4.588460    0.375876   -0.825849
 ---------------------------------------------------------------------
 Rotational constants (GHZ):           0.3677801           0.1722045           0.1476364
 Standard basis: 6-31+G(d,p) (6D, 7F)
 There are   561 symmetry adapted cartesian basis functions of A   symmetry.
 There are   561 symmetry adapted basis functions of A   symmetry.
   561 basis functions,   928 primitive gaussians,   561 cartesian basis functions
    89 alpha electrons       89 beta electrons
       nuclear repulsion energy      2187.3535223192 Hartrees.
 NAtoms=   47 NActive=   47 NUniq=   47 SFac= 1.00D+00 NAtFMM=   60 NAOKFM=F Big=F
 Integral buffers will be    131072 words long.
 Regular integral format.
 Two-electron integral symmetry is turned on.
 One-electron integrals computed using PRISM.
 NBasis=   561 RedAO= T EigKep=  1.49D-06  NBF=   561
 NBsUse=   557 1.00D-06 EigRej=  9.20D-07 NBFU=   557
 ExpMin= 4.05D-02 ExpMax= 2.19D+04 ExpMxC= 3.30D+03 IAcc=3 IRadAn=         5 AccDes= 0.00D+00
 Harris functional with IExCor=  402 and IRadAn=       5 diagonalized for initial guess.
 HarFok:  IExCor=  402 AccDes= 0.00D+00 IRadAn=         5 IDoV= 1 UseB2=F ITyADJ=14
 ICtDFT=  3500011 ScaDFX=  1.000000  1.000000  1.000000  1.000000
 FoFCou: FMM=F IPFlag=           0 FMFlag=      100000 FMFlg1=           0
         NFxFlg=           0 DoJE=T BraDBF=F KetDBF=T FulRan=T
         wScrn=  0.000000 ICntrl=       500 IOpCl=  0 I1Cent=   200000004 NGrid=           0
         NMat0=    1 NMatS0=      1 NMatT0=    0 NMatD0=    1 NMtDS0=    0 NMtDT0=    0
 Petite list used in FoFCou.
 Requested convergence on RMS density matrix=1.00D-08 within 128 cycles.
 Requested convergence on MAX density matrix=1.00D-06.
 Requested convergence on             energy=1.00D-06.
 No special actions if energy rises.
 EnCoef did     1 forward-backward iterations
 SCF Done:  E(RB3LYP) =  -1358.46608638     A.U. after   19 cycles
            NFock= 19  Conv=0.48D-08     -V/T= 2.0079
 DoSCS=F DFT=T ScalE2(SS,OS)=  1.000000  1.000000
 ExpMin= 4.05D-02 ExpMax= 2.19D+04 ExpMxC= 3.30D+03 IAcc=3 IRadAn=         5 AccDes= 0.00D+00
 HarFok:  IExCor=  205 AccDes= 0.00D+00 IRadAn=         5 IDoV=-2 UseB2=F ITyADJ=14
 ICtDFT= 12500011 ScaDFX=  1.000000  1.000000  1.000000  1.000000
 GSVD:  LWork=        -945 too small for GESVD, short by        4050 words or        4050 for optimal perf.
 Range of M.O.s used for correlation:    28   557
 NBasis=   561 NAE=    89 NBE=    89 NFC=    27 NFV=     0
 NROrb=    530 NOA=    62 NOB=    62 NVA=   468 NVB=   468

 **** Warning!!: The largest alpha MO coefficient is  0.14434352D+03

 Orbital symmetries:
       Occupied  (A) (A) (A) (A) (A) (A) (A) (A) (A) (A) (A) (A)
                 (A) (A) (A) (A) (A) (A) (A) (A) (A) (A) (A) (A)
                 (A) (A) (A) (A) (A) (A) (A) (A) (A) (A) (A) (A)
                 (A) (A) (A) (A) (A) (A) (A) (A) (A) (A) (A) (A)
                 (A) (A) (A) (A) (A) (A) (A) (A) (A) (A) (A) (A)
                 (A) (A) (A) (A) (A) (A) (A) (A) (A) (A) (A) (A)
                 (A) (A) (A) (A) (A) (A) (A) (A) (A) (A) (A) (A)
                 (A) (A) (A) (A) (A)
       Virtual   (A) (A) (A) (A) (A) (A) (A) (A) (A) (A) (A) (A)
                 (A) (A) (A) (A) (A) (A) (A) (A) (A) (A) (A) (A)
                 (A) (A) (A) (A) (A) (A) (A) (A) (A) (A) (A) (A)
                 (A) (A) (A) (A) (A) (A) (A) (A) (A) (A) (A) (A)
                 (A) (A) (A) (A) (A) (A) (A) (A) (A) (A) (A) (A)
                 (A) (A) (A) (A) (A) (A) (A) (A) (A) (A) (A) (A)
                 (A) (A) (A) (A) (A) (A) (A) (A) (A) (A) (A) (A)
                 (A) (A) (A) (A) (A) (A) (A) (A) (A) (A) (A) (A)
                 (A) (A) (A) (A) (A) (A) (A) (A) (A) (A) (A) (A)
                 (A) (A) (A) (A) (A) (A) (A) (A) (A) (A) (A) (A)
                 (A) (A) (A) (A) (A) (A) (A) (A) (A) (A) (A) (A)
                 (A) (A) (A) (A) (A) (A) (A) (A) (A) (A) (A) (A)
                 (A) (A) (A) (A) (A) (A) (A) (A) (A) (A) (A) (A)
                 (A) (A) (A) (A) (A) (A) (A) (A) (A) (A) (A) (A)
                 (A) (A) (A) (A) (A) (A) (A) (A) (A) (A) (A) (A)
                 (A) (A) (A) (A) (A) (A) (A) (A) (A) (A) (A) (A)
                 (A) (A) (A) (A) (A) (A) (A) (A) (A) (A) (A) (A)
                 (A) (A) (A) (A) (A) (A) (A) (A) (A) (A) (A) (A)
                 (A) (A) (A) (A) (A) (A) (A) (A) (A) (A) (A) (A)
                 (A) (A) (A) (A) (A) (A) (A) (A) (A) (A) (A) (A)
                 (A) (A) (A) (A) (A) (A) (A) (A) (A) (A) (A) (A)
                 (A) (A) (A) (A) (A) (A) (A) (A) (A) (A) (A) (A)
                 (A) (A) (A) (A) (A) (A) (A) (A) (A) (A) (A) (A)
                 (A) (A) (A) (A) (A) (A) (A) (A) (A) (A) (A) (A)
                 (A) (A) (A) (A) (A) (A) (A) (A) (A) (A) (A) (A)
                 (A) (A) (A) (A) (A) (A) (A) (A) (A) (A) (A) (A)
                 (A) (A) (A) (A) (A) (A) (A) (A) (A) (A) (A) (A)
                 (A) (A) (A) (A) (A) (A) (A) (A) (A) (A) (A) (A)
                 (A) (A) (A) (A) (A) (A) (A) (A) (A) (A) (A) (A)
                 (A) (A) (A) (A) (A) (A) (A) (A) (A) (A) (A) (A)
                 (A) (A) (A) (A) (A) (A) (A) (A) (A) (A) (A) (A)
                 (A) (A) (A) (A) (A) (A) (A) (A) (A) (A) (A) (A)
                 (A) (A) (A) (A) (A) (A) (A) (A) (A) (A) (A) (A)
                 (A) (A) (A) (A) (A) (A) (A) (A) (A) (A) (A) (A)
                 (A) (A) (A) (A) (A) (A) (A) (A) (A) (A) (A) (A)
                 (A) (A) (A) (A) (A) (A) (A) (A) (A) (A) (A) (A)
                 (A) (A) (A) (A) (A) (A) (A) (A) (A) (A) (A) (A)
                 (A) (A) (A) (A) (A) (A) (A) (A) (A) (A) (A) (A)
                 (A) (A) (A) (A) (A) (A) (A) (A) (A) (A) (A) (A)
    24 initial guesses have been made.
 Convergence on wavefunction:    0.001000000000000
 Iteration     1 Dimension    24 NMult     0 NNew     24
 CISAX will form    24 AO SS matrices at one time.
 New state      1 was old state      2
 New state      2 was old state      8
 New state      3 was old state      1
 New state      4 was old state      6
 New state      5 was old state      4
 New state      6 was old state      3
 New state      7 was old state     12
 New state      8 was old state      9
 New state      9 was old state     10
 New state     10 was old state     14
 New state     12 was old state     24
 Vector   5 SDiff=2.48D+00 TDiff=2.93D+00 assumed to be singlet.
 Vector  11 SDiff=2.59D+00 TDiff=2.56D+00 assumed to be triplet.
 Iteration     2 Dimension    36 NMult    24 NNew     12
 New state      5 was old state      6
 New state      6 was old state      8
 Iteration     3 Dimension    48 NMult    36 NNew     12
 Iteration     4 Dimension    60 NMult    48 NNew     12
 Iteration     5 Dimension    72 NMult    60 NNew     12
 Iteration     6 Dimension    78 NMult    72 NNew      6
 Iteration     7 Dimension    80 NMult    78 NNew      2
 Iteration     8 Dimension    82 NMult    80 NNew      2
 Iteration     9 Dimension    84 NMult    82 NNew      2
 ***********************************************************************
 Excited states from <AA,BB:AA,BB> singles matrix:
 ***********************************************************************
 
 Ground to excited state transition densities written to RWF  633
 Ground to excited state transition electric dipole moments (Au):
       state          X           Y           Z        Dip. S.      Osc.
         1        -0.0000      0.0000      0.0000      0.0000      0.0000
         2         0.0000     -0.0000      0.0000      0.0000      0.0000
         3        -0.5413      0.1818     -0.0461      0.3282      0.0188
         4        -0.0000     -0.0000      0.0000      0.0000      0.0000
         5        -0.1031     -0.0823     -0.0326      0.0185      0.0013
         6         0.0617     -0.1873     -0.1639      0.0658      0.0060
 Ground to excited state transition velocity dipole moments (Au):
       state          X           Y           Z        Dip. S.      Osc.
         1        -0.0000     -0.0000      0.0000      0.0000      0.0000
         2        -0.0000     -0.0000      0.0000      0.0000      0.0000
         3         0.0406     -0.0161      0.0038      0.0019      0.0149
         4         0.0000      0.0000     -0.0000      0.0000      0.0000
         5         0.0103      0.0075      0.0033      0.0002      0.0011
         6        -0.0094      0.0227      0.0208      0.0010      0.0050
 Ground to excited state transition magnetic dipole moments (Au):
       state          X           Y           Z
         1        -0.0000      0.0000      0.0000
         2         0.0000     -0.0000      0.0000
         3        -0.1336     -0.0985      0.2587
         4         0.0000     -0.0000      0.0000
         5         0.2218     -0.3743      0.0738
         6        -0.0356      0.1493     -0.6442
 Ground to excited state transition velocity quadrupole moments (Au):
       state          XX          YY          ZZ          XY          XZ          YZ
         1        -0.0000      0.0000      0.0000     -0.0000     -0.0000      0.0000
         2        -0.0000     -0.0000     -0.0000      0.0000      0.0000      0.0000
         3         0.1004     -0.0292      0.0159     -0.0505      0.0302     -0.0263
         4         0.0000      0.0000      0.0000      0.0000     -0.0000     -0.0000
         5        -0.0605      0.0300      0.0055      0.0066      0.0151      0.0066
         6         0.3773     -0.2317     -0.0203     -0.1086      0.0344     -0.1797
 <0|del|b> * <b|rxdel|0> + <0|del|b> * <b|delr+rdel|0>
 Rotatory Strengths (R) in cgs (10**-40 erg-esu-cm/Gauss)
       state          XX          YY          ZZ    R(velocity)    E-M Angle
         1        -0.0000     -0.0000      0.0000      0.0000       90.00
         2         0.0000     -0.0000     -0.0000      0.0000       90.00
         3        11.7782    -21.7783    -13.3796     -7.7932      102.20
         4        -0.0000      0.0000     -0.0000     -0.0000       90.00
         5        -8.8954      8.6088     -1.5966     -0.6277       92.78
         6       -33.7407    -23.5731      7.2695    -16.6814      117.05
 1/2[<0|r|b>*<b|rxdel|0> + (<0|rxdel|b>*<b|r|0>)*]
 Rotatory Strengths (R) in cgs (10**-40 erg-esu-cm/Gauss)
       state          XX          YY          ZZ     R(length)
         1        -0.0000     -0.0000     -0.0000     -0.0000
         2        -0.0000     -0.0000     -0.0000     -0.0000
         3       -51.1497     12.6637      8.4383    -10.0159
         4         0.0000     -0.0000     -0.0000     -0.0000
         5        16.1661    -21.7778      1.7024     -1.3031
         6         1.5534     19.7765    -74.6540    -17.7747
  1/2[<0|del|b>*<b|r|0> + (<0|r|b>*<b|del|0>)*] (Au)
       state          X           Y           Z        Dip. S.   Osc.(frdel)
         1         0.0000     -0.0000      0.0000      0.0000      0.0000
         2        -0.0000      0.0000      0.0000     -0.0000     -0.0000
         3        -0.0220     -0.0029     -0.0002      0.0251      0.0167
         4        -0.0000     -0.0000     -0.0000      0.0000      0.0000
         5        -0.0011     -0.0006     -0.0001      0.0018      0.0012
         6        -0.0006     -0.0042     -0.0034      0.0082      0.0055

 Excitation energies and oscillator strengths:
 
 Excited State   1:      Triplet-A      1.8463 eV  671.51 nm  f=0.0000  <S**2>=2.000
      86 -> 90        -0.10067
      87 -> 90         0.47945
      88 -> 90         0.28497
      89 -> 90        -0.41100
      87 <- 90         0.12296
 This state for optimization and/or second-order correction.
 Total Energy, E(TD-HF/TD-DFT) =  -1358.39823468    
 Copying the excited state density for this state as the 1-particle RhoCI density.
 
 Excited State   2:      Triplet-A      1.9664 eV  630.51 nm  f=0.0000  <S**2>=2.000
      89 -> 91         0.71309
      89 <- 91         0.14932
 
 Excited State   3:      Singlet-A      2.3422 eV  529.34 nm  f=0.0188  <S**2>=0.000
      89 -> 90         0.70347
 
 Excited State   4:      Triplet-A      2.4039 eV  515.77 nm  f=0.0000  <S**2>=2.000
      87 -> 90         0.41170
      89 -> 90         0.55830
 
 Excited State   5:      Singlet-A      2.8814 eV  430.30 nm  f=0.0013  <S**2>=0.000
      87 -> 90        -0.29461
      88 -> 90         0.63190
 
 Excited State   6:      Singlet-A      3.7256 eV  332.79 nm  f=0.0060  <S**2>=0.000
      85 -> 90         0.33450
      86 -> 90         0.54085
      87 -> 90         0.27831
      88 -> 90         0.11347
 SavETr:  write IOETrn=   770 NScale= 10 NData=  16 NLR=1 NState=    6 LETran=     118.

 **********************************************************************

            Population analysis using the SCF Density.

 **********************************************************************

 Orbital symmetries:
       Occupied  (A) (A) (A) (A) (A) (A) (A) (A) (A) (A) (A) (A)
                 (A) (A) (A) (A) (A) (A) (A) (A) (A) (A) (A) (A)
                 (A) (A) (A) (A) (A) (A) (A) (A) (A) (A) (A) (A)
                 (A) (A) (A) (A) (A) (A) (A) (A) (A) (A) (A) (A)
                 (A) (A) (A) (A) (A) (A) (A) (A) (A) (A) (A) (A)
                 (A) (A) (A) (A) (A) (A) (A) (A) (A) (A) (A) (A)
                 (A) (A) (A) (A) (A) (A) (A) (A) (A) (A) (A) (A)
                 (A) (A) (A) (A) (A)
       Virtual   (A) (A) (A) (A) (A) (A) (A) (A) (A) (A) (A) (A)
                 (A) (A) (A) (A) (A) (A) (A) (A) (A) (A) (A) (A)
                 (A) (A) (A) (A) (A) (A) (A) (A) (A) (A) (A) (A)
                 (A) (A) (A) (A) (A) (A) (A) (A) (A) (A) (A) (A)
                 (A) (A) (A) (A) (A) (A) (A) (A) (A) (A) (A) (A)
                 (A) (A) (A) (A) (A) (A) (A) (A) (A) (A) (A) (A)
                 (A) (A) (A) (A) (A) (A) (A) (A) (A) (A) (A) (A)
                 (A) (A) (A) (A) (A) (A) (A) (A) (A) (A) (A) (A)
                 (A) (A) (A) (A) (A) (A) (A) (A) (A) (A) (A) (A)
                 (A) (A) (A) (A) (A) (A) (A) (A) (A) (A) (A) (A)
                 (A) (A) (A) (A) (A) (A) (A) (A) (A) (A) (A) (A)
                 (A) (A) (A) (A) (A) (A) (A) (A) (A) (A) (A) (A)
                 (A) (A) (A) (A) (A) (A) (A) (A) (A) (A) (A) (A)
                 (A) (A) (A) (A) (A) (A) (A) (A) (A) (A) (A) (A)
                 (A) (A) (A) (A) (A) (A) (A) (A) (A) (A) (A) (A)
                 (A) (A) (A) (A) (A) (A) (A) (A) (A) (A) (A) (A)
                 (A) (A) (A) (A) (A) (A) (A) (A) (A) (A) (A) (A)
                 (A) (A) (A) (A) (A) (A) (A) (A) (A) (A) (A) (A)
                 (A) (A) (A) (A) (A) (A) (A) (A) (A) (A) (A) (A)
                 (A) (A) (A) (A) (A) (A) (A) (A) (A) (A) (A) (A)
                 (A) (A) (A) (A) (A) (A) (A) (A) (A) (A) (A) (A)
                 (A) (A) (A) (A) (A) (A) (A) (A) (A) (A) (A) (A)
                 (A) (A) (A) (A) (A) (A) (A) (A) (A) (A) (A) (A)
                 (A) (A) (A) (A) (A) (A) (A) (A) (A) (A) (A) (A)
                 (A) (A) (A) (A) (A) (A) (A) (A) (A) (A) (A) (A)
                 (A) (A) (A) (A) (A) (A) (A) (A) (A) (A) (A) (A)
                 (A) (A) (A) (A) (A) (A) (A) (A) (A) (A) (A) (A)
                 (A) (A) (A) (A) (A) (A) (A) (A) (A) (A) (A) (A)
                 (A) (A) (A) (A) (A) (A) (A) (A) (A) (A) (A) (A)
                 (A) (A) (A) (A) (A) (A) (A) (A) (A) (A) (A) (A)
                 (A) (A) (A) (A) (A) (A) (A) (A) (A) (A) (A) (A)
                 (A) (A) (A) (A) (A) (A) (A) (A) (A) (A) (A) (A)
                 (A) (A) (A) (A) (A) (A) (A) (A) (A) (A) (A) (A)
                 (A) (A) (A) (A) (A) (A) (A) (A) (A) (A) (A) (A)
                 (A) (A) (A) (A) (A) (A) (A) (A) (A) (A) (A) (A)
                 (A) (A) (A) (A) (A) (A) (A) (A) (A) (A) (A) (A)
                 (A) (A) (A) (A) (A) (A) (A) (A) (A) (A) (A) (A)
                 (A) (A) (A) (A) (A) (A) (A) (A) (A) (A) (A) (A)
                 (A) (A) (A) (A) (A) (A) (A) (A) (A) (A) (A) (A)
 The electronic state is 1-A.
 Alpha  occ. eigenvalues --  -88.97233 -19.15647 -19.13189 -14.40965 -14.37692
 Alpha  occ. eigenvalues --  -10.30819 -10.29887 -10.29573 -10.27090 -10.26032
 Alpha  occ. eigenvalues --  -10.25007 -10.24432 -10.23684 -10.22831 -10.22648
 Alpha  occ. eigenvalues --  -10.22364 -10.22275 -10.18961 -10.18647 -10.18147
 Alpha  occ. eigenvalues --  -10.18031 -10.17944 -10.17537  -8.02251  -5.98759
 Alpha  occ. eigenvalues --   -5.98291  -5.98075  -1.05702  -1.01871  -0.97315
 Alpha  occ. eigenvalues --   -0.94510  -0.90095  -0.85618  -0.83525  -0.82659
 Alpha  occ. eigenvalues --   -0.78337  -0.76594  -0.74747  -0.69956  -0.69626
 Alpha  occ. eigenvalues --   -0.69146  -0.68999  -0.67475  -0.64925  -0.62210
 Alpha  occ. eigenvalues --   -0.60684  -0.59239  -0.57552  -0.56895  -0.54125
 Alpha  occ. eigenvalues --   -0.53829  -0.50795  -0.50168  -0.48647  -0.47406
 Alpha  occ. eigenvalues --   -0.45875  -0.45593  -0.45115  -0.44904  -0.44607
 Alpha  occ. eigenvalues --   -0.44472  -0.43322  -0.42518  -0.41952  -0.41394
 Alpha  occ. eigenvalues --   -0.41002  -0.39819  -0.39711  -0.39156  -0.39020
 Alpha  occ. eigenvalues --   -0.38573  -0.38236  -0.38152  -0.37344  -0.36770
 Alpha  occ. eigenvalues --   -0.36668  -0.35865  -0.35693  -0.35085  -0.34973
 Alpha  occ. eigenvalues --   -0.34534  -0.34085  -0.33628  -0.33046  -0.28582
 Alpha  occ. eigenvalues --   -0.27553  -0.26453  -0.26216  -0.22063
 Alpha virt. eigenvalues --   -0.11322  -0.06774  -0.04123  -0.02271  -0.02142
 Alpha virt. eigenvalues --   -0.01187  -0.00476  -0.00217   0.00461   0.00676
 Alpha virt. eigenvalues --    0.01567   0.01940   0.02379   0.02687   0.03127
 Alpha virt. eigenvalues --    0.03478   0.03680   0.04346   0.04544   0.05162
 Alpha virt. eigenvalues --    0.05392   0.05451   0.05811   0.06254   0.06590
 Alpha virt. eigenvalues --    0.07154   0.07366   0.07443   0.07737   0.07858
 Alpha virt. eigenvalues --    0.08341   0.09155   0.09493   0.09578   0.10108
 Alpha virt. eigenvalues --    0.10185   0.10514   0.10934   0.11260   0.11499
 Alpha virt. eigenvalues --    0.11879   0.11940   0.12420   0.12470   0.13293
 Alpha virt. eigenvalues --    0.13429   0.13554   0.13963   0.14212   0.14252
 Alpha virt. eigenvalues --    0.14602   0.15059   0.15763   0.16057   0.16240
 Alpha virt. eigenvalues --    0.16942   0.17125   0.17238   0.17379   0.17577
 Alpha virt. eigenvalues --    0.17828   0.18143   0.18447   0.18588   0.18700
 Alpha virt. eigenvalues --    0.19232   0.19893   0.20097   0.20258   0.20397
 Alpha virt. eigenvalues --    0.20687   0.21139   0.21298   0.21484   0.21617
 Alpha virt. eigenvalues --    0.21791   0.22088   0.22434   0.22715   0.23456
 Alpha virt. eigenvalues --    0.23805   0.24045   0.24198   0.24551   0.25121
 Alpha virt. eigenvalues --    0.25437   0.25630   0.25903   0.26101   0.26558
 Alpha virt. eigenvalues --    0.26906   0.26951   0.27258   0.27467   0.27822
 Alpha virt. eigenvalues --    0.28001   0.28332   0.28720   0.29099   0.29413
 Alpha virt. eigenvalues --    0.29645   0.29901   0.30136   0.30265   0.30303
 Alpha virt. eigenvalues --    0.30887   0.31619   0.31742   0.31899   0.32531
 Alpha virt. eigenvalues --    0.32660   0.33266   0.34120   0.34393   0.34882
 Alpha virt. eigenvalues --    0.35216   0.35329   0.36130   0.36466   0.37092
 Alpha virt. eigenvalues --    0.37817   0.38411   0.38653   0.38964   0.39324
 Alpha virt. eigenvalues --    0.40020   0.40279   0.41156   0.42437   0.42576
 Alpha virt. eigenvalues --    0.43043   0.44065   0.45028   0.46340   0.46547
 Alpha virt. eigenvalues --    0.47386   0.49339   0.51735   0.52225   0.53163
 Alpha virt. eigenvalues --    0.54996   0.56163   0.56487   0.59254   0.60037
 Alpha virt. eigenvalues --    0.63221   0.63633   0.64333   0.66418   0.66660
 Alpha virt. eigenvalues --    0.67947   0.68381   0.69186   0.69697   0.70482
 Alpha virt. eigenvalues --    0.70917   0.71865   0.72286   0.72495   0.73485
 Alpha virt. eigenvalues --    0.73791   0.74456   0.75225   0.75812   0.76362
 Alpha virt. eigenvalues --    0.76752   0.76952   0.77840   0.78228   0.79131
 Alpha virt. eigenvalues --    0.79624   0.80514   0.80793   0.81591   0.82419
 Alpha virt. eigenvalues --    0.83141   0.83813   0.84733   0.84914   0.86277
 Alpha virt. eigenvalues --    0.86348   0.86955   0.87651   0.88368   0.89020
 Alpha virt. eigenvalues --    0.89682   0.89760   0.90805   0.91405   0.92595
 Alpha virt. eigenvalues --    0.93460   0.93675   0.94110   0.95258   0.96372
 Alpha virt. eigenvalues --    0.96676   0.97519   0.98772   0.99913   1.00071
 Alpha virt. eigenvalues --    1.00413   1.01918   1.02498   1.02763   1.03035
 Alpha virt. eigenvalues --    1.03961   1.04355   1.04702   1.05167   1.06000
 Alpha virt. eigenvalues --    1.06499   1.07063   1.07449   1.08083   1.09015
 Alpha virt. eigenvalues --    1.09365   1.10126   1.10788   1.11255   1.11796
 Alpha virt. eigenvalues --    1.12390   1.13519   1.14324   1.15398   1.16369
 Alpha virt. eigenvalues --    1.16672   1.17408   1.19237   1.19889   1.19958
 Alpha virt. eigenvalues --    1.21192   1.22054   1.23075   1.23969   1.24463
 Alpha virt. eigenvalues --    1.24765   1.26478   1.27502   1.28321   1.28657
 Alpha virt. eigenvalues --    1.30146   1.31240   1.31600   1.33135   1.34028
 Alpha virt. eigenvalues --    1.34847   1.35391   1.36335   1.37040   1.38874
 Alpha virt. eigenvalues --    1.39136   1.40622   1.43078   1.43669   1.45237
 Alpha virt. eigenvalues --    1.45591   1.46334   1.47808   1.48747   1.49194
 Alpha virt. eigenvalues --    1.50144   1.51549   1.51689   1.52747   1.53235
 Alpha virt. eigenvalues --    1.55348   1.55675   1.56855   1.58638   1.60312
 Alpha virt. eigenvalues --    1.60680   1.61042   1.62354   1.64060   1.66296
 Alpha virt. eigenvalues --    1.67294   1.68605   1.69824   1.70424   1.73291
 Alpha virt. eigenvalues --    1.74717   1.76285   1.78141   1.78559   1.78966
 Alpha virt. eigenvalues --    1.80825   1.81476   1.82408   1.84152   1.85386
 Alpha virt. eigenvalues --    1.85807   1.86821   1.87551   1.88056   1.88721
 Alpha virt. eigenvalues --    1.89621   1.90497   1.90802   1.91436   1.91711
 Alpha virt. eigenvalues --    1.93140   1.94082   1.95324   1.95513   1.96149
 Alpha virt. eigenvalues --    1.97396   1.97500   1.97817   1.98203   1.99879
 Alpha virt. eigenvalues --    2.00699   2.01749   2.02264   2.02870   2.03751
 Alpha virt. eigenvalues --    2.05085   2.05813   2.06237   2.06828   2.07326
 Alpha virt. eigenvalues --    2.07797   2.08814   2.09516   2.09840   2.10332
 Alpha virt. eigenvalues --    2.11242   2.11800   2.12037   2.12991   2.13439
 Alpha virt. eigenvalues --    2.14132   2.14507   2.15374   2.15555   2.16197
 Alpha virt. eigenvalues --    2.16793   2.17584   2.18246   2.18824   2.19976
 Alpha virt. eigenvalues --    2.20816   2.21541   2.23492   2.24288   2.24714
 Alpha virt. eigenvalues --    2.25694   2.27172   2.27831   2.28507   2.29778
 Alpha virt. eigenvalues --    2.31233   2.32040   2.34803   2.35718   2.37447
 Alpha virt. eigenvalues --    2.39406   2.39793   2.41019   2.41723   2.43873
 Alpha virt. eigenvalues --    2.44848   2.45970   2.47026   2.47579   2.49950
 Alpha virt. eigenvalues --    2.51156   2.52715   2.54292   2.54802   2.55888
 Alpha virt. eigenvalues --    2.56736   2.58068   2.59525   2.59997   2.62200
 Alpha virt. eigenvalues --    2.63809   2.64955   2.65543   2.67089   2.68379
 Alpha virt. eigenvalues --    2.69311   2.69946   2.70564   2.71403   2.72411
 Alpha virt. eigenvalues --    2.72812   2.73805   2.74196   2.75263   2.75420
 Alpha virt. eigenvalues --    2.76737   2.77116   2.77394   2.79133   2.79673
 Alpha virt. eigenvalues --    2.81237   2.81680   2.84416   2.86749   2.87523
 Alpha virt. eigenvalues --    2.88342   2.88467   2.88691   2.89462   2.89976
 Alpha virt. eigenvalues --    2.92867   2.93857   2.94338   2.94436   2.95455
 Alpha virt. eigenvalues --    2.97096   2.97962   3.00383   3.01716   3.02913
 Alpha virt. eigenvalues --    3.05785   3.08619   3.14987   3.20097   3.25428
 Alpha virt. eigenvalues --    3.27745   3.28736   3.29802   3.29991   3.30499
 Alpha virt. eigenvalues --    3.31483   3.31996   3.33712   3.43142   3.44585
 Alpha virt. eigenvalues --    3.44811   3.45626   3.46535   3.46645   3.47966
 Alpha virt. eigenvalues --    3.48875   3.49142   3.50136   3.52800   3.53396
 Alpha virt. eigenvalues --    3.55582   3.56283   3.57266   3.57825   3.61614
 Alpha virt. eigenvalues --    4.02277   4.14973   4.26487   4.29886   4.33929
 Alpha virt. eigenvalues --    4.35655   4.38152   4.40464   4.42120   4.43641
 Alpha virt. eigenvalues --    4.44462   4.50443   4.54293   4.56646   4.57956
 Alpha virt. eigenvalues --    4.59923   4.64028   4.65742   4.70117   4.80386
 Alpha virt. eigenvalues --    4.84686   4.87757   4.93623
          Condensed to atoms (all electrons):
               1          2          3          4          5          6
     1  C   18.621836  -2.288504  -0.889975  -4.128388  -0.582850  -0.183916
     2  C   -2.288504  17.233290   0.968014  -5.838290  -0.455265  -0.325044
     3  C   -0.889975   0.968014   9.160775  -1.491333   0.582712  -0.233586
     4  C   -4.128388  -5.838290  -1.491333  21.833678  -4.000310   1.502501
     5  C   -0.582850  -0.455265   0.582712  -4.000310  11.684873  -1.231909
     6  C   -0.183916  -0.325044  -0.233586   1.502501  -1.231909   6.498792
     7  C    0.086550   0.121229  -0.146226   0.255442  -0.619422  -0.223776
     8  C    0.009801   0.347243   0.395206  -0.709713   0.399543  -0.343433
     9  C    1.681401   2.694650   0.419116  -4.422294   0.564229  -0.573767
    10  O    0.005308  -0.066327  -0.037742  -0.143048   0.147800   0.011925
    11  C   -2.974612  -4.363215  -1.345439   1.121121  -0.236951   0.182360
    12  C   -0.292991  -1.023199  -0.188837   0.023456  -0.047768  -0.009473
    13  C    0.051990   0.222349   0.060555  -0.059417   0.047811   0.005859
    14  C   -0.104844   0.069372   0.110757  -0.115985  -0.005151   0.005001
    15  C    0.149215   0.207336  -0.046880  -0.326167  -0.075322  -0.017523
    16  C    1.065162   0.028045  -0.040426  -0.114350  -0.155519   0.052014
    17  C   -3.148662  -0.841094  -1.599438   1.535724   0.259708  -0.028285
    18  C   -5.151663  -0.541374   0.902387   1.678831   0.235855   0.014044
    19  N    0.114747   0.006321  -0.017909  -0.038272  -0.003986  -0.000083
    20  C    3.083748   0.370380  -0.424646  -0.834738  -0.106948  -0.007103
    21  N   -0.012932  -0.005440   0.015946  -0.000743   0.000426   0.000104
    22  S   -0.013923  -0.211406  -0.096201  -0.095825   0.009656  -0.004322
    23  O    0.052318  -0.038722  -0.009104   0.001095   0.000168  -0.000015
    24  H    0.676180  -0.298407  -0.010761   0.000053  -0.004446  -0.001138
    25  H    0.537892  -0.089965  -0.061337  -0.035729  -0.000153  -0.000441
    26  H   -0.059675  -0.019809   0.349982  -0.010856  -0.061295   0.002247
    27  H   -0.000659  -0.012271  -0.076867   0.132402  -0.170411   0.498200
    28  H    0.001051   0.028466   0.050440  -0.059598  -0.092440   0.444403
    29  H    0.000775   0.034965   0.083040  -0.103139  -0.067997   0.471307
    30  H   -0.000446  -0.008010  -0.026321  -0.041115  -0.035582   0.005954
    31  H   -0.000131   0.005671   0.018184   0.013425  -0.134227   0.012206
    32  H   -0.000397  -0.014604  -0.026816   0.004166  -0.036708  -0.021454
    33  H   -0.001113  -0.002470  -0.003557  -0.096560   0.009962  -0.054154
    34  H    0.000092   0.001093   0.005754  -0.092371  -0.006472  -0.022352
    35  H   -0.000767   0.000188   0.008699   0.071533  -0.108973   0.028316
    36  H   -0.000332  -0.003654  -0.000516   0.019154   0.000654   0.000095
    37  H    0.000798   0.015441   0.009618  -0.034019   0.013538  -0.000958
    38  H    0.000868   0.001151   0.002370  -0.011579  -0.002698  -0.000668
    39  H   -0.000333   0.003579   0.001728  -0.004809  -0.000284   0.000011
    40  H    0.004420   0.012552   0.000696  -0.000411   0.000198   0.000001
    41  H    0.001518  -0.007591  -0.001622  -0.002297  -0.000657   0.000005
    42  H    0.000797   0.001360  -0.000026   0.007117   0.000387   0.000028
    43  H    0.000036   0.006768   0.001520  -0.030010  -0.002977  -0.000230
    44  H   -0.000287  -0.004589  -0.000032   0.004425   0.000199  -0.000016
    45  H    0.199201  -0.041607  -0.055756  -0.042296  -0.000655  -0.000148
    46  H    0.000958  -0.002107  -0.000241  -0.000071  -0.000002  -0.000000
    47  H    0.000518  -0.000349   0.000021  -0.000041  -0.000001   0.000000
               7          8          9         10         11         12
     1  C    0.086550   0.009801   1.681401   0.005308  -2.974612  -0.292991
     2  C    0.121229   0.347243   2.694650  -0.066327  -4.363215  -1.023199
     3  C   -0.146226   0.395206   0.419116  -0.037742  -1.345439  -0.188837
     4  C    0.255442  -0.709713  -4.422294  -0.143048   1.121121   0.023456
     5  C   -0.619422   0.399543   0.564229   0.147800  -0.236951  -0.047768
     6  C   -0.223776  -0.343433  -0.573767   0.011925   0.182360  -0.009473
     7  C    6.101270  -0.417215   0.164784  -0.063501  -0.008092   0.036397
     8  C   -0.417215   6.096880  -0.024814  -0.048015  -0.421568  -0.034436
     9  C    0.164784  -0.024814  14.471361   0.606787  -4.805300   0.415415
    10  O   -0.063501  -0.048015   0.606787   8.377360  -0.308363   0.151233
    11  C   -0.008092  -0.421568  -4.805300  -0.308363  18.283295  -1.141311
    12  C    0.036397  -0.034436   0.415415   0.151233  -1.141311  11.630812
    13  C   -0.014279   0.012861   0.642655  -0.094462  -0.509689  -0.376927
    14  C   -0.009081  -0.010930  -0.726920  -0.009784   0.885184  -1.734100
    15  C    0.019980   0.018187  -0.101070  -0.044336  -0.295448  -0.046486
    16  C    0.003208  -0.013386  -0.651994  -0.022219  -0.966510   0.293927
    17  C   -0.032177   0.026356  -2.994615   0.010600   1.718235  -0.910770
    18  C   -0.016697  -0.024183  -2.656125  -0.018527   3.218652  -0.478496
    19  N    0.000154   0.000400   0.069393  -0.000234  -0.089295   0.016552
    20  C    0.026936   0.008915   1.740008   0.013514  -1.822539   0.166347
    21  N   -0.000229  -0.000055  -0.014370  -0.000158   0.046509  -0.056724
    22  S   -0.006996   0.001263  -0.063335  -0.003401  -0.113446   0.064542
    23  O    0.000015  -0.000008  -0.009586  -0.000007   0.015620  -0.013307
    24  H    0.000001  -0.000050  -0.008197   0.000017  -0.020536   0.000352
    25  H    0.000035   0.000199   0.010529   0.000013  -0.001139   0.000846
    26  H    0.006477   0.000383   0.012704  -0.001169   0.033302   0.004238
    27  H    0.014365  -0.020577  -0.015633   0.000147   0.004094   0.000091
    28  H    0.005180  -0.020596  -0.009617   0.000037  -0.005671  -0.000082
    29  H   -0.030939   0.009388  -0.031887   0.000094  -0.014917  -0.000990
    30  H    0.429089  -0.025175   0.033452   0.000448   0.012323   0.000627
    31  H    0.483460  -0.029316   0.004272  -0.011561  -0.006667   0.002760
    32  H    0.420740   0.008504   0.008450   0.000103   0.010044  -0.000123
    33  H    0.016040   0.417220   0.057065  -0.000749   0.003790   0.000576
    34  H   -0.006415   0.440928   0.022417   0.000745   0.001133   0.000156
    35  H   -0.052078   0.488367  -0.057434  -0.010296  -0.009986  -0.002784
    36  H    0.000255  -0.000128   0.029773   0.001601  -0.042992  -0.087837
    37  H   -0.003723   0.002585   0.079364  -0.024785   0.001104  -0.136586
    38  H    0.001073   0.000272   0.033270   0.001104  -0.082458   0.000280
    39  H   -0.000057  -0.000012  -0.007605   0.000075   0.019306  -0.150758
    40  H   -0.000003  -0.000015  -0.023540   0.000035  -0.031502  -0.139323
    41  H    0.000146  -0.000050  -0.022215   0.000118  -0.016226  -0.070001
    42  H   -0.000133   0.000136   0.038962  -0.000718  -0.041576  -0.032045
    43  H    0.000568   0.000151  -0.063898  -0.012184   0.084714  -0.131521
    44  H    0.000015   0.000114   0.036460   0.000725  -0.078328  -0.014916
    45  H    0.000081   0.000053   0.058909   0.000123   0.009559  -0.003129
    46  H   -0.000001   0.000000  -0.000444   0.000000  -0.001746   0.001598
    47  H    0.000000  -0.000000  -0.000179   0.000000  -0.001214   0.002158
              13         14         15         16         17         18
     1  C    0.051990  -0.104844   0.149215   1.065162  -3.148662  -5.151663
     2  C    0.222349   0.069372   0.207336   0.028045  -0.841094  -0.541374
     3  C    0.060555   0.110757  -0.046880  -0.040426  -1.599438   0.902387
     4  C   -0.059417  -0.115985  -0.326167  -0.114350   1.535724   1.678831
     5  C    0.047811  -0.005151  -0.075322  -0.155519   0.259708   0.235855
     6  C    0.005859   0.005001  -0.017523   0.052014  -0.028285   0.014044
     7  C   -0.014279  -0.009081   0.019980   0.003208  -0.032177  -0.016697
     8  C    0.012861  -0.010930   0.018187  -0.013386   0.026356  -0.024183
     9  C    0.642655  -0.726920  -0.101070  -0.651994  -2.994615  -2.656125
    10  O   -0.094462  -0.009784  -0.044336  -0.022219   0.010600  -0.018527
    11  C   -0.509689   0.885184  -0.295448  -0.966510   1.718235   3.218652
    12  C   -0.376927  -1.734100  -0.046486   0.293927  -0.910770  -0.478496
    13  C    6.320834  -0.332040  -0.407679  -0.038735  -0.283384  -0.249790
    14  C   -0.332040   6.937854  -0.184243   0.044963   0.418677   0.281813
    15  C   -0.407679  -0.184243   6.443274   0.086167   0.490264  -0.850185
    16  C   -0.038735   0.044963   0.086167  17.796958  -8.378989  -7.397267
    17  C   -0.283384   0.418677   0.490264  -8.378989  30.258390  -5.014470
    18  C   -0.249790   0.281813  -0.850185  -7.397267  -5.014470  35.985775
    19  N    0.006025  -0.024669   0.026827   0.308732   0.373445  -0.782862
    20  C    0.294107  -0.589790   0.207529   3.952402  -7.774632 -12.891648
    21  N   -0.011681   0.068805  -0.017564   0.208584  -0.199035   0.325936
    22  S   -0.043299   0.038843  -0.005460  -0.142963   1.155656   0.365862
    23  O   -0.001058   0.003923  -0.000861  -0.130651   0.114209  -0.019417
    24  H   -0.000017  -0.000344   0.000071  -0.006828   0.025106  -0.001563
    25  H    0.000130  -0.000569   0.000148   0.014406  -0.045572  -0.075540
    26  H   -0.000108   0.000271  -0.000048   0.032789  -0.001811  -0.001701
    27  H   -0.000024  -0.000003  -0.000005  -0.001441  -0.000190  -0.000011
    28  H    0.000018   0.000004  -0.000011   0.005114   0.000733   0.000031
    29  H   -0.000008   0.000040  -0.000056   0.003031   0.000845   0.000069
    30  H    0.000156   0.000078  -0.000096  -0.000886  -0.000119   0.000005
    31  H   -0.000762  -0.000463   0.000661  -0.002173   0.000058   0.000134
    32  H   -0.000491  -0.000259  -0.000081  -0.000652  -0.000439   0.000161
    33  H   -0.000253   0.000047   0.000274   0.001983   0.000814   0.000017
    34  H   -0.000053  -0.000015   0.000104  -0.001922  -0.000019  -0.000012
    35  H    0.001142  -0.000255   0.000189   0.001915   0.000071   0.000016
    36  H    0.466981  -0.008242  -0.020793  -0.014637   0.004023  -0.001491
    37  H    0.466736   0.019309  -0.041935  -0.003903  -0.010403   0.002343
    38  H    0.429360  -0.030490   0.011308   0.004407  -0.007391  -0.002199
    39  H   -0.010567   0.525433  -0.041233   0.052888  -0.044516   0.039359
    40  H    0.012682   0.425227   0.020541  -0.020258   0.102099  -0.146738
    41  H   -0.011087   0.444932   0.004866  -0.021706   0.011651   0.013773
    42  H    0.028284  -0.040350   0.419130  -0.004437  -0.014951  -0.003633
    43  H   -0.054286   0.042145   0.498436   0.018573   0.004620  -0.010011
    44  H   -0.026510  -0.000600   0.441433  -0.013995  -0.002625  -0.001626
    45  H    0.002181  -0.002562  -0.002755   0.108881   0.133476  -0.623200
    46  H   -0.000339  -0.001422   0.000366  -0.001944   0.114134  -0.013365
    47  H    0.000028  -0.007458  -0.000220  -0.014498  -0.081377   0.023941
              19         20         21         22         23         24
     1  C    0.114747   3.083748  -0.012932  -0.013923   0.052318   0.676180
     2  C    0.006321   0.370380  -0.005440  -0.211406  -0.038722  -0.298407
     3  C   -0.017909  -0.424646   0.015946  -0.096201  -0.009104  -0.010761
     4  C   -0.038272  -0.834738  -0.000743  -0.095825   0.001095   0.000053
     5  C   -0.003986  -0.106948   0.000426   0.009656   0.000168  -0.004446
     6  C   -0.000083  -0.007103   0.000104  -0.004322  -0.000015  -0.001138
     7  C    0.000154   0.026936  -0.000229  -0.006996   0.000015   0.000001
     8  C    0.000400   0.008915  -0.000055   0.001263  -0.000008  -0.000050
     9  C    0.069393   1.740008  -0.014370  -0.063335  -0.009586  -0.008197
    10  O   -0.000234   0.013514  -0.000158  -0.003401  -0.000007   0.000017
    11  C   -0.089295  -1.822539   0.046509  -0.113446   0.015620  -0.020536
    12  C    0.016552   0.166347  -0.056724   0.064542  -0.013307   0.000352
    13  C    0.006025   0.294107  -0.011681  -0.043299  -0.001058  -0.000017
    14  C   -0.024669  -0.589790   0.068805   0.038843   0.003923  -0.000344
    15  C    0.026827   0.207529  -0.017564  -0.005460  -0.000861   0.000071
    16  C    0.308732   3.952402   0.208584  -0.142963  -0.130651  -0.006828
    17  C    0.373445  -7.774632  -0.199035   1.155656   0.114209   0.025106
    18  C   -0.782862 -12.891648   0.325936   0.365862  -0.019417  -0.001563
    19  N    6.946027   0.430770  -0.030499  -0.012108  -0.000218  -0.000046
    20  C    0.430770  23.249589  -0.225622  -2.688991   0.158413  -0.001226
    21  N   -0.030499  -0.225622   6.856966  -0.087590  -0.057050  -0.000008
    22  S   -0.012108  -2.688991  -0.087590  16.969823  -0.009295   0.004102
    23  O   -0.000218   0.158413  -0.057050  -0.009295   8.580357   0.000005
    24  H   -0.000046  -0.001226  -0.000008   0.004102   0.000005   0.521914
    25  H    0.001572   0.060139   0.000323   0.005667   0.000227  -0.032806
    26  H    0.000012  -0.001777   0.000001   0.001328  -0.000001   0.004967
    27  H    0.000000   0.000010  -0.000000  -0.000004  -0.000000  -0.000000
    28  H   -0.000000  -0.000008  -0.000000  -0.000003   0.000000  -0.000007
    29  H   -0.000000  -0.000095   0.000000   0.000024   0.000000  -0.000002
    30  H   -0.000000  -0.000003   0.000000  -0.000003  -0.000000  -0.000000
    31  H    0.000000  -0.000098   0.000000   0.000010   0.000000  -0.000000
    32  H   -0.000000  -0.000078   0.000000   0.000012   0.000000   0.000000
    33  H    0.000000  -0.000036   0.000000   0.000004  -0.000000  -0.000000
    34  H    0.000000   0.000004  -0.000000   0.000000   0.000000  -0.000000
    35  H   -0.000000   0.000024  -0.000000  -0.000002  -0.000000   0.000000
    36  H   -0.000034   0.002361  -0.000054  -0.000843  -0.000001   0.000000
    37  H   -0.000049  -0.002040   0.000014  -0.000025   0.000000  -0.000000
    38  H    0.000016   0.000045   0.000107   0.000922  -0.000016  -0.000000
    39  H   -0.000925  -0.037923   0.003240  -0.003948  -0.000041   0.000000
    40  H    0.005912   0.144363  -0.025259   0.004975   0.000039   0.000000
    41  H   -0.000552   0.016735   0.000230   0.015972  -0.000175   0.000000
    42  H   -0.002768  -0.001741   0.000044  -0.000768  -0.000001  -0.000000
    43  H    0.001255   0.001342  -0.000018  -0.000118  -0.000000  -0.000000
    44  H    0.001476  -0.000621   0.000035   0.000385  -0.000000   0.000000
    45  H    0.009169   0.487912  -0.009939  -0.003357   0.000566  -0.000264
    46  H   -0.000041  -0.106137   0.293223   0.007295   0.039144  -0.000000
    47  H    0.003731   0.104533   0.288039  -0.002040   0.001285   0.000000
              25         26         27         28         29         30
     1  C    0.537892  -0.059675  -0.000659   0.001051   0.000775  -0.000446
     2  C   -0.089965  -0.019809  -0.012271   0.028466   0.034965  -0.008010
     3  C   -0.061337   0.349982  -0.076867   0.050440   0.083040  -0.026321
     4  C   -0.035729  -0.010856   0.132402  -0.059598  -0.103139  -0.041115
     5  C   -0.000153  -0.061295  -0.170411  -0.092440  -0.067997  -0.035582
     6  C   -0.000441   0.002247   0.498200   0.444403   0.471307   0.005954
     7  C    0.000035   0.006477   0.014365   0.005180  -0.030939   0.429089
     8  C    0.000199   0.000383  -0.020577  -0.020596   0.009388  -0.025175
     9  C    0.010529   0.012704  -0.015633  -0.009617  -0.031887   0.033452
    10  O    0.000013  -0.001169   0.000147   0.000037   0.000094   0.000448
    11  C   -0.001139   0.033302   0.004094  -0.005671  -0.014917   0.012323
    12  C    0.000846   0.004238   0.000091  -0.000082  -0.000990   0.000627
    13  C    0.000130  -0.000108  -0.000024   0.000018  -0.000008   0.000156
    14  C   -0.000569   0.000271  -0.000003   0.000004   0.000040   0.000078
    15  C    0.000148  -0.000048  -0.000005  -0.000011  -0.000056  -0.000096
    16  C    0.014406   0.032789  -0.001441   0.005114   0.003031  -0.000886
    17  C   -0.045572  -0.001811  -0.000190   0.000733   0.000845  -0.000119
    18  C   -0.075540  -0.001701  -0.000011   0.000031   0.000069   0.000005
    19  N    0.001572   0.000012   0.000000  -0.000000  -0.000000  -0.000000
    20  C    0.060139  -0.001777   0.000010  -0.000008  -0.000095  -0.000003
    21  N    0.000323   0.000001  -0.000000  -0.000000   0.000000   0.000000
    22  S    0.005667   0.001328  -0.000004  -0.000003   0.000024  -0.000003
    23  O    0.000227  -0.000001  -0.000000   0.000000   0.000000  -0.000000
    24  H   -0.032806   0.004967  -0.000000  -0.000007  -0.000002  -0.000000
    25  H    0.563630   0.000312   0.000000  -0.000000   0.000000   0.000000
    26  H    0.000312   0.580758   0.000082  -0.000143  -0.000660  -0.000007
    27  H    0.000000   0.000082   0.544314  -0.027960  -0.026931   0.003004
    28  H   -0.000000  -0.000143  -0.027960   0.566471  -0.031749   0.000131
    29  H    0.000000  -0.000660  -0.026931  -0.031749   0.548945  -0.000155
    30  H    0.000000  -0.000007   0.003004   0.000131  -0.000155   0.558400
    31  H   -0.000000  -0.000008   0.000153  -0.000159   0.000042  -0.024920
    32  H   -0.000000  -0.000035  -0.000140   0.000017   0.002263  -0.028695
    33  H   -0.000000  -0.000060  -0.000027   0.002657   0.000035   0.000092
    34  H    0.000000  -0.000012   0.002617  -0.000223   0.000136   0.003130
    35  H   -0.000000  -0.000005   0.000089   0.000088  -0.000152   0.000051
    36  H   -0.000000   0.000000  -0.000000  -0.000000   0.000000  -0.000000
    37  H   -0.000000  -0.000000   0.000000  -0.000000  -0.000000   0.000005
    38  H    0.000000   0.000000  -0.000000   0.000000   0.000000  -0.000000
    39  H    0.000000   0.000000  -0.000000  -0.000000  -0.000000  -0.000000
    40  H   -0.000000   0.000000   0.000000  -0.000000  -0.000000  -0.000000
    41  H   -0.000001   0.000000   0.000000  -0.000000   0.000000   0.000000
    42  H    0.000000   0.000000   0.000000  -0.000000  -0.000000  -0.000000
    43  H   -0.000000  -0.000000   0.000000   0.000000   0.000000   0.000000
    44  H   -0.000000   0.000000  -0.000000  -0.000000   0.000000  -0.000000
    45  H    0.015932  -0.000018   0.000000  -0.000000   0.000000  -0.000000
    46  H    0.000002   0.000000  -0.000000  -0.000000   0.000000   0.000000
    47  H    0.000002  -0.000000  -0.000000   0.000000   0.000000  -0.000000
              31         32         33         34         35         36
     1  C   -0.000131  -0.000397  -0.001113   0.000092  -0.000767  -0.000332
     2  C    0.005671  -0.014604  -0.002470   0.001093   0.000188  -0.003654
     3  C    0.018184  -0.026816  -0.003557   0.005754   0.008699  -0.000516
     4  C    0.013425   0.004166  -0.096560  -0.092371   0.071533   0.019154
     5  C   -0.134227  -0.036708   0.009962  -0.006472  -0.108973   0.000654
     6  C    0.012206  -0.021454  -0.054154  -0.022352   0.028316   0.000095
     7  C    0.483460   0.420740   0.016040  -0.006415  -0.052078   0.000255
     8  C   -0.029316   0.008504   0.417220   0.440928   0.488367  -0.000128
     9  C    0.004272   0.008450   0.057065   0.022417  -0.057434   0.029773
    10  O   -0.011561   0.000103  -0.000749   0.000745  -0.010296   0.001601
    11  C   -0.006667   0.010044   0.003790   0.001133  -0.009986  -0.042992
    12  C    0.002760  -0.000123   0.000576   0.000156  -0.002784  -0.087837
    13  C   -0.000762  -0.000491  -0.000253  -0.000053   0.001142   0.466981
    14  C   -0.000463  -0.000259   0.000047  -0.000015  -0.000255  -0.008242
    15  C    0.000661  -0.000081   0.000274   0.000104   0.000189  -0.020793
    16  C   -0.002173  -0.000652   0.001983  -0.001922   0.001915  -0.014637
    17  C    0.000058  -0.000439   0.000814  -0.000019   0.000071   0.004023
    18  C    0.000134   0.000161   0.000017  -0.000012   0.000016  -0.001491
    19  N    0.000000  -0.000000   0.000000   0.000000  -0.000000  -0.000034
    20  C   -0.000098  -0.000078  -0.000036   0.000004   0.000024   0.002361
    21  N    0.000000   0.000000   0.000000  -0.000000  -0.000000  -0.000054
    22  S    0.000010   0.000012   0.000004   0.000000  -0.000002  -0.000843
    23  O    0.000000   0.000000  -0.000000   0.000000  -0.000000  -0.000001
    24  H   -0.000000   0.000000  -0.000000  -0.000000   0.000000   0.000000
    25  H   -0.000000  -0.000000  -0.000000   0.000000  -0.000000  -0.000000
    26  H   -0.000008  -0.000035  -0.000060  -0.000012  -0.000005   0.000000
    27  H    0.000153  -0.000140  -0.000027   0.002617   0.000089  -0.000000
    28  H   -0.000159   0.000017   0.002657  -0.000223   0.000088  -0.000000
    29  H    0.000042   0.002263   0.000035   0.000136  -0.000152   0.000000
    30  H   -0.024920  -0.028695   0.000092   0.003130   0.000051  -0.000000
    31  H    0.519772  -0.028066   0.000030   0.000001   0.002594   0.000005
    32  H   -0.028066   0.559268  -0.000160   0.000097   0.000016   0.000000
    33  H    0.000030  -0.000160   0.562479  -0.029355  -0.026752   0.000000
    34  H    0.000001   0.000097  -0.029355   0.562972  -0.025612  -0.000000
    35  H    0.002594   0.000016  -0.026752  -0.025612   0.506278   0.000000
    36  H    0.000005   0.000000   0.000000  -0.000000   0.000000   0.559393
    37  H    0.000362  -0.000012   0.000000  -0.000000  -0.000007  -0.025581
    38  H   -0.000048  -0.000010   0.000000  -0.000000   0.000000  -0.027890
    39  H   -0.000000   0.000000  -0.000000  -0.000000  -0.000000   0.003624
    40  H   -0.000000   0.000000   0.000000  -0.000000   0.000000   0.000288
    41  H   -0.000000   0.000000  -0.000000  -0.000000   0.000000  -0.000529
    42  H    0.000000   0.000000  -0.000000  -0.000000   0.000000   0.000072
    43  H   -0.000006   0.000000   0.000000   0.000000  -0.000014   0.000102
    44  H    0.000000  -0.000000  -0.000000  -0.000000   0.000000   0.002894
    45  H   -0.000000  -0.000000  -0.000000  -0.000000  -0.000000   0.000000
    46  H   -0.000000  -0.000000   0.000000  -0.000000  -0.000000   0.000000
    47  H   -0.000000  -0.000000  -0.000000   0.000000  -0.000000  -0.000000
              37         38         39         40         41         42
     1  C    0.000798   0.000868  -0.000333   0.004420   0.001518   0.000797
     2  C    0.015441   0.001151   0.003579   0.012552  -0.007591   0.001360
     3  C    0.009618   0.002370   0.001728   0.000696  -0.001622  -0.000026
     4  C   -0.034019  -0.011579  -0.004809  -0.000411  -0.002297   0.007117
     5  C    0.013538  -0.002698  -0.000284   0.000198  -0.000657   0.000387
     6  C   -0.000958  -0.000668   0.000011   0.000001   0.000005   0.000028
     7  C   -0.003723   0.001073  -0.000057  -0.000003   0.000146  -0.000133
     8  C    0.002585   0.000272  -0.000012  -0.000015  -0.000050   0.000136
     9  C    0.079364   0.033270  -0.007605  -0.023540  -0.022215   0.038962
    10  O   -0.024785   0.001104   0.000075   0.000035   0.000118  -0.000718
    11  C    0.001104  -0.082458   0.019306  -0.031502  -0.016226  -0.041576
    12  C   -0.136586   0.000280  -0.150758  -0.139323  -0.070001  -0.032045
    13  C    0.466736   0.429360  -0.010567   0.012682  -0.011087   0.028284
    14  C    0.019309  -0.030490   0.525433   0.425227   0.444932  -0.040350
    15  C   -0.041935   0.011308  -0.041233   0.020541   0.004866   0.419130
    16  C   -0.003903   0.004407   0.052888  -0.020258  -0.021706  -0.004437
    17  C   -0.010403  -0.007391  -0.044516   0.102099   0.011651  -0.014951
    18  C    0.002343  -0.002199   0.039359  -0.146738   0.013773  -0.003633
    19  N   -0.000049   0.000016  -0.000925   0.005912  -0.000552  -0.002768
    20  C   -0.002040   0.000045  -0.037923   0.144363   0.016735  -0.001741
    21  N    0.000014   0.000107   0.003240  -0.025259   0.000230   0.000044
    22  S   -0.000025   0.000922  -0.003948   0.004975   0.015972  -0.000768
    23  O    0.000000  -0.000016  -0.000041   0.000039  -0.000175  -0.000001
    24  H   -0.000000  -0.000000   0.000000   0.000000   0.000000  -0.000000
    25  H   -0.000000   0.000000   0.000000  -0.000000  -0.000001   0.000000
    26  H   -0.000000   0.000000   0.000000   0.000000   0.000000   0.000000
    27  H    0.000000  -0.000000  -0.000000   0.000000   0.000000   0.000000
    28  H   -0.000000   0.000000  -0.000000  -0.000000  -0.000000  -0.000000
    29  H   -0.000000   0.000000  -0.000000  -0.000000   0.000000  -0.000000
    30  H    0.000005  -0.000000  -0.000000  -0.000000   0.000000  -0.000000
    31  H    0.000362  -0.000048  -0.000000  -0.000000  -0.000000   0.000000
    32  H   -0.000012  -0.000010   0.000000   0.000000   0.000000   0.000000
    33  H    0.000000   0.000000  -0.000000   0.000000  -0.000000  -0.000000
    34  H   -0.000000  -0.000000  -0.000000  -0.000000  -0.000000  -0.000000
    35  H   -0.000007   0.000000  -0.000000   0.000000   0.000000   0.000000
    36  H   -0.025581  -0.027890   0.003624   0.000288  -0.000529   0.000072
    37  H    0.519345  -0.029043   0.000319  -0.000187   0.000045   0.000061
    38  H   -0.029043   0.556206  -0.000041  -0.000016   0.002070  -0.000154
    39  H    0.000319  -0.000041   0.552742  -0.027074  -0.025529   0.000117
    40  H   -0.000187  -0.000016  -0.027074   0.573317  -0.034429   0.001986
    41  H    0.000045   0.002070  -0.025529  -0.034429   0.537020   0.000006
    42  H    0.000061  -0.000154   0.000117   0.001986   0.000006   0.537931
    43  H    0.002711   0.000025   0.000132   0.000104  -0.000154  -0.025390
    44  H    0.000027   0.000124   0.003167  -0.000253   0.000154  -0.027590
    45  H   -0.000000   0.000001  -0.000001   0.000368  -0.000009   0.000002
    46  H    0.000000  -0.000000   0.000006  -0.000028  -0.000072   0.000000
    47  H   -0.000000  -0.000000  -0.000008   0.000102   0.000006  -0.000001
              43         44         45         46         47
     1  C    0.000036  -0.000287   0.199201   0.000958   0.000518
     2  C    0.006768  -0.004589  -0.041607  -0.002107  -0.000349
     3  C    0.001520  -0.000032  -0.055756  -0.000241   0.000021
     4  C   -0.030010   0.004425  -0.042296  -0.000071  -0.000041
     5  C   -0.002977   0.000199  -0.000655  -0.000002  -0.000001
     6  C   -0.000230  -0.000016  -0.000148  -0.000000   0.000000
     7  C    0.000568   0.000015   0.000081  -0.000001   0.000000
     8  C    0.000151   0.000114   0.000053   0.000000  -0.000000
     9  C   -0.063898   0.036460   0.058909  -0.000444  -0.000179
    10  O   -0.012184   0.000725   0.000123   0.000000   0.000000
    11  C    0.084714  -0.078328   0.009559  -0.001746  -0.001214
    12  C   -0.131521  -0.014916  -0.003129   0.001598   0.002158
    13  C   -0.054286  -0.026510   0.002181  -0.000339   0.000028
    14  C    0.042145  -0.000600  -0.002562  -0.001422  -0.007458
    15  C    0.498436   0.441433  -0.002755   0.000366  -0.000220
    16  C    0.018573  -0.013995   0.108881  -0.001944  -0.014498
    17  C    0.004620  -0.002625   0.133476   0.114134  -0.081377
    18  C   -0.010011  -0.001626  -0.623200  -0.013365   0.023941
    19  N    0.001255   0.001476   0.009169  -0.000041   0.003731
    20  C    0.001342  -0.000621   0.487912  -0.106137   0.104533
    21  N   -0.000018   0.000035  -0.009939   0.293223   0.288039
    22  S   -0.000118   0.000385  -0.003357   0.007295  -0.002040
    23  O   -0.000000  -0.000000   0.000566   0.039144   0.001285
    24  H   -0.000000   0.000000  -0.000264  -0.000000   0.000000
    25  H   -0.000000  -0.000000   0.015932   0.000002   0.000002
    26  H   -0.000000   0.000000  -0.000018   0.000000  -0.000000
    27  H    0.000000  -0.000000   0.000000  -0.000000  -0.000000
    28  H    0.000000  -0.000000  -0.000000  -0.000000   0.000000
    29  H    0.000000   0.000000   0.000000   0.000000   0.000000
    30  H    0.000000  -0.000000  -0.000000   0.000000  -0.000000
    31  H   -0.000006   0.000000  -0.000000  -0.000000  -0.000000
    32  H    0.000000  -0.000000  -0.000000  -0.000000  -0.000000
    33  H    0.000000  -0.000000  -0.000000   0.000000  -0.000000
    34  H    0.000000  -0.000000  -0.000000  -0.000000   0.000000
    35  H   -0.000014   0.000000  -0.000000  -0.000000  -0.000000
    36  H    0.000102   0.002894   0.000000   0.000000  -0.000000
    37  H    0.002711   0.000027  -0.000000   0.000000  -0.000000
    38  H    0.000025   0.000124   0.000001  -0.000000  -0.000000
    39  H    0.000132   0.003167  -0.000001   0.000006  -0.000008
    40  H    0.000104  -0.000253   0.000368  -0.000028   0.000102
    41  H   -0.000154   0.000154  -0.000009  -0.000072   0.000006
    42  H   -0.025390  -0.027590   0.000002   0.000000  -0.000001
    43  H    0.509206  -0.025720   0.000001   0.000000   0.000000
    44  H   -0.025720   0.563573  -0.000000   0.000000  -0.000000
    45  H    0.000001  -0.000000   0.577367  -0.000159   0.000689
    46  H    0.000000   0.000000  -0.000159   0.327779  -0.017215
    47  H    0.000000  -0.000000   0.000689  -0.017215   0.374264
 Mulliken charges:
               1
     1  C   -0.509777
     2  C    0.123849
     3  C   -0.315923
     4  C    0.679652
     5  C    0.289662
     6  C   -0.451582
     7  C   -0.542452
     8  C   -0.541280
     9  C   -0.610588
    10  O   -0.408328
    11  C    0.106388
    12  C    0.312557
    13  C   -0.545799
    14  C   -0.382110
    15  C   -0.519849
    16  C    0.078140
    17  C    0.656069
    18  C   -0.115207
    19  N   -0.317984
    20  C   -1.001682
    21  N   -0.353565
    22  S    0.963332
    23  O   -0.677854
    24  H    0.153878
    25  H    0.131251
    26  H    0.129344
    27  H    0.153586
    28  H    0.143424
    29  H    0.154677
    30  H    0.144588
    31  H    0.174805
    32  H    0.145379
    33  H    0.142163
    34  H    0.143455
    35  H    0.185542
    36  H    0.144280
    37  H    0.179534
    38  H    0.149718
    39  H    0.149938
    40  H    0.139131
    41  H    0.165653
    42  H    0.159861
    43  H    0.184125
    44  H    0.142503
    45  H    0.181382
    46  H    0.360829
    47  H    0.325286
 Sum of Mulliken charges =  -0.00000
 Mulliken charges with hydrogens summed into heavy atoms:
               1
     1  C   -0.224648
     2  C    0.123849
     3  C   -0.186579
     4  C    0.679652
     5  C    0.289662
     6  C    0.000105
     7  C   -0.077680
     8  C   -0.070121
     9  C   -0.610588
    10  O   -0.408328
    11  C    0.106388
    12  C    0.312557
    13  C   -0.072267
    14  C    0.072612
    15  C   -0.033360
    16  C    0.078140
    17  C    0.837452
    18  C   -0.115207
    19  N   -0.317984
    20  C   -1.001682
    21  N    0.332550
    22  S    0.963332
    23  O   -0.677854
 Electronic spatial extent (au):  <R**2>=           8035.4670
 Charge=              0.0000 electrons
 Dipole moment (field-independent basis, Debye):
    X=             -1.5698    Y=             -1.8863    Z=             -1.7820  Tot=              3.0328
 Quadrupole moment (field-independent basis, Debye-Ang):
   XX=           -152.1315   YY=           -154.5828   ZZ=           -158.9389
   XY=             13.3066   XZ=            -10.0796   YZ=             17.2207
 Traceless Quadrupole moment (field-independent basis, Debye-Ang):
   XX=              3.0862   YY=              0.6350   ZZ=             -3.7212
   XY=             13.3066   XZ=            -10.0796   YZ=             17.2207
 Octapole moment (field-independent basis, Debye-Ang**2):
  XXX=             -1.1561  YYY=            -17.4603  ZZZ=             16.1343  XYY=            -29.3735
  XXY=             19.5737  XXZ=            -33.7060  XZZ=            -36.1172  YZZ=             -8.5912
  YYZ=             -2.3107  XYZ=             46.0965
 Hexadecapole moment (field-independent basis, Debye-Ang**3):
 XXXX=          -6637.6006 YYYY=          -2743.0804 ZZZZ=          -1500.0915 XXXY=            198.9804
 XXXZ=           -189.3742 YYYX=             14.8705 YYYZ=            101.9295 ZZZX=             26.2190
 ZZZY=             63.8331 XXYY=          -1804.2983 XXZZ=          -1562.5302 YYZZ=           -737.9405
 XXYZ=            168.2913 YYXZ=             -5.6282 ZZXY=            -15.2710
 N-N= 2.187353522319D+03 E-N=-7.547363257576D+03  KE= 1.347853048608D+03
 Unable to Open any file for archive entry.
 1\1\GINC-N1\SP\RB3LYP TD-FC\6-31+G(d,p)\C18H24N2O2S1\HPCMGAC13\29-Jul-
 2025\0\\# td=(50-50,nstates=3) b3lyp/6-31+g(d,p) geom=connectivity\\Ti
 tle Card Required\\0,1\C,0,0.339209,-2.585322,-1.532958\C,0,-0.237198,
 -1.483893,-0.987875\C,0,-1.644444,-1.606252,-0.627009\C,0,-2.396145,-0
 .573792,-0.193885\C,0,-3.891766,-0.686465,0.138443\C,0,-4.336189,-2.16
 2046,0.20653\C,0,-4.178066,-0.038847,1.515789\C,0,-4.73271,0.020659,-0
 .955871\C,0,-1.715832,0.743811,-0.134874\O,0,-2.367285,1.787612,-0.165
 4\C,0,-0.197983,0.8175,-0.0786\C,0,0.354172,2.106958,0.596249\C,0,-0.4
 55323,2.368123,1.902989\C,0,1.823001,2.001426,1.066571\C,0,0.219273,3.
 335439,-0.341347\C,0,0.477158,-0.22154,-0.666228\C,0,1.960431,-0.23222
 7,-1.100471\C,0,2.406176,0.971152,-1.819783\N,0,2.834045,1.838885,-2.4
 62723\C,0,2.988123,-0.693112,-0.072392\N,0,4.272389,-0.339808,-0.18705
 2\S,0,2.61942,-1.783062,1.1682\O,0,3.976429,-2.034231,1.864617\H,0,-0.
 253761,-3.482178,-1.678838\H,0,1.377628,-2.670705,-1.828018\H,0,-2.077
 161,-2.59178,-0.757897\H,0,-5.389736,-2.206329,0.50011\H,0,-4.250387,-
 2.666448,-0.762175\H,0,-3.760978,-2.73001,0.946445\H,0,-5.24048,-0.149
 542,1.75911\H,0,-3.939813,1.026061,1.517014\H,0,-3.601004,-0.528823,2.
 308519\H,0,-4.554271,-0.433485,-1.937139\H,0,-5.798823,-0.086781,-0.72
 4087\H,0,-4.49391,1.08304,-1.015842\H,0,0.011586,3.198777,2.441393\H,0
 ,-1.492255,2.634077,1.708365\H,0,-0.430677,1.493288,2.563516\H,0,2.055
 037,2.898308,1.649211\H,0,2.547655,1.982408,0.254304\H,0,1.984774,1.13
 9036,1.717761\H,0,0.813374,3.214095,-1.250705\H,0,-0.820977,3.505892,-
 0.618085\H,0,0.591143,4.223911,0.182519\H,0,2.017974,-0.980744,-1.9002
 9\H,0,4.89638,-0.728973,0.522478\H,0,4.58846,0.375876,-0.825849\\Versi
 on=ES64L-G16RevC.02\State=1-A\HF=-1358.4660864\RMSD=4.840e-09\PG=C01 [
 X(C18H24N2O2S1)]\\@
 The archive entry for this job was punched.


 TELEVISION IS CALLED A MEDIUM BECAUSE IT ISN'T
 RARE, AND IT ISN'T WELL DONE.
 Job cpu time:       0 days  3 hours 13 minutes 41.4 seconds.
 Elapsed time:       0 days  0 hours 12 minutes 23.8 seconds.
 File lengths (MBytes):  RWF=   1644 Int=      0 D2E=      0 Chk=     81 Scr=      2
 Normal termination of Gaussian 16 at Tue Jul 29 15:42:38 2025.
