 Entering Gaussian System, Link 0=g16
 Input=M2825E.gjf
 Output=M2825E.log
 Initial command:
 /hpc/softwares/Gaussian/g16/l1.exe "/hpc/home/hpcmgac13/pbs.12364.admin1.x8z/Gau-961969.inp" -scrdir="/hpc/home/hpcmgac13/pbs.12364.admin1.x8z/"
 Default linda workers: n2
 Default is to use   8 SMP processors on each worker.
 Entering Link 1 = /hpc/softwares/Gaussian/g16/l1.exe PID=    961970.
  
 Copyright (c) 1988-2021, Gaussian, Inc.  All Rights Reserved.
  
 This is part of the Gaussian(R) 16 program.  It is based on
 the Gaussian(R) 09 system (copyright 2009, Gaussian, Inc.),
 the Gaussian(R) 03 system (copyright 2003, Gaussian, Inc.),
 the Gaussian(R) 98 system (copyright 1998, Gaussian, Inc.),
 the Gaussian(R) 94 system (copyright 1995, Gaussian, Inc.),
 the Gaussian 92(TM) system (copyright 1992, Gaussian, Inc.),
 the Gaussian 90(TM) system (copyright 1990, Gaussian, Inc.),
 the Gaussian 88(TM) system (copyright 1988, Gaussian, Inc.),
 the Gaussian 86(TM) system (copyright 1986, Carnegie Mellon
 University), and the Gaussian 82(TM) system (copyright 1983,
 Carnegie Mellon University). Gaussian is a federally registered
 trademark of Gaussian, Inc.
  
 This software contains proprietary and confidential information,
 including trade secrets, belonging to Gaussian, Inc.
  
 This software is provided under written license and may be
 used, copied, transmitted, or stored only in accord with that
 written license.
  
 The following legend is applicable only to US Government
 contracts under FAR:
  
                    RESTRICTED RIGHTS LEGEND
  
 Use, reproduction and disclosure by the US Government is
 subject to restrictions as set forth in subparagraphs (a)
 and (c) of the Commercial Computer Software - Restricted
 Rights clause in FAR 52.227-19.
  
 Gaussian, Inc.
 340 Quinnipiac St., Bldg. 40, Wallingford CT 06492
  
  
 ---------------------------------------------------------------
 Warning -- This program may not be used in any manner that
 competes with the business of Gaussian, Inc. or will provide
 assistance to any competitor of Gaussian, Inc.  The licensee
 of this program is prohibited from giving any competitor of
 Gaussian, Inc. access to this program.  By using this program,
 the user acknowledges that Gaussian, Inc. is engaged in the
 business of creating and licensing software in the field of
 computational chemistry and represents and warrants to the
 licensee that it is not a competitor of Gaussian, Inc. and that
 it will not use this program in any manner prohibited above.
 ---------------------------------------------------------------
  

 Cite this work as:
 Gaussian 16, Revision C.02,
 M. J. Frisch, G. W. Trucks, H. B. Schlegel, G. E. Scuseria, 
 M. A. Robb, J. R. Cheeseman, G. Scalmani, V. Barone, 
 G. A. Petersson, H. Nakatsuji, X. Li, M. Caricato, A. V. Marenich, 
 J. Bloino, B. G. Janesko, R. Gomperts, B. Mennucci, H. P. Hratchian, 
 J. V. Ortiz, A. F. Izmaylov, J. L. Sonnenberg, D. Williams-Young, 
 F. Ding, F. Lipparini, F. Egidi, J. Goings, B. Peng, A. Petrone, 
 T. Henderson, D. Ranasinghe, V. G. Zakrzewski, J. Gao, N. Rega, 
 G. Zheng, W. Liang, M. Hada, M. Ehara, K. Toyota, R. Fukuda, 
 J. Hasegawa, M. Ishida, T. Nakajima, Y. Honda, O. Kitao, H. Nakai, 
 T. Vreven, K. Throssell, J. A. Montgomery, Jr., J. E. Peralta, 
 F. Ogliaro, M. J. Bearpark, J. J. Heyd, E. N. Brothers, K. N. Kudin, 
 V. N. Staroverov, T. A. Keith, R. Kobayashi, J. Normand, 
 K. Raghavachari, A. P. Rendell, J. C. Burant, S. S. Iyengar, 
 J. Tomasi, M. Cossi, J. M. Millam, M. Klene, C. Adamo, R. Cammi, 
 J. W. Ochterski, R. L. Martin, K. Morokuma, O. Farkas, 
 J. B. Foresman, and D. J. Fox, Gaussian, Inc., Wallingford CT, 2019.
 
 ******************************************
 Gaussian 16:  ES64L-G16RevC.02  7-Dec-2021
                29-Jul-2025 
 ******************************************
 SetLPE:    new flags="-opt 'Tsnet.Node.lindarsharg: ssh'  -nodelist 'n2.head.cm.mguif.local' -env GAUSS_MDEF=2147483648 -env GAUSS_EXEDIR="/hpc/softwares/Gaussian/g16/bsd:/hpc/softwares/Gaussian/g16""
 Will use up to    1 processors via Linda.
 ----------------------------------------------------------
 # td=(50-50,nstates=3) b3lyp/6-31+g(d,p) geom=connectivity
 ----------------------------------------------------------
 1/38=1,57=2,172=1/1;
 2/12=2,17=6,18=5,40=1/2;
 3/5=1,6=6,7=111,11=9,25=1,30=1,74=-5/1,2,3,8;
 4//1;
 5/5=2,38=5/2;
 8/6=1,10=2,108=3/1;
 9/41=3,42=1,48=2,70=2/14;
 6/7=2,8=2,9=2,10=2/1;
 99/5=1,9=1/99;
 -------------------
 Title Card Required
 -------------------
 Symbolic Z-matrix:
 Charge =  0 Multiplicity = 1
 C                    -4.64466  -0.29133  -0.89663 
 C                    -3.62815  -0.8937   -0.25104 
 C                    -3.64047  -2.32512  -0.07628 
 N                    -3.64576  -3.48092   0.05172 
 C                    -2.46585  -0.17827   0.30813 
 C                    -1.64692   0.76402  -0.19692 
 C                    -1.77536   1.46966  -1.52821 
 C                    -2.29174   2.91319  -1.3301 
 C                    -0.48709   1.47646  -2.37332 
 C                    -0.63609   1.09743   0.88926 
 C                     0.83674   0.81502   0.60601 
 C                     1.82069   1.76713   1.06888 
 C                     3.16867   1.59209   0.90693 
 C                     3.60039   0.40115   0.24788 
 N                     4.82868  -0.00407  -0.04224 
 O                     4.68224  -1.21006  -0.67834 
 N                     3.28091  -1.54737  -0.77743 
 O                     2.95002  -2.59312  -1.32565 
 C                     2.62001  -0.53393  -0.19415 
 C                     1.2293   -0.34571  -0.01707 
 C                    -1.10967   0.21944   2.06371 
 O                    -0.68952   0.16371   3.18517 
 O                    -2.15148  -0.56439   1.61971 
 H                    -4.68043   0.78665  -1.00172 
 H                    -5.4599   -0.87015  -1.31623 
 H                    -2.5336    0.92353  -2.10132 
 H                    -2.46305   3.39046  -2.30066 
 H                    -3.23111   2.93595  -0.76785 
 H                    -1.56176   3.52527  -0.78797 
 H                    -0.69047   1.94584  -3.34141 
 H                    -0.11908   0.46401  -2.56107 
 H                     0.3146    2.04457  -1.89142 
 H                    -0.73312   2.14297   1.20745 
 H                     1.46366   2.65907   1.5753 
 H                     3.89231   2.317     1.26181 
 H                     0.5261   -1.09303  -0.36887 
 
                          Input orientation:                          
 ---------------------------------------------------------------------
 Center     Atomic      Atomic             Coordinates (Angstroms)
 Number     Number       Type             X           Y           Z
 ---------------------------------------------------------------------
      1          6           0       -4.644655   -0.291327   -0.896626
      2          6           0       -3.628146   -0.893699   -0.251035
      3          6           0       -3.640469   -2.325121   -0.076283
      4          7           0       -3.645760   -3.480916    0.051723
      5          6           0       -2.465853   -0.178271    0.308128
      6          6           0       -1.646918    0.764015   -0.196916
      7          6           0       -1.775356    1.469658   -1.528207
      8          6           0       -2.291736    2.913194   -1.330098
      9          6           0       -0.487085    1.476463   -2.373318
     10          6           0       -0.636085    1.097431    0.889264
     11          6           0        0.836739    0.815022    0.606012
     12          6           0        1.820694    1.767132    1.068876
     13          6           0        3.168675    1.592092    0.906929
     14          6           0        3.600387    0.401149    0.247876
     15          7           0        4.828683   -0.004072   -0.042244
     16          8           0        4.682238   -1.210061   -0.678338
     17          7           0        3.280913   -1.547367   -0.777431
     18          8           0        2.950020   -2.593122   -1.325653
     19          6           0        2.620013   -0.533929   -0.194150
     20          6           0        1.229297   -0.345711   -0.017066
     21          6           0       -1.109668    0.219435    2.063710
     22          8           0       -0.689524    0.163714    3.185168
     23          8           0       -2.151484   -0.564389    1.619706
     24          1           0       -4.680426    0.786648   -1.001717
     25          1           0       -5.459895   -0.870146   -1.316233
     26          1           0       -2.533597    0.923532   -2.101322
     27          1           0       -2.463046    3.390462   -2.300660
     28          1           0       -3.231113    2.935948   -0.767854
     29          1           0       -1.561762    3.525266   -0.787971
     30          1           0       -0.690473    1.945844   -3.341411
     31          1           0       -0.119083    0.464009   -2.561072
     32          1           0        0.314601    2.044567   -1.891419
     33          1           0       -0.733123    2.142969    1.207447
     34          1           0        1.463658    2.659071    1.575304
     35          1           0        3.892305    2.316995    1.261811
     36          1           0        0.526095   -1.093028   -0.368873
 ---------------------------------------------------------------------
                    Distance matrix (angstroms):
                    1          2          3          4          5
     1  C    0.000000
     2  C    1.346451   0.000000
     3  C    2.411985   1.442102   0.000000
     4  N    3.474282   2.604931   1.162874   0.000000
     5  C    2.492266   1.474932   2.477188   3.516445   0.000000
     6  C    3.254192   2.583836   3.678527   4.698577   1.346710
     7  C    3.425323   3.263350   4.470691   5.522932   2.562144
     8  C    3.999135   4.176458   5.552574   6.680378   3.503035
     9  C    4.753008   4.470796   5.447223   6.358747   3.720728
    10  C    4.602900   3.770585   4.655370   5.542642   2.305035
    11  C    5.790303   4.856898   5.511027   6.233387   3.461572
    12  C    7.064077   6.205807   6.919698   7.645831   4.768419
    13  C    8.237002   7.329175   7.916799   8.538344   5.936384
    14  C    8.352851   7.360519   7.743876   8.222868   6.094147
    15  N    9.516124   8.506056   8.781513   9.160429   7.305023
    16  O    9.374575   8.327374   8.418627   8.662870   7.289233
    17  N    8.025364   6.959847   7.000146   7.239123   6.006512
    18  O    7.947415   6.878598   6.713218   6.796297   6.150807
    19  C    7.302584   6.258767   6.512749   6.928571   5.122969
    20  C    5.939688   4.893852   5.257014   5.796587   3.713209
    21  C    4.639030   3.597199   4.178431   4.916549   2.253769
    22  O    5.701856   4.643395   5.053656   5.642795   3.398479
    23  O    3.552800   2.405961   2.862452   3.632845   1.402908
    24  H    1.083676   2.119996   3.408965   4.515791   2.747926
    25  H    1.084305   2.119081   2.639079   3.460998   3.475849
    26  H    2.717304   2.814947   3.984933   5.027094   2.650285
    27  H    4.504031   4.890036   6.245163   7.358557   4.420592
    28  H    3.525619   3.884705   5.322094   6.482267   3.382561
    29  H    4.907384   4.907698   6.249364   7.357630   3.966737
    30  H    5.159211   5.122826   6.132265   7.049596   4.580718
    31  H    4.880749   4.415106   5.133574   5.901405   3.761936
    32  H    5.571376   5.183582   6.166966   7.070447   4.184488
    33  H    5.064879   4.441810   5.483106   6.437953   3.033032
    34  H    7.219887   6.471797   7.322706   8.131844   5.009721
    35  H    9.183784   8.315915   8.948878   9.586580   6.896524
    36  H    5.259078   4.160689   4.354758   4.825276   3.201072
                    6          7          8          9         10
     6  C    0.000000
     7  C    1.512205   0.000000
     8  C    2.513735   1.545863   0.000000
     9  C    2.567006   1.540747   2.531653   0.000000
    10  C    1.520768   2.698269   3.311154   3.287903   0.000000
    11  C    2.610718   3.436056   4.235352   3.326623   1.526171
    12  C    3.825285   4.445774   4.897001   4.154399   2.552748
    13  C    5.009403   5.512560   6.046957   4.913041   3.836822
    14  C    5.278610   5.761492   6.596778   4.973368   4.340954
    15  N    6.522828   6.927719   7.801883   5.990265   5.651965
    16  O    6.647327   7.042989   8.127874   6.067311   6.005535
    17  N    5.473847   5.935652   7.159362   5.088046   5.011557
    18  O    5.803125   6.235093   7.602338   5.428887   5.602338
    19  C    4.459974   5.011321   6.107234   4.294707   3.799644
    20  C    3.088114   3.821917   4.974152   3.437762   2.526607
    21  C    2.386553   3.861096   4.491275   4.653488   1.540935
    22  O    3.565874   5.010032   5.523980   5.714985   2.479084
    23  O    2.306374   3.766719   4.562302   4.783256   2.364662
    24  H    3.138533   3.030367   3.214945   4.465562   4.475387
    25  H    4.296760   4.369833   4.934682   5.599361   5.657271
    26  H    2.106753   1.096195   2.147566   2.137271   3.546040
    27  H    3.462662   2.181534   1.095044   2.751925   4.332597
    28  H    2.748261   2.201675   1.095018   3.498185   3.586134
    29  H    2.825085   2.195244   1.096082   2.804612   3.092633
    30  H    3.492758   2.165972   2.746851   1.094938   4.315249
    31  H    2.830816   2.195764   3.497746   1.093499   3.545890
    32  H    2.891143   2.197809   2.804030   1.094381   3.087567
    33  H    2.169970   3.003897   3.075980   3.650567   1.097181
    34  H    4.050640   4.640872   4.754884   4.560217   2.705234
    35  H    5.934865   6.373740   6.731702   5.753235   4.704513
    36  H    2.863593   3.634294   4.991387   3.412714   2.780590
                   11         12         13         14         15
    11  C    0.000000
    12  C    1.445311   0.000000
    13  C    2.476351   1.368911   0.000000
    14  C    2.817322   2.388987   1.427961   0.000000
    15  N    4.126350   3.663298   2.490842   1.325551   0.000000
    16  O    4.531929   4.483845   3.557528   2.150412   1.371303
    17  N    3.669984   4.065340   3.564529   2.224867   2.306047
    18  O    4.451149   5.101075   4.748500   3.444507   3.446693
    19  C    2.374867   2.743907   2.456292   1.425093   2.276411
    20  C    1.374638   2.448086   2.893101   2.500012   3.615651
    21  C    2.503619   3.460070   4.639671   5.051227   6.304682
    22  O    3.066876   3.653880   4.702801   5.204555   6.394916
    23  O    3.443810   4.638707   5.784683   5.991511   7.197136
    24  H    5.746713   6.892987   8.117885   8.383433   9.590046
    25  H    6.795765   8.102528   9.244311   9.281774  10.403267
    26  H    4.324419   5.451758   6.481701   6.589186   7.700871
    27  H    5.096098   5.686774   6.725998   7.224697   8.354197
    28  H    4.788868   5.500951   6.750417   7.357058   8.609909
    29  H    3.878327   4.240274   5.383947   6.122162   7.338264
    30  H    4.381014   5.078241   5.750353   5.803494   6.719208
    31  H    3.326744   4.317104   4.910087   4.661394   5.571713
    32  H    2.832238   3.332962   4.022589   4.251329   5.290870
    33  H    2.142343   2.585041   3.951937   4.768021   6.091404
    34  H    2.175562   1.086048   2.119493   3.380220   4.586086
    35  H    3.467345   2.152010   1.084005   2.187178   2.822183
    36  H    2.165076   3.453060   3.977533   3.473358   4.450256
                   16         17         18         19         20
    16  O    0.000000
    17  N    1.444751   0.000000
    18  O    2.309211   1.226230   0.000000
    19  C    2.223593   1.343154   2.372652   0.000000
    20  C    3.620384   2.496249   3.118356   1.414523   0.000000
    21  C    6.565703   5.520043   5.989935   4.424478   3.181160
    22  O    6.757941   5.864670   6.418250   4.781164   3.767717
    23  O    7.238622   6.018592   6.230268   5.104722   3.762515
    24  H    9.578669   8.299449   8.351736   7.462741   6.097262
    25  H   10.167857   8.783545   8.584603   8.164375   6.834337
    26  H    7.658027   6.454964   6.560379   5.685173   4.484916
    27  H    8.651695   7.726283   8.127435   6.758381   5.727756
    28  H    8.934122   7.906117   8.311929   6.826775   5.588222
    29  H    7.837275   7.013075   7.621020   5.858065   4.834125
    30  H    6.776261   5.877791   6.157815   5.197484   4.470795
    31  H    5.422166   4.334395   4.504631   3.755109   2.990943
    32  H    5.580360   4.789777   5.364111   3.852829   3.172270
    33  H    6.642675   5.802655   6.512503   4.513732   3.397654
    34  H    5.514376   5.150912   6.181452   3.829278   3.408707
    35  H    4.102231   4.411984   5.629575   3.444752   3.977077
    36  H    4.169291   2.821766   3.006846   2.174307   1.084778
                   21         22         23         24         25
    21  C    0.000000
    22  O    1.198872   0.000000
    23  O    1.377280   2.262329   0.000000
    24  H    4.740136   5.817676   3.884933   0.000000
    25  H    5.615663   6.639873   4.433825   1.857810   0.000000
    26  H    4.457670   5.650213   4.025664   2.415935   3.520918
    27  H    5.561903   6.606935   5.577382   3.658398   5.301224
    28  H    4.460687   5.456312   4.372459   2.602824   4.444608
    29  H    4.389190   5.276994   4.782255   4.155933   5.898656
    30  H    5.689600   6.765517   5.748783   4.768399   5.897333
    31  H    4.735999   5.782288   4.761004   4.831308   5.643923
    32  H    4.582870   5.506143   5.021576   5.227258   6.493935
    33  H    2.138915   2.798344   3.084071   4.722416   6.147373
    34  H    3.579437   3.668060   4.843750   6.920749   8.291679
    35  H    5.482931   5.415633   6.705061   8.997624  10.211162
    36  H    3.211813   3.960851   3.376882   5.571493   6.064589
                   26         27         28         29         30
    26  H    0.000000
    27  H    2.475976   0.000000
    28  H    2.512864   1.773698   0.000000
    29  H    3.072194   1.765988   1.770433   0.000000
    30  H    2.445414   2.512389   3.749447   3.126304   0.000000
    31  H    2.500482   3.758471   4.360143   3.820537   1.769534
    32  H    3.068063   3.113557   3.824794   2.632642   1.767030
    33  H    3.959379   4.105568   3.281857   2.564972   4.553327
    34  H    5.701554   5.565702   5.254324   3.935547   5.415077
    35  H    7.385433   7.364375   7.432747   5.950493   6.506094
    36  H    4.053345   5.724373   5.523445   5.085610   4.421624
                   31         32         33         34         35
    31  H    0.000000
    32  H    1.770503   0.000000
    33  H    4.171053   3.272672   0.000000
    34  H    4.942972   3.703527   2.286379   0.000000
    35  H    5.842878   4.776719   4.629020   2.472574   0.000000
    36  H    2.765204   3.493906   3.813409   4.328637   5.061497
                   36
    36  H    0.000000
 Stoichiometry    C16H13N3O4
 Framework group  C1[X(C16H13N3O4)]
 Deg. of freedom   102
 Full point group                 C1      NOp   1
 Largest Abelian subgroup         C1      NOp   1
 Largest concise Abelian subgroup C1      NOp   1
                         Standard orientation:                         
 ---------------------------------------------------------------------
 Center     Atomic      Atomic             Coordinates (Angstroms)
 Number     Number       Type             X           Y           Z
 ---------------------------------------------------------------------
      1          6           0        4.644655    0.291327   -0.896626
      2          6           0        3.628146    0.893699   -0.251035
      3          6           0        3.640469    2.325121   -0.076283
      4          7           0        3.645760    3.480916    0.051723
      5          6           0        2.465853    0.178271    0.308128
      6          6           0        1.646918   -0.764015   -0.196916
      7          6           0        1.775356   -1.469658   -1.528207
      8          6           0        2.291736   -2.913194   -1.330098
      9          6           0        0.487085   -1.476463   -2.373318
     10          6           0        0.636085   -1.097431    0.889264
     11          6           0       -0.836739   -0.815022    0.606012
     12          6           0       -1.820694   -1.767132    1.068876
     13          6           0       -3.168675   -1.592092    0.906929
     14          6           0       -3.600387   -0.401149    0.247876
     15          7           0       -4.828683    0.004072   -0.042244
     16          8           0       -4.682238    1.210061   -0.678338
     17          7           0       -3.280913    1.547367   -0.777431
     18          8           0       -2.950020    2.593122   -1.325653
     19          6           0       -2.620013    0.533929   -0.194150
     20          6           0       -1.229297    0.345711   -0.017066
     21          6           0        1.109668   -0.219435    2.063710
     22          8           0        0.689524   -0.163714    3.185168
     23          8           0        2.151484    0.564389    1.619706
     24          1           0        4.680426   -0.786648   -1.001717
     25          1           0        5.459895    0.870146   -1.316233
     26          1           0        2.533597   -0.923532   -2.101322
     27          1           0        2.463046   -3.390462   -2.300660
     28          1           0        3.231113   -2.935948   -0.767854
     29          1           0        1.561762   -3.525266   -0.787971
     30          1           0        0.690473   -1.945844   -3.341411
     31          1           0        0.119083   -0.464009   -2.561072
     32          1           0       -0.314601   -2.044567   -1.891419
     33          1           0        0.733123   -2.142969    1.207447
     34          1           0       -1.463658   -2.659071    1.575304
     35          1           0       -3.892305   -2.316995    1.261811
     36          1           0       -0.526095    1.093028   -0.368873
 ---------------------------------------------------------------------
 Rotational constants (GHZ):           0.4072151           0.1648136           0.1533161
 Standard basis: 6-31+G(d,p) (6D, 7F)
 There are   502 symmetry adapted cartesian basis functions of A   symmetry.
 There are   502 symmetry adapted basis functions of A   symmetry.
   502 basis functions,   827 primitive gaussians,   502 cartesian basis functions
    81 alpha electrons       81 beta electrons
       nuclear repulsion energy      1854.2686962377 Hartrees.
 NAtoms=   36 NActive=   36 NUniq=   36 SFac= 1.00D+00 NAtFMM=   60 NAOKFM=F Big=F
 Integral buffers will be    131072 words long.
 Regular integral format.
 Two-electron integral symmetry is turned on.
 One-electron integrals computed using PRISM.
 NBasis=   502 RedAO= T EigKep=  1.24D-06  NBF=   502
 NBsUse=   500 1.00D-06 EigRej=  6.75D-07 NBFU=   500
 ExpMin= 4.38D-02 ExpMax= 5.48D+03 ExpMxC= 8.25D+02 IAcc=3 IRadAn=         5 AccDes= 0.00D+00
 Harris functional with IExCor=  402 and IRadAn=       5 diagonalized for initial guess.
 HarFok:  IExCor=  402 AccDes= 0.00D+00 IRadAn=         5 IDoV= 1 UseB2=F ITyADJ=14
 ICtDFT=  3500011 ScaDFX=  1.000000  1.000000  1.000000  1.000000
 FoFCou: FMM=F IPFlag=           0 FMFlag=      100000 FMFlg1=           0
         NFxFlg=           0 DoJE=T BraDBF=F KetDBF=T FulRan=T
         wScrn=  0.000000 ICntrl=       500 IOpCl=  0 I1Cent=   200000004 NGrid=           0
         NMat0=    1 NMatS0=      1 NMatT0=    0 NMatD0=    1 NMtDS0=    0 NMtDT0=    0
 Petite list used in FoFCou.
 Requested convergence on RMS density matrix=1.00D-08 within 128 cycles.
 Requested convergence on MAX density matrix=1.00D-06.
 Requested convergence on             energy=1.00D-06.
 No special actions if energy rises.
 SCF Done:  E(RB3LYP) =  -1082.53430039     A.U. after   18 cycles
            NFock= 18  Conv=0.76D-08     -V/T= 2.0093
 DoSCS=F DFT=T ScalE2(SS,OS)=  1.000000  1.000000
 ExpMin= 4.38D-02 ExpMax= 5.48D+03 ExpMxC= 8.25D+02 IAcc=3 IRadAn=         5 AccDes= 0.00D+00
 HarFok:  IExCor=  205 AccDes= 0.00D+00 IRadAn=         5 IDoV=-2 UseB2=F ITyADJ=14
 ICtDFT= 12500011 ScaDFX=  1.000000  1.000000  1.000000  1.000000
 GSVD:  LWork=        -713 too small for GESVD, short by        2990 words or        2990 for optimal perf.
 Range of M.O.s used for correlation:    24   500
 NBasis=   502 NAE=    81 NBE=    81 NFC=    23 NFV=     0
 NROrb=    477 NOA=    58 NOB=    58 NVA=   419 NVB=   419

 **** Warning!!: The largest alpha MO coefficient is  0.14981610D+03

 Orbital symmetries:
       Occupied  (A) (A) (A) (A) (A) (A) (A) (A) (A) (A) (A) (A)
                 (A) (A) (A) (A) (A) (A) (A) (A) (A) (A) (A) (A)
                 (A) (A) (A) (A) (A) (A) (A) (A) (A) (A) (A) (A)
                 (A) (A) (A) (A) (A) (A) (A) (A) (A) (A) (A) (A)
                 (A) (A) (A) (A) (A) (A) (A) (A) (A) (A) (A) (A)
                 (A) (A) (A) (A) (A) (A) (A) (A) (A) (A) (A) (A)
                 (A) (A) (A) (A) (A) (A) (A) (A) (A)
       Virtual   (A) (A) (A) (A) (A) (A) (A) (A) (A) (A) (A) (A)
                 (A) (A) (A) (A) (A) (A) (A) (A) (A) (A) (A) (A)
                 (A) (A) (A) (A) (A) (A) (A) (A) (A) (A) (A) (A)
                 (A) (A) (A) (A) (A) (A) (A) (A) (A) (A) (A) (A)
                 (A) (A) (A) (A) (A) (A) (A) (A) (A) (A) (A) (A)
                 (A) (A) (A) (A) (A) (A) (A) (A) (A) (A) (A) (A)
                 (A) (A) (A) (A) (A) (A) (A) (A) (A) (A) (A) (A)
                 (A) (A) (A) (A) (A) (A) (A) (A) (A) (A) (A) (A)
                 (A) (A) (A) (A) (A) (A) (A) (A) (A) (A) (A) (A)
                 (A) (A) (A) (A) (A) (A) (A) (A) (A) (A) (A) (A)
                 (A) (A) (A) (A) (A) (A) (A) (A) (A) (A) (A) (A)
                 (A) (A) (A) (A) (A) (A) (A) (A) (A) (A) (A) (A)
                 (A) (A) (A) (A) (A) (A) (A) (A) (A) (A) (A) (A)
                 (A) (A) (A) (A) (A) (A) (A) (A) (A) (A) (A) (A)
                 (A) (A) (A) (A) (A) (A) (A) (A) (A) (A) (A) (A)
                 (A) (A) (A) (A) (A) (A) (A) (A) (A) (A) (A) (A)
                 (A) (A) (A) (A) (A) (A) (A) (A) (A) (A) (A) (A)
                 (A) (A) (A) (A) (A) (A) (A) (A) (A) (A) (A) (A)
                 (A) (A) (A) (A) (A) (A) (A) (A) (A) (A) (A) (A)
                 (A) (A) (A) (A) (A) (A) (A) (A) (A) (A) (A) (A)
                 (A) (A) (A) (A) (A) (A) (A) (A) (A) (A) (A) (A)
                 (A) (A) (A) (A) (A) (A) (A) (A) (A) (A) (A) (A)
                 (A) (A) (A) (A) (A) (A) (A) (A) (A) (A) (A) (A)
                 (A) (A) (A) (A) (A) (A) (A) (A) (A) (A) (A) (A)
                 (A) (A) (A) (A) (A) (A) (A) (A) (A) (A) (A) (A)
                 (A) (A) (A) (A) (A) (A) (A) (A) (A) (A) (A) (A)
                 (A) (A) (A) (A) (A) (A) (A) (A) (A) (A) (A) (A)
                 (A) (A) (A) (A) (A) (A) (A) (A) (A) (A) (A) (A)
                 (A) (A) (A) (A) (A) (A) (A) (A) (A) (A) (A) (A)
                 (A) (A) (A) (A) (A) (A) (A) (A) (A) (A) (A) (A)
                 (A) (A) (A) (A) (A) (A) (A) (A) (A) (A) (A) (A)
                 (A) (A) (A) (A) (A) (A) (A) (A) (A) (A) (A) (A)
                 (A) (A) (A) (A) (A) (A) (A) (A) (A) (A) (A) (A)
                 (A) (A) (A) (A) (A) (A) (A) (A) (A) (A) (A) (A)
                 (A) (A) (A) (A) (A) (A) (A) (A) (A) (A) (A)
    24 initial guesses have been made.
 Convergence on wavefunction:    0.001000000000000
 Iteration     1 Dimension    24 NMult     0 NNew     24
 CISAX will form    24 AO SS matrices at one time.
 New state      1 was old state      2
 New state      2 was old state      8
 New state      5 was old state      6
 New state      6 was old state      5
 New state      7 was old state     16
 New state      8 was old state     14
 New state      9 was old state     10
 New state     10 was old state     13
 New state     11 was old state      1
 Vector   5 SDiff=8.20D+00 TDiff=8.35D+00 assumed to be singlet.
 Vector  11 SDiff=8.24D+00 TDiff=8.31D+00 assumed to be singlet.
 Iteration     2 Dimension    36 NMult    24 NNew     12
 New state      3 was old state      6
 New state      5 was old state      3
 New state      6 was old state     11
 Iteration     3 Dimension    48 NMult    36 NNew     12
 Iteration     4 Dimension    60 NMult    48 NNew     12
 Iteration     5 Dimension    72 NMult    60 NNew     12
 Iteration     6 Dimension    80 NMult    72 NNew      8
 Iteration     7 Dimension    86 NMult    80 NNew      6
 Iteration     8 Dimension    88 NMult    86 NNew      2
 ***********************************************************************
 Excited states from <AA,BB:AA,BB> singles matrix:
 ***********************************************************************
 
 Ground to excited state transition densities written to RWF  633
 Ground to excited state transition electric dipole moments (Au):
       state          X           Y           Z        Dip. S.      Osc.
         1        -0.0000     -0.0000      0.0000      0.0000      0.0000
         2        -0.0000     -0.0000      0.0000      0.0000      0.0000
         3        -0.2245     -0.8362      0.4564      0.9579      0.0761
         4         0.0000     -0.0000     -0.0000      0.0000      0.0000
         5         0.1781      0.0384     -0.0412      0.0349      0.0030
         6        -0.0175      0.1117     -0.0852      0.0200      0.0018
 Ground to excited state transition velocity dipole moments (Au):
       state          X           Y           Z        Dip. S.      Osc.
         1         0.0000      0.0000     -0.0000      0.0000      0.0000
         2         0.0000     -0.0000      0.0000      0.0000      0.0000
         3         0.0294      0.1048     -0.0569      0.0151      0.0845
         4        -0.0000     -0.0000      0.0000      0.0000      0.0000
         5        -0.0213     -0.0043      0.0051      0.0005      0.0025
         6         0.0018     -0.0162      0.0121      0.0004      0.0021
 Ground to excited state transition magnetic dipole moments (Au):
       state          X           Y           Z
         1        -0.0000     -0.0000      0.0000
         2        -0.0000     -0.0000     -0.0000
         3        -0.0744     -0.0157     -0.0852
         4        -0.0000      0.0000      0.0000
         5        -0.0162     -0.0660     -0.0266
         6        -0.0497     -0.0037     -0.1061
 Ground to excited state transition velocity quadrupole moments (Au):
       state          XX          YY          ZZ          XY          XZ          YZ
         1        -0.0000     -0.0000      0.0000      0.0000      0.0000      0.0000
         2        -0.0000     -0.0000      0.0000     -0.0000      0.0000     -0.0000
         3        -0.6937      0.2824      0.0189     -0.6361      0.3047     -0.1367
         4         0.0000     -0.0000      0.0000     -0.0000     -0.0000     -0.0000
         5        -0.1857      0.0270      0.0191     -0.0771      0.0500     -0.0131
         6         0.1643     -0.0643      0.0029      0.0858     -0.0648      0.0341
 <0|del|b> * <b|rxdel|0> + <0|del|b> * <b|delr+rdel|0>
 Rotatory Strengths (R) in cgs (10**-40 erg-esu-cm/Gauss)
       state          XX          YY          ZZ    R(velocity)    E-M Angle
         1        -0.0000      0.0000     -0.0000     -0.0000       90.00
         2        -0.0000      0.0000      0.0000     -0.0000       90.00
         3        22.2118   -111.5221     95.3750      2.0216       85.83
         4        -0.0000      0.0000      0.0000      0.0000       90.00
         5        -0.0620      2.3869      0.3668      0.8972       72.25
         6        -3.2736     -6.2363      2.5291     -2.3269      123.60
 1/2[<0|r|b>*<b|rxdel|0> + (<0|rxdel|b>*<b|r|0>)*]
 Rotatory Strengths (R) in cgs (10**-40 erg-esu-cm/Gauss)
       state          XX          YY          ZZ     R(length)
         1        -0.0000     -0.0000     -0.0000     -0.0000
         2        -0.0000     -0.0000      0.0000     -0.0000
         3       -11.8155     -9.2804     27.5148      2.1396
         4         0.0000      0.0000      0.0000      0.0000
         5         2.0406      1.7919     -0.7750      1.0192
         6        -0.6157      0.2885     -6.3971     -2.2414
  1/2[<0|del|b>*<b|r|0> + (<0|r|b>*<b|del|0>)*] (Au)
       state          X           Y           Z        Dip. S.   Osc.(frdel)
         1        -0.0000     -0.0000     -0.0000      0.0000      0.0000
         2        -0.0000      0.0000      0.0000      0.0000      0.0000
         3        -0.0066     -0.0877     -0.0260      0.1202      0.0802
         4        -0.0000      0.0000     -0.0000      0.0000      0.0000
         5        -0.0038     -0.0002     -0.0002      0.0042      0.0028
         6        -0.0000     -0.0018     -0.0010      0.0029      0.0019

 Excitation energies and oscillator strengths:
 
 Excited State   1:      Triplet-A      1.2185 eV 1017.54 nm  f=0.0000  <S**2>=2.000
      81 -> 82         0.72623
      81 -> 86        -0.10867
      81 <- 82         0.24149
 This state for optimization and/or second-order correction.
 Total Energy, E(TD-HF/TD-DFT) =  -1082.48952247    
 Copying the excited state density for this state as the 1-particle RhoCI density.
 
 Excited State   2:      Triplet-A      2.7815 eV  445.74 nm  f=0.0000  <S**2>=2.000
      76 -> 83        -0.27662
      80 -> 83         0.60301
      81 -> 83         0.11378
 
 Excited State   3:      Singlet-A      3.2408 eV  382.57 nm  f=0.0761  <S**2>=0.000
      81 -> 82         0.69734
 
 Excited State   4:      Triplet-A      3.2968 eV  376.08 nm  f=0.0000  <S**2>=2.000
      75 -> 82         0.27362
      76 -> 82        -0.14103
      77 -> 82         0.43751
      79 -> 82        -0.13764
      80 -> 82        -0.15548
      81 -> 86        -0.37688
 
 Excited State   5:      Singlet-A      3.5491 eV  349.34 nm  f=0.0030  <S**2>=0.000
      81 -> 83         0.70310
 
 Excited State   6:      Singlet-A      3.6251 eV  342.01 nm  f=0.0018  <S**2>=0.000
      80 -> 82         0.70152
 SavETr:  write IOETrn=   770 NScale= 10 NData=  16 NLR=1 NState=    6 LETran=     118.

 **********************************************************************

            Population analysis using the SCF Density.

 **********************************************************************

 Orbital symmetries:
       Occupied  (A) (A) (A) (A) (A) (A) (A) (A) (A) (A) (A) (A)
                 (A) (A) (A) (A) (A) (A) (A) (A) (A) (A) (A) (A)
                 (A) (A) (A) (A) (A) (A) (A) (A) (A) (A) (A) (A)
                 (A) (A) (A) (A) (A) (A) (A) (A) (A) (A) (A) (A)
                 (A) (A) (A) (A) (A) (A) (A) (A) (A) (A) (A) (A)
                 (A) (A) (A) (A) (A) (A) (A) (A) (A) (A) (A) (A)
                 (A) (A) (A) (A) (A) (A) (A) (A) (A)
       Virtual   (A) (A) (A) (A) (A) (A) (A) (A) (A) (A) (A) (A)
                 (A) (A) (A) (A) (A) (A) (A) (A) (A) (A) (A) (A)
                 (A) (A) (A) (A) (A) (A) (A) (A) (A) (A) (A) (A)
                 (A) (A) (A) (A) (A) (A) (A) (A) (A) (A) (A) (A)
                 (A) (A) (A) (A) (A) (A) (A) (A) (A) (A) (A) (A)
                 (A) (A) (A) (A) (A) (A) (A) (A) (A) (A) (A) (A)
                 (A) (A) (A) (A) (A) (A) (A) (A) (A) (A) (A) (A)
                 (A) (A) (A) (A) (A) (A) (A) (A) (A) (A) (A) (A)
                 (A) (A) (A) (A) (A) (A) (A) (A) (A) (A) (A) (A)
                 (A) (A) (A) (A) (A) (A) (A) (A) (A) (A) (A) (A)
                 (A) (A) (A) (A) (A) (A) (A) (A) (A) (A) (A) (A)
                 (A) (A) (A) (A) (A) (A) (A) (A) (A) (A) (A) (A)
                 (A) (A) (A) (A) (A) (A) (A) (A) (A) (A) (A) (A)
                 (A) (A) (A) (A) (A) (A) (A) (A) (A) (A) (A) (A)
                 (A) (A) (A) (A) (A) (A) (A) (A) (A) (A) (A) (A)
                 (A) (A) (A) (A) (A) (A) (A) (A) (A) (A) (A) (A)
                 (A) (A) (A) (A) (A) (A) (A) (A) (A) (A) (A) (A)
                 (A) (A) (A) (A) (A) (A) (A) (A) (A) (A) (A) (A)
                 (A) (A) (A) (A) (A) (A) (A) (A) (A) (A) (A) (A)
                 (A) (A) (A) (A) (A) (A) (A) (A) (A) (A) (A) (A)
                 (A) (A) (A) (A) (A) (A) (A) (A) (A) (A) (A) (A)
                 (A) (A) (A) (A) (A) (A) (A) (A) (A) (A) (A) (A)
                 (A) (A) (A) (A) (A) (A) (A) (A) (A) (A) (A) (A)
                 (A) (A) (A) (A) (A) (A) (A) (A) (A) (A) (A) (A)
                 (A) (A) (A) (A) (A) (A) (A) (A) (A) (A) (A) (A)
                 (A) (A) (A) (A) (A) (A) (A) (A) (A) (A) (A) (A)
                 (A) (A) (A) (A) (A) (A) (A) (A) (A) (A) (A) (A)
                 (A) (A) (A) (A) (A) (A) (A) (A) (A) (A) (A) (A)
                 (A) (A) (A) (A) (A) (A) (A) (A) (A) (A) (A) (A)
                 (A) (A) (A) (A) (A) (A) (A) (A) (A) (A) (A) (A)
                 (A) (A) (A) (A) (A) (A) (A) (A) (A) (A) (A) (A)
                 (A) (A) (A) (A) (A) (A) (A) (A) (A) (A) (A) (A)
                 (A) (A) (A) (A) (A) (A) (A) (A) (A) (A) (A) (A)
                 (A) (A) (A) (A) (A) (A) (A) (A) (A) (A) (A) (A)
                 (A) (A) (A) (A) (A) (A) (A) (A) (A) (A) (A)
 The electronic state is 1-A.
 Alpha  occ. eigenvalues --  -19.29754 -19.24247 -19.20720 -19.18136 -14.56446
 Alpha  occ. eigenvalues --  -14.42695 -14.36577 -10.35615 -10.30032 -10.28531
 Alpha  occ. eigenvalues --  -10.28230 -10.27446 -10.26182 -10.25956 -10.25643
 Alpha  occ. eigenvalues --  -10.25528 -10.24986 -10.24650 -10.24559 -10.24531
 Alpha  occ. eigenvalues --  -10.24034 -10.21510 -10.20753  -1.23645  -1.15190
 Alpha  occ. eigenvalues --   -1.13697  -1.07196  -0.93994  -0.93295  -0.90005
 Alpha  occ. eigenvalues --   -0.89022  -0.86965  -0.84808  -0.81515  -0.79296
 Alpha  occ. eigenvalues --   -0.76259  -0.71935  -0.71764  -0.69470  -0.67535
 Alpha  occ. eigenvalues --   -0.65174  -0.63877  -0.62026  -0.59306  -0.57916
 Alpha  occ. eigenvalues --   -0.56710  -0.55902  -0.55508  -0.52714  -0.51714
 Alpha  occ. eigenvalues --   -0.50931  -0.49639  -0.49055  -0.48653  -0.47700
 Alpha  occ. eigenvalues --   -0.47137  -0.46269  -0.45090  -0.44610  -0.44027
 Alpha  occ. eigenvalues --   -0.43365  -0.43122  -0.42337  -0.41862  -0.40870
 Alpha  occ. eigenvalues --   -0.40585  -0.40400  -0.38718  -0.38446  -0.38275
 Alpha  occ. eigenvalues --   -0.38211  -0.37557  -0.36896  -0.35720  -0.32896
 Alpha  occ. eigenvalues --   -0.31806  -0.31443  -0.31326  -0.30450  -0.27210
 Alpha  occ. eigenvalues --   -0.24384
 Alpha virt. eigenvalues --   -0.11734  -0.09647  -0.05304  -0.03391  -0.03078
 Alpha virt. eigenvalues --   -0.02344  -0.01169  -0.00399  -0.00299   0.00399
 Alpha virt. eigenvalues --    0.00735   0.01236   0.01872   0.01962   0.02325
 Alpha virt. eigenvalues --    0.02887   0.03464   0.03636   0.04274   0.04330
 Alpha virt. eigenvalues --    0.05289   0.05679   0.05866   0.06298   0.06527
 Alpha virt. eigenvalues --    0.07020   0.07138   0.07695   0.08052   0.08366
 Alpha virt. eigenvalues --    0.09389   0.09434   0.09732   0.09876   0.09971
 Alpha virt. eigenvalues --    0.10600   0.10919   0.11428   0.11505   0.11735
 Alpha virt. eigenvalues --    0.12409   0.12580   0.13000   0.13330   0.13440
 Alpha virt. eigenvalues --    0.13715   0.13814   0.14188   0.14945   0.15457
 Alpha virt. eigenvalues --    0.15856   0.15997   0.16380   0.16584   0.16967
 Alpha virt. eigenvalues --    0.17504   0.17595   0.17734   0.17979   0.18129
 Alpha virt. eigenvalues --    0.18430   0.18551   0.19115   0.19599   0.19996
 Alpha virt. eigenvalues --    0.20089   0.20605   0.20665   0.21111   0.21420
 Alpha virt. eigenvalues --    0.21802   0.22179   0.22403   0.22725   0.22969
 Alpha virt. eigenvalues --    0.23199   0.23365   0.23636   0.24002   0.24277
 Alpha virt. eigenvalues --    0.24635   0.25116   0.25727   0.25791   0.26079
 Alpha virt. eigenvalues --    0.26303   0.26590   0.27000   0.27091   0.27431
 Alpha virt. eigenvalues --    0.27723   0.27965   0.28307   0.28901   0.29745
 Alpha virt. eigenvalues --    0.29995   0.30232   0.30379   0.30737   0.31041
 Alpha virt. eigenvalues --    0.31676   0.31948   0.32161   0.32533   0.33342
 Alpha virt. eigenvalues --    0.33457   0.34021   0.34499   0.34573   0.35310
 Alpha virt. eigenvalues --    0.35525   0.36181   0.37064   0.37663   0.38110
 Alpha virt. eigenvalues --    0.38375   0.38876   0.39624   0.40483   0.40701
 Alpha virt. eigenvalues --    0.41545   0.41888   0.42547   0.43235   0.44670
 Alpha virt. eigenvalues --    0.45556   0.46658   0.46933   0.47685   0.48119
 Alpha virt. eigenvalues --    0.48991   0.50252   0.53516   0.54691   0.57623
 Alpha virt. eigenvalues --    0.59917   0.61110   0.62779   0.64627   0.65957
 Alpha virt. eigenvalues --    0.66890   0.67736   0.68065   0.68518   0.69200
 Alpha virt. eigenvalues --    0.70114   0.70790   0.72606   0.73307   0.73725
 Alpha virt. eigenvalues --    0.74479   0.75394   0.76090   0.76851   0.77097
 Alpha virt. eigenvalues --    0.77895   0.78571   0.79302   0.79804   0.80149
 Alpha virt. eigenvalues --    0.80972   0.81700   0.81982   0.82967   0.83599
 Alpha virt. eigenvalues --    0.83958   0.84731   0.85240   0.86065   0.87598
 Alpha virt. eigenvalues --    0.88989   0.90295   0.91089   0.91323   0.91894
 Alpha virt. eigenvalues --    0.93086   0.93231   0.94608   0.95546   0.96032
 Alpha virt. eigenvalues --    0.96854   0.98079   0.98691   0.98959   1.00183
 Alpha virt. eigenvalues --    1.01104   1.01359   1.02029   1.03129   1.03483
 Alpha virt. eigenvalues --    1.04769   1.05128   1.06476   1.07060   1.07789
 Alpha virt. eigenvalues --    1.08663   1.09458   1.11472   1.12217   1.12678
 Alpha virt. eigenvalues --    1.12916   1.13452   1.14055   1.15259   1.16818
 Alpha virt. eigenvalues --    1.17190   1.17912   1.18513   1.19308   1.19652
 Alpha virt. eigenvalues --    1.21713   1.21874   1.23061   1.24334   1.26886
 Alpha virt. eigenvalues --    1.27087   1.28039   1.28193   1.29441   1.30405
 Alpha virt. eigenvalues --    1.31502   1.31722   1.32018   1.32626   1.33075
 Alpha virt. eigenvalues --    1.34110   1.34330   1.35615   1.36523   1.36715
 Alpha virt. eigenvalues --    1.37948   1.38303   1.39171   1.40496   1.41963
 Alpha virt. eigenvalues --    1.43065   1.43259   1.43808   1.46023   1.47344
 Alpha virt. eigenvalues --    1.47440   1.49124   1.49200   1.50123   1.51242
 Alpha virt. eigenvalues --    1.52441   1.52919   1.54492   1.57339   1.58621
 Alpha virt. eigenvalues --    1.61871   1.62338   1.64330   1.66455   1.67413
 Alpha virt. eigenvalues --    1.68517   1.71151   1.71917   1.73965   1.74552
 Alpha virt. eigenvalues --    1.75022   1.76693   1.77859   1.78035   1.79094
 Alpha virt. eigenvalues --    1.79244   1.81085   1.81320   1.81926   1.82806
 Alpha virt. eigenvalues --    1.83998   1.84607   1.85621   1.86620   1.86646
 Alpha virt. eigenvalues --    1.88851   1.89144   1.89827   1.90944   1.91477
 Alpha virt. eigenvalues --    1.91787   1.92791   1.93109   1.94983   1.95748
 Alpha virt. eigenvalues --    1.97276   1.98368   1.99201   1.99995   2.00572
 Alpha virt. eigenvalues --    2.02019   2.02520   2.03530   2.04981   2.05746
 Alpha virt. eigenvalues --    2.07005   2.07746   2.08408   2.08976   2.10667
 Alpha virt. eigenvalues --    2.11104   2.11573   2.11934   2.12675   2.14322
 Alpha virt. eigenvalues --    2.15129   2.15620   2.15704   2.18097   2.18270
 Alpha virt. eigenvalues --    2.20556   2.22108   2.23839   2.24870   2.25967
 Alpha virt. eigenvalues --    2.27412   2.29302   2.30225   2.32137   2.32897
 Alpha virt. eigenvalues --    2.33832   2.34818   2.38051   2.39111   2.40078
 Alpha virt. eigenvalues --    2.40690   2.43356   2.43797   2.46077   2.47396
 Alpha virt. eigenvalues --    2.48349   2.48707   2.49410   2.50793   2.51537
 Alpha virt. eigenvalues --    2.52135   2.52481   2.54459   2.56462   2.56666
 Alpha virt. eigenvalues --    2.58190   2.59437   2.60894   2.64831   2.64939
 Alpha virt. eigenvalues --    2.65290   2.68322   2.69659   2.70771   2.71294
 Alpha virt. eigenvalues --    2.71924   2.72524   2.74263   2.74740   2.78123
 Alpha virt. eigenvalues --    2.78608   2.79752   2.81343   2.81910   2.83212
 Alpha virt. eigenvalues --    2.85563   2.87111   2.88128   2.88483   2.89840
 Alpha virt. eigenvalues --    2.91290   2.92591   2.93589   2.95252   2.96790
 Alpha virt. eigenvalues --    2.98163   2.99313   3.02876   3.06547   3.07389
 Alpha virt. eigenvalues --    3.10696   3.14023   3.18798   3.21194   3.22807
 Alpha virt. eigenvalues --    3.24810   3.26229   3.27743   3.28206   3.28870
 Alpha virt. eigenvalues --    3.36265   3.36779   3.37890   3.42922   3.43830
 Alpha virt. eigenvalues --    3.46667   3.48619   3.49462   3.54412   3.59340
 Alpha virt. eigenvalues --    3.73943   4.16112   4.21990   4.27298   4.30013
 Alpha virt. eigenvalues --    4.32001   4.35846   4.36304   4.38682   4.42392
 Alpha virt. eigenvalues --    4.43465   4.47194   4.50396   4.52603   4.54166
 Alpha virt. eigenvalues --    4.56410   4.57477   4.69276   4.71323   4.74787
 Alpha virt. eigenvalues --    4.79981   4.81409   4.86798   4.95594
          Condensed to atoms (all electrons):
               1          2          3          4          5          6
     1  C    7.453474  -0.254873  -1.404149   0.023920   0.728503  -0.627455
     2  C   -0.254873  16.900202   0.537226   0.016057  -8.898625   0.011160
     3  C   -1.404149   0.537226  10.433163  -0.000257  -2.893025  -0.041826
     4  N    0.023920   0.016057  -0.000257   7.199615   0.196645   0.001407
     5  C    0.728503  -8.898625  -2.893025   0.196645  22.155058  -3.855830
     6  C   -0.627455   0.011160  -0.041826   0.001407  -3.855830  14.454219
     7  C   -0.060778  -1.560149  -0.068474   0.008982   1.200277  -3.213735
     8  C   -0.024553  -0.243206   0.004806  -0.000058   0.328794  -0.147158
     9  C   -0.097529   0.341636   0.057871  -0.000752  -0.364682   0.804243
    10  C   -0.450262  -0.109835  -0.005269   0.006993  -5.295261   0.220759
    11  C    0.284633   0.980435  -0.331419   0.002158   1.895991  -1.351030
    12  C   -0.038784  -0.130307   0.046743   0.000635  -1.116240   0.902891
    13  C    0.007496  -0.033395  -0.009644  -0.000065   0.083710   0.325994
    14  C   -0.001407  -0.080272  -0.000661  -0.000159  -0.077054  -0.012805
    15  N    0.000005   0.000374   0.000059   0.000000  -0.000131   0.005022
    16  O   -0.000012   0.000002   0.000120  -0.000003   0.000517  -0.003558
    17  N    0.000151   0.008593  -0.000547   0.000033  -0.006040  -0.012635
    18  O    0.000252  -0.000267  -0.002137   0.000062  -0.004995   0.009592
    19  C   -0.043351  -0.321263   0.136938  -0.002723   0.248540  -0.385232
    20  C   -0.098504  -0.300058   0.093894  -0.002609   0.953376  -0.992932
    21  C    0.055343  -0.723569  -0.327715   0.014448  -0.022416   0.193250
    22  O   -0.002394   0.000453  -0.007958   0.000169  -0.104353   0.050404
    23  O   -0.043717  -0.126047   0.058200   0.001178   0.159480   0.084500
    24  H    0.465389  -0.044649  -0.019216  -0.000202  -0.036329   0.003186
    25  H    0.483498  -0.107529  -0.041105   0.000126   0.026492  -0.007126
    26  H   -0.004493   0.010581  -0.016167   0.000151  -0.003145   0.008419
    27  H   -0.002569   0.011293   0.000497   0.000002  -0.016609  -0.010232
    28  H   -0.008204   0.023670   0.001112   0.000006  -0.013403   0.006256
    29  H    0.000659  -0.012078  -0.000466   0.000000   0.016884   0.104855
    30  H   -0.002418   0.001358  -0.000482   0.000007  -0.025447   0.033767
    31  H   -0.001155   0.000163  -0.001036  -0.000011  -0.011785   0.013159
    32  H   -0.000662  -0.001376   0.000561  -0.000005   0.015213   0.021785
    33  H    0.002578  -0.023358  -0.001350  -0.000007  -0.010860   0.019171
    34  H   -0.000016   0.001931  -0.000022   0.000000   0.019145  -0.021077
    35  H   -0.000000  -0.000000  -0.000003   0.000000   0.000186  -0.001813
    36  H    0.004382  -0.008006  -0.007331   0.000120  -0.007581   0.040353
               7          8          9         10         11         12
     1  C   -0.060778  -0.024553  -0.097529  -0.450262   0.284633  -0.038784
     2  C   -1.560149  -0.243206   0.341636  -0.109835   0.980435  -0.130307
     3  C   -0.068474   0.004806   0.057871  -0.005269  -0.331419   0.046743
     4  N    0.008982  -0.000058  -0.000752   0.006993   0.002158   0.000635
     5  C    1.200277   0.328794  -0.364682  -5.295261   1.895991  -1.116240
     6  C   -3.213735  -0.147158   0.804243   0.220759  -1.351030   0.902891
     7  C   11.576385   0.157474  -1.557092   0.172769  -1.259652   0.865674
     8  C    0.157474   5.777912  -0.342832  -0.377707   0.063073   0.238717
     9  C   -1.557092  -0.342832   6.431929  -0.079778  -0.087652  -0.090452
    10  C    0.172769  -0.377707  -0.079778  17.407676  -6.586688   1.230548
    11  C   -1.259652   0.063073  -0.087652  -6.586688  34.815199  -5.074871
    12  C    0.865674   0.238717  -0.090452   1.230548  -5.074871  28.676056
    13  C   -0.113395   0.037314   0.026146  -1.374653   0.151820  -2.020034
    14  C    0.087999  -0.002773  -0.022076   0.116020  -2.592521  -0.798569
    15  N    0.002481  -0.000060  -0.001505   0.020068  -0.105487  -0.056824
    16  O   -0.001940  -0.000026   0.001659  -0.001331   0.058955   0.024449
    17  N   -0.003110   0.000367   0.001633   0.008728   0.343783   0.195477
    18  O    0.005512  -0.000164  -0.003083   0.013342   0.155095  -0.046405
    19  C    0.204004  -0.035663  -0.003902   0.404505  -9.803013  -1.757861
    20  C   -0.644547  -0.312299   0.274893   0.263007  -5.685990 -16.047231
    21  C    0.375902   0.060442  -0.150198   0.552968  -1.177772   0.739248
    22  O    0.019570  -0.004850  -0.000533  -0.157826   0.054643  -0.179376
    23  O   -0.080458  -0.000080   0.028410  -0.223177   0.100860   0.081316
    24  H    0.003963  -0.006968  -0.000391  -0.014297   0.002706  -0.000210
    25  H    0.002182   0.001340  -0.001267  -0.002673  -0.000598  -0.000078
    26  H    0.227246  -0.026034   0.047886   0.011301  -0.015548  -0.003814
    27  H   -0.077314   0.427457   0.003932   0.017281   0.009025  -0.002025
    28  H   -0.073902   0.428202   0.008850  -0.006393  -0.007607   0.002166
    29  H   -0.151096   0.472390  -0.022128  -0.065879  -0.020268   0.010569
    30  H   -0.115593  -0.004250   0.432151   0.045332  -0.012790  -0.006565
    31  H   -0.088126  -0.003442   0.450601   0.001981  -0.010155   0.004704
    32  H   -0.147747  -0.007629   0.500468  -0.090495   0.055885   0.020913
    33  H    0.031776   0.024603  -0.011145   0.228778  -0.197549   0.323779
    34  H    0.002412   0.000262   0.000608   0.017828   0.076243   0.261634
    35  H   -0.000532   0.000043   0.000083  -0.007006   0.029306  -0.046551
    36  H   -0.032554   0.001464  -0.001810   0.000939   0.141451   0.032393
              13         14         15         16         17         18
     1  C    0.007496  -0.001407   0.000005  -0.000012   0.000151   0.000252
     2  C   -0.033395  -0.080272   0.000374   0.000002   0.008593  -0.000267
     3  C   -0.009644  -0.000661   0.000059   0.000120  -0.000547  -0.002137
     4  N   -0.000065  -0.000159   0.000000  -0.000003   0.000033   0.000062
     5  C    0.083710  -0.077054  -0.000131   0.000517  -0.006040  -0.004995
     6  C    0.325994  -0.012805   0.005022  -0.003558  -0.012635   0.009592
     7  C   -0.113395   0.087999   0.002481  -0.001940  -0.003110   0.005512
     8  C    0.037314  -0.002773  -0.000060  -0.000026   0.000367  -0.000164
     9  C    0.026146  -0.022076  -0.001505   0.001659   0.001633  -0.003083
    10  C   -1.374653   0.116020   0.020068  -0.001331   0.008728   0.013342
    11  C    0.151820  -2.592521  -0.105487   0.058955   0.343783   0.155095
    12  C   -2.020034  -0.798569  -0.056824   0.024449   0.195477  -0.046405
    13  C   11.303335   1.578732  -0.479976   0.228119  -0.117726  -0.045055
    14  C    1.578732  15.872774  -0.004123   0.184293  -0.013609   0.013754
    15  N   -0.479976  -0.004123   7.623681  -0.096676  -0.057774   0.045509
    16  O    0.228119   0.184293  -0.096676   7.705286   0.104015  -0.069512
    17  N   -0.117726  -0.013609  -0.057774   0.104015   7.682178   0.456992
    18  O   -0.045055   0.013754   0.045509  -0.069512   0.456992   7.639290
    19  C   -3.438686  -2.117898   0.507990  -0.423880  -0.630500  -0.213146
    20  C   -0.023643  -6.360634  -0.009454  -0.046333  -0.326059  -0.007363
    21  C   -0.162973   0.151053  -0.002790   0.000940   0.011611   0.002597
    22  O    0.008123   0.003822   0.000118  -0.000035  -0.000410   0.000086
    23  O    0.015931  -0.001655   0.000047  -0.000013  -0.000299   0.000115
    24  H   -0.000028  -0.000007   0.000000  -0.000000   0.000000  -0.000000
    25  H   -0.000002   0.000000   0.000000   0.000000  -0.000000  -0.000000
    26  H    0.000633   0.000114  -0.000001  -0.000000  -0.000031   0.000002
    27  H    0.000217  -0.000162   0.000000   0.000000   0.000001  -0.000000
    28  H   -0.000046   0.000000   0.000000  -0.000000   0.000000   0.000000
    29  H    0.004294   0.000147  -0.000000  -0.000000  -0.000004   0.000000
    30  H    0.000679  -0.000485   0.000006  -0.000000   0.000024   0.000004
    31  H    0.003189   0.002874  -0.000031   0.000007   0.000642  -0.000076
    32  H    0.001558  -0.001851  -0.000069  -0.000017  -0.000406   0.000005
    33  H    0.059135   0.008401  -0.000002  -0.000002   0.000094  -0.000000
    34  H   -0.010957  -0.031440  -0.000674   0.000058   0.000365  -0.000006
    35  H    0.184905   0.072905  -0.003460  -0.000811  -0.002193   0.000035
    36  H    0.000527   0.076238  -0.002359  -0.000946  -0.010599   0.005318
              19         20         21         22         23         24
     1  C   -0.043351  -0.098504   0.055343  -0.002394  -0.043717   0.465389
     2  C   -0.321263  -0.300058  -0.723569   0.000453  -0.126047  -0.044649
     3  C    0.136938   0.093894  -0.327715  -0.007958   0.058200  -0.019216
     4  N   -0.002723  -0.002609   0.014448   0.000169   0.001178  -0.000202
     5  C    0.248540   0.953376  -0.022416  -0.104353   0.159480  -0.036329
     6  C   -0.385232  -0.992932   0.193250   0.050404   0.084500   0.003186
     7  C    0.204004  -0.644547   0.375902   0.019570  -0.080458   0.003963
     8  C   -0.035663  -0.312299   0.060442  -0.004850  -0.000080  -0.006968
     9  C   -0.003902   0.274893  -0.150198  -0.000533   0.028410  -0.000391
    10  C    0.404505   0.263007   0.552968  -0.157826  -0.223177  -0.014297
    11  C   -9.803013  -5.685990  -1.177772   0.054643   0.100860   0.002706
    12  C   -1.757861 -16.047231   0.739248  -0.179376   0.081316  -0.000210
    13  C   -3.438686  -0.023643  -0.162973   0.008123   0.015931  -0.000028
    14  C   -2.117898  -6.360634   0.151053   0.003822  -0.001655  -0.000007
    15  N    0.507990  -0.009454  -0.002790   0.000118   0.000047   0.000000
    16  O   -0.423880  -0.046333   0.000940  -0.000035  -0.000013  -0.000000
    17  N   -0.630500  -0.326059   0.011611  -0.000410  -0.000299   0.000000
    18  O   -0.213146  -0.007363   0.002597   0.000086   0.000115  -0.000000
    19  C   19.404818   4.391845   0.017798  -0.000378  -0.008273  -0.000084
    20  C    4.391845  31.983631  -0.984395   0.191855  -0.108458  -0.001702
    21  C    0.017798  -0.984395   6.672301   0.464939  -0.019494  -0.001629
    22  O   -0.000378   0.191855   0.464939   8.124665  -0.068177   0.000013
    23  O   -0.008273  -0.108458  -0.019494  -0.068177   8.318243  -0.000188
    24  H   -0.000084  -0.001702  -0.001629   0.000013  -0.000188   0.520964
    25  H    0.000022   0.000294   0.000704  -0.000001  -0.000394  -0.030070
    26  H    0.002696   0.028250  -0.006006   0.000015   0.001749  -0.001237
    27  H   -0.000879  -0.002285  -0.000589  -0.000002  -0.000005  -0.000029
    28  H   -0.000121  -0.002657  -0.003713   0.000033  -0.000321   0.001333
    29  H    0.000572   0.003857   0.003980  -0.000024   0.000371  -0.000003
    30  H   -0.001974   0.007582   0.001108  -0.000002   0.000008   0.000001
    31  H    0.003087  -0.001261  -0.001408   0.000023  -0.000175  -0.000002
    32  H    0.002347  -0.018002  -0.002254  -0.000035   0.000204  -0.000002
    33  H   -0.019488  -0.179881  -0.004814  -0.004384   0.012410   0.000004
    34  H   -0.027367   0.008386   0.003970   0.000567  -0.000409   0.000000
    35  H    0.079377   0.011145   0.000322  -0.000036  -0.000001  -0.000000
    36  H   -0.052473   0.087870   0.031169  -0.000755  -0.000086  -0.000000
              25         26         27         28         29         30
     1  C    0.483498  -0.004493  -0.002569  -0.008204   0.000659  -0.002418
     2  C   -0.107529   0.010581   0.011293   0.023670  -0.012078   0.001358
     3  C   -0.041105  -0.016167   0.000497   0.001112  -0.000466  -0.000482
     4  N    0.000126   0.000151   0.000002   0.000006   0.000000   0.000007
     5  C    0.026492  -0.003145  -0.016609  -0.013403   0.016884  -0.025447
     6  C   -0.007126   0.008419  -0.010232   0.006256   0.104855   0.033767
     7  C    0.002182   0.227246  -0.077314  -0.073902  -0.151096  -0.115593
     8  C    0.001340  -0.026034   0.427457   0.428202   0.472390  -0.004250
     9  C   -0.001267   0.047886   0.003932   0.008850  -0.022128   0.432151
    10  C   -0.002673   0.011301   0.017281  -0.006393  -0.065879   0.045332
    11  C   -0.000598  -0.015548   0.009025  -0.007607  -0.020268  -0.012790
    12  C   -0.000078  -0.003814  -0.002025   0.002166   0.010569  -0.006565
    13  C   -0.000002   0.000633   0.000217  -0.000046   0.004294   0.000679
    14  C    0.000000   0.000114  -0.000162   0.000000   0.000147  -0.000485
    15  N    0.000000  -0.000001   0.000000   0.000000  -0.000000   0.000006
    16  O    0.000000  -0.000000   0.000000  -0.000000  -0.000000  -0.000000
    17  N   -0.000000  -0.000031   0.000001   0.000000  -0.000004   0.000024
    18  O   -0.000000   0.000002  -0.000000   0.000000   0.000000   0.000004
    19  C    0.000022   0.002696  -0.000879  -0.000121   0.000572  -0.001974
    20  C    0.000294   0.028250  -0.002285  -0.002657   0.003857   0.007582
    21  C    0.000704  -0.006006  -0.000589  -0.003713   0.003980   0.001108
    22  O   -0.000001   0.000015  -0.000002   0.000033  -0.000024  -0.000002
    23  O   -0.000394   0.001749  -0.000005  -0.000321   0.000371   0.000008
    24  H   -0.030070  -0.001237  -0.000029   0.001333  -0.000003   0.000001
    25  H    0.502545   0.000122   0.000001   0.000006  -0.000000  -0.000000
    26  H    0.000122   0.608270  -0.004019  -0.004423   0.005370  -0.004393
    27  H    0.000001  -0.004019   0.540702  -0.026166  -0.027248   0.003107
    28  H    0.000006  -0.004423  -0.026166   0.558162  -0.028708   0.000106
    29  H   -0.000000   0.005370  -0.027248  -0.028708   0.549108  -0.000077
    30  H   -0.000000  -0.004393   0.003107   0.000106  -0.000077   0.554537
    31  H   -0.000000  -0.004294   0.000110  -0.000153   0.000034  -0.025949
    32  H    0.000000   0.005167  -0.000306   0.000017   0.003164  -0.028525
    33  H   -0.000000  -0.000025  -0.000044   0.000048   0.000638  -0.000002
    34  H    0.000000   0.000000   0.000000   0.000000  -0.000011  -0.000000
    35  H   -0.000000   0.000000  -0.000000  -0.000000   0.000000   0.000000
    36  H   -0.000000  -0.000006   0.000000  -0.000000  -0.000000   0.000020
              31         32         33         34         35         36
     1  C   -0.001155  -0.000662   0.002578  -0.000016  -0.000000   0.004382
     2  C    0.000163  -0.001376  -0.023358   0.001931  -0.000000  -0.008006
     3  C   -0.001036   0.000561  -0.001350  -0.000022  -0.000003  -0.007331
     4  N   -0.000011  -0.000005  -0.000007   0.000000   0.000000   0.000120
     5  C   -0.011785   0.015213  -0.010860   0.019145   0.000186  -0.007581
     6  C    0.013159   0.021785   0.019171  -0.021077  -0.001813   0.040353
     7  C   -0.088126  -0.147747   0.031776   0.002412  -0.000532  -0.032554
     8  C   -0.003442  -0.007629   0.024603   0.000262   0.000043   0.001464
     9  C    0.450601   0.500468  -0.011145   0.000608   0.000083  -0.001810
    10  C    0.001981  -0.090495   0.228778   0.017828  -0.007006   0.000939
    11  C   -0.010155   0.055885  -0.197549   0.076243   0.029306   0.141451
    12  C    0.004704   0.020913   0.323779   0.261634  -0.046551   0.032393
    13  C    0.003189   0.001558   0.059135  -0.010957   0.184905   0.000527
    14  C    0.002874  -0.001851   0.008401  -0.031440   0.072905   0.076238
    15  N   -0.000031  -0.000069  -0.000002  -0.000674  -0.003460  -0.002359
    16  O    0.000007  -0.000017  -0.000002   0.000058  -0.000811  -0.000946
    17  N    0.000642  -0.000406   0.000094   0.000365  -0.002193  -0.010599
    18  O   -0.000076   0.000005  -0.000000  -0.000006   0.000035   0.005318
    19  C    0.003087   0.002347  -0.019488  -0.027367   0.079377  -0.052473
    20  C   -0.001261  -0.018002  -0.179881   0.008386   0.011145   0.087870
    21  C   -0.001408  -0.002254  -0.004814   0.003970   0.000322   0.031169
    22  O    0.000023  -0.000035  -0.004384   0.000567  -0.000036  -0.000755
    23  O   -0.000175   0.000204   0.012410  -0.000409  -0.000001  -0.000086
    24  H   -0.000002  -0.000002   0.000004   0.000000  -0.000000  -0.000000
    25  H   -0.000000   0.000000  -0.000000   0.000000  -0.000000  -0.000000
    26  H   -0.004294   0.005167  -0.000025   0.000000   0.000000  -0.000006
    27  H    0.000110  -0.000306  -0.000044   0.000000  -0.000000   0.000000
    28  H   -0.000153   0.000017   0.000048   0.000000  -0.000000  -0.000000
    29  H    0.000034   0.003164   0.000638  -0.000011   0.000000  -0.000000
    30  H   -0.025949  -0.028525  -0.000002  -0.000000   0.000000   0.000020
    31  H    0.539046  -0.029369   0.000044  -0.000001   0.000000   0.000213
    32  H   -0.029369   0.542716   0.000005  -0.000023  -0.000001   0.000028
    33  H    0.000044   0.000005   0.566104   0.004130  -0.000008   0.000003
    34  H   -0.000001  -0.000023   0.004130   0.567477  -0.004878  -0.000128
    35  H    0.000000  -0.000001  -0.000008  -0.004878   0.530180   0.000013
    36  H    0.000213   0.000028   0.000003  -0.000128   0.000013   0.536246
 Mulliken charges:
               1
     1  C   -0.342997
     2  C    0.133728
     3  C   -0.190929
     4  N   -0.465860
     5  C    0.735002
     6  C   -0.629948
     7  C    0.305587
     8  C   -0.484906
     9  C   -0.574194
    10  C    0.107706
    11  C    1.099352
    12  C   -0.241714
    13  C   -0.191576
    14  C   -0.048967
    15  N   -0.383964
    16  O    0.336674
    17  N   -0.632748
    18  O    0.044647
    19  C   -0.116382
    20  C   -0.143590
    21  C    0.237642
    22  O   -0.387972
    23  O   -0.181594
    24  H    0.159685
    25  H    0.173510
    26  H    0.135666
    27  H    0.156857
    28  H    0.145850
    29  H    0.151097
    30  H    0.149157
    31  H    0.158554
    32  H    0.158737
    33  H    0.171217
    34  H    0.131994
    35  H    0.158795
    36  H    0.165883
 Sum of Mulliken charges =  -0.00000
 Mulliken charges with hydrogens summed into heavy atoms:
               1
     1  C   -0.009802
     2  C    0.133728
     3  C   -0.190929
     4  N   -0.465860
     5  C    0.735002
     6  C   -0.629948
     7  C    0.441253
     8  C   -0.031101
     9  C   -0.107746
    10  C    0.278923
    11  C    1.099352
    12  C   -0.109720
    13  C   -0.032781
    14  C   -0.048967
    15  N   -0.383964
    16  O    0.336674
    17  N   -0.632748
    18  O    0.044647
    19  C   -0.116382
    20  C    0.022293
    21  C    0.237642
    22  O   -0.387972
    23  O   -0.181594
 Electronic spatial extent (au):  <R**2>=           7464.0920
 Charge=             -0.0000 electrons
 Dipole moment (field-independent basis, Debye):
    X=              3.6108    Y=             -8.4310    Z=             -2.9887  Tot=              9.6464
 Quadrupole moment (field-independent basis, Debye-Ang):
   XX=           -140.2410   YY=           -146.9557   ZZ=           -144.2716
   XY=             -5.6504   XZ=            -15.1458   YZ=             -0.0515
 Traceless Quadrupole moment (field-independent basis, Debye-Ang):
   XX=              3.5818   YY=             -3.1329   ZZ=             -0.4488
   XY=             -5.6504   XZ=            -15.1458   YZ=             -0.0515
 Octapole moment (field-independent basis, Debye-Ang**2):
  XXX=            137.3771  YYY=            -89.9235  ZZZ=            -47.8007  XYY=            -48.7277
  XXY=            -74.4475  XXZ=            -11.2778  XZZ=             -6.9347  YZZ=            -10.4807
  YYZ=             18.7810  XYZ=             -8.5218
 Hexadecapole moment (field-independent basis, Debye-Ang**3):
 XXXX=          -6817.7441 YYYY=          -2370.7921 ZZZZ=          -1572.2012 XXXY=            -98.8228
 XXXZ=           -191.4888 YYYX=           -222.6757 YYYZ=            -10.9729 ZZZX=             -1.0836
 ZZZY=              5.0476 XXYY=          -1657.3231 XXZZ=          -1320.9528 YYZZ=           -573.9632
 XXYZ=            -12.7796 YYXZ=            -60.5055 ZZXY=            -12.2486
 N-N= 1.854268696238D+03 E-N=-6.225426828589D+03  KE= 1.072607440533D+03
 Unable to Open any file for archive entry.
 1\1\GINC-N2\SP\RB3LYP TD-FC\6-31+G(d,p)\C16H13N3O4\HPCMGAC13\29-Jul-20
 25\0\\# td=(50-50,nstates=3) b3lyp/6-31+g(d,p) geom=connectivity\\Titl
 e Card Required\\0,1\C,0,-4.644655,-0.291327,-0.896626\C,0,-3.628146,-
 0.893699,-0.251035\C,0,-3.640469,-2.325121,-0.076283\N,0,-3.64576,-3.4
 80916,0.051723\C,0,-2.465853,-0.178271,0.308128\C,0,-1.646918,0.764015
 ,-0.196916\C,0,-1.775356,1.469658,-1.528207\C,0,-2.291736,2.913194,-1.
 330098\C,0,-0.487085,1.476463,-2.373318\C,0,-0.636085,1.097431,0.88926
 4\C,0,0.836739,0.815022,0.606012\C,0,1.820694,1.767132,1.068876\C,0,3.
 168675,1.592092,0.906929\C,0,3.600387,0.401149,0.247876\N,0,4.828683,-
 0.004072,-0.042244\O,0,4.682238,-1.210061,-0.678338\N,0,3.280913,-1.54
 7367,-0.777431\O,0,2.95002,-2.593122,-1.325653\C,0,2.620013,-0.533929,
 -0.19415\C,0,1.229297,-0.345711,-0.017066\C,0,-1.109668,0.219435,2.063
 71\O,0,-0.689524,0.163714,3.185168\O,0,-2.151484,-0.564389,1.619706\H,
 0,-4.680426,0.786648,-1.001717\H,0,-5.459895,-0.870146,-1.316233\H,0,-
 2.533597,0.923532,-2.101322\H,0,-2.463046,3.390462,-2.30066\H,0,-3.231
 113,2.935948,-0.767854\H,0,-1.561762,3.525266,-0.787971\H,0,-0.690473,
 1.945844,-3.341411\H,0,-0.119083,0.464009,-2.561072\H,0,0.314601,2.044
 567,-1.891419\H,0,-0.733123,2.142969,1.207447\H,0,1.463658,2.659071,1.
 575304\H,0,3.892305,2.316995,1.261811\H,0,0.526095,-1.093028,-0.368873
 \\Version=ES64L-G16RevC.02\State=1-A\HF=-1082.5343004\RMSD=7.561e-09\P
 G=C01 [X(C16H13N3O4)]\\@
 The archive entry for this job was punched.


 UNLESS WE CHANGE DIRECTIONS, WE WILL WIND UP WHERE WE ARE HEADED.
     -- CONFUCIUS
 Job cpu time:       0 days  2 hours 13 minutes 58.4 seconds.
 Elapsed time:       0 days  0 hours 17 minutes  1.0 seconds.
 File lengths (MBytes):  RWF=   1391 Int=      0 D2E=      0 Chk=     66 Scr=      2
 Normal termination of Gaussian 16 at Tue Jul 29 15:08:05 2025.
