 Entering Gaussian System, Link 0=g16
 Input=M2838e.gjf
 Output=M2838e.log
 Initial command:
 /hpc/softwares/Gaussian/g16/l1.exe "/hpc/home/hpcmgac13/pbs.12367.admin1.x8z/Gau-1721457.inp" -scrdir="/hpc/home/hpcmgac13/pbs.12367.admin1.x8z/"
 Default linda workers: n1
 Default is to use   8 SMP processors on each worker.
 Entering Link 1 = /hpc/softwares/Gaussian/g16/l1.exe PID=   1721458.
  
 Copyright (c) 1988-2021, Gaussian, Inc.  All Rights Reserved.
  
 This is part of the Gaussian(R) 16 program.  It is based on
 the Gaussian(R) 09 system (copyright 2009, Gaussian, Inc.),
 the Gaussian(R) 03 system (copyright 2003, Gaussian, Inc.),
 the Gaussian(R) 98 system (copyright 1998, Gaussian, Inc.),
 the Gaussian(R) 94 system (copyright 1995, Gaussian, Inc.),
 the Gaussian 92(TM) system (copyright 1992, Gaussian, Inc.),
 the Gaussian 90(TM) system (copyright 1990, Gaussian, Inc.),
 the Gaussian 88(TM) system (copyright 1988, Gaussian, Inc.),
 the Gaussian 86(TM) system (copyright 1986, Carnegie Mellon
 University), and the Gaussian 82(TM) system (copyright 1983,
 Carnegie Mellon University). Gaussian is a federally registered
 trademark of Gaussian, Inc.
  
 This software contains proprietary and confidential information,
 including trade secrets, belonging to Gaussian, Inc.
  
 This software is provided under written license and may be
 used, copied, transmitted, or stored only in accord with that
 written license.
  
 The following legend is applicable only to US Government
 contracts under FAR:
  
                    RESTRICTED RIGHTS LEGEND
  
 Use, reproduction and disclosure by the US Government is
 subject to restrictions as set forth in subparagraphs (a)
 and (c) of the Commercial Computer Software - Restricted
 Rights clause in FAR 52.227-19.
  
 Gaussian, Inc.
 340 Quinnipiac St., Bldg. 40, Wallingford CT 06492
  
  
 ---------------------------------------------------------------
 Warning -- This program may not be used in any manner that
 competes with the business of Gaussian, Inc. or will provide
 assistance to any competitor of Gaussian, Inc.  The licensee
 of this program is prohibited from giving any competitor of
 Gaussian, Inc. access to this program.  By using this program,
 the user acknowledges that Gaussian, Inc. is engaged in the
 business of creating and licensing software in the field of
 computational chemistry and represents and warrants to the
 licensee that it is not a competitor of Gaussian, Inc. and that
 it will not use this program in any manner prohibited above.
 ---------------------------------------------------------------
  

 Cite this work as:
 Gaussian 16, Revision C.02,
 M. J. Frisch, G. W. Trucks, H. B. Schlegel, G. E. Scuseria, 
 M. A. Robb, J. R. Cheeseman, G. Scalmani, V. Barone, 
 G. A. Petersson, H. Nakatsuji, X. Li, M. Caricato, A. V. Marenich, 
 J. Bloino, B. G. Janesko, R. Gomperts, B. Mennucci, H. P. Hratchian, 
 J. V. Ortiz, A. F. Izmaylov, J. L. Sonnenberg, D. Williams-Young, 
 F. Ding, F. Lipparini, F. Egidi, J. Goings, B. Peng, A. Petrone, 
 T. Henderson, D. Ranasinghe, V. G. Zakrzewski, J. Gao, N. Rega, 
 G. Zheng, W. Liang, M. Hada, M. Ehara, K. Toyota, R. Fukuda, 
 J. Hasegawa, M. Ishida, T. Nakajima, Y. Honda, O. Kitao, H. Nakai, 
 T. Vreven, K. Throssell, J. A. Montgomery, Jr., J. E. Peralta, 
 F. Ogliaro, M. J. Bearpark, J. J. Heyd, E. N. Brothers, K. N. Kudin, 
 V. N. Staroverov, T. A. Keith, R. Kobayashi, J. Normand, 
 K. Raghavachari, A. P. Rendell, J. C. Burant, S. S. Iyengar, 
 J. Tomasi, M. Cossi, J. M. Millam, M. Klene, C. Adamo, R. Cammi, 
 J. W. Ochterski, R. L. Martin, K. Morokuma, O. Farkas, 
 J. B. Foresman, and D. J. Fox, Gaussian, Inc., Wallingford CT, 2019.
 
 ******************************************
 Gaussian 16:  ES64L-G16RevC.02  7-Dec-2021
                29-Jul-2025 
 ******************************************
 SetLPE:    new flags="-opt 'Tsnet.Node.lindarsharg: ssh'  -nodelist 'n1' -env GAUSS_MDEF=2147483648 -env GAUSS_EXEDIR="/hpc/softwares/Gaussian/g16/bsd:/hpc/softwares/Gaussian/g16""
 Will use up to    1 processors via Linda.
 ----------------------------------------------------------
 # td=(50-50,nstates=3) b3lyp/6-31+g(d,p) geom=connectivity
 ----------------------------------------------------------
 1/38=1,57=2,172=1/1;
 2/12=2,17=6,18=5,40=1/2;
 3/5=1,6=6,7=111,11=9,25=1,30=1,74=-5/1,2,3,8;
 4//1;
 5/5=2,38=5/2;
 8/6=1,10=2,108=3/1;
 9/41=3,42=1,48=2,70=2/14;
 6/7=2,8=2,9=2,10=2/1;
 99/5=1,9=1/99;
 -------------------
 Title Card Required
 -------------------
 Symbolic Z-matrix:
 Charge =  0 Multiplicity = 1
 C                    -0.45228   3.36574  -0.4172 
 C                     0.71373   2.40609  -0.28279 
 C                     1.9607    2.93733   0.13418 
 C                     3.05413   2.1374    0.36241 
 C                     2.98301   0.74591   0.10616 
 N                     4.07197  -0.01452   0.40378 
 C                     3.97108  -1.30512   0.13611 
 N                     4.9993   -2.12905   0.50989 
 N                     2.97253  -1.89729  -0.56946 
 C                     1.92392  -1.16257  -0.89057 
 N                     1.00525  -1.78997  -1.71476 
 C                     1.77244   0.20696  -0.44103 
 C                     0.60016   1.03279  -0.53197 
 C                    -0.79197   0.45351  -0.73195 
 C                    -1.58875   0.28047   0.61117 
 C                    -0.90015  -0.64839   1.52217 
 N                    -0.36685  -1.38402   2.24568 
 C                    -3.02551  -0.16117   0.33969 
 C                    -4.04786   0.79567   0.30829 
 C                    -5.36046   0.4251    0.00434 
 C                    -5.66436  -0.91024  -0.27063 
 C                    -4.64963  -1.87109  -0.23724 
 C                    -3.33816  -1.4996    0.06612 
 H                    -1.00661   3.22369  -1.35121 
 H                    -1.17515   3.276     0.40368 
 H                    -0.09198   4.39797  -0.40653 
 H                     2.03519   4.00699   0.31417 
 H                     3.98858   2.53713   0.74156 
 H                     4.82078  -3.12119   0.50126 
 H                     5.64319  -1.76893   1.1973 
 H                     0.57436  -1.22179  -2.43024 
 H                     1.35821  -2.67409  -2.06223 
 H                    -1.39813   1.11027  -1.36211 
 H                    -0.78188  -0.52546  -1.20175 
 H                    -1.61655   1.24671   1.12579 
 H                    -3.82009   1.83591   0.52843 
 H                    -6.14329   1.17787  -0.01024 
 H                    -6.6846   -1.20142  -0.50238 
 H                    -4.87914  -2.91305  -0.44041 
 H                    -2.55842  -2.25538   0.10549 
 
                          Input orientation:                          
 ---------------------------------------------------------------------
 Center     Atomic      Atomic             Coordinates (Angstroms)
 Number     Number       Type             X           Y           Z
 ---------------------------------------------------------------------
      1          6           0       -0.452280    3.365741   -0.417200
      2          6           0        0.713726    2.406089   -0.282793
      3          6           0        1.960698    2.937330    0.134183
      4          6           0        3.054128    2.137399    0.362410
      5          6           0        2.983012    0.745911    0.106156
      6          7           0        4.071973   -0.014517    0.403778
      7          6           0        3.971075   -1.305120    0.136110
      8          7           0        4.999296   -2.129052    0.509886
      9          7           0        2.972525   -1.897290   -0.569463
     10          6           0        1.923923   -1.162572   -0.890567
     11          7           0        1.005248   -1.789968   -1.714756
     12          6           0        1.772436    0.206959   -0.441025
     13          6           0        0.600162    1.032786   -0.531966
     14          6           0       -0.791973    0.453511   -0.731946
     15          6           0       -1.588751    0.280470    0.611174
     16          6           0       -0.900145   -0.648386    1.522165
     17          7           0       -0.366847   -1.384019    2.245676
     18          6           0       -3.025514   -0.161174    0.339689
     19          6           0       -4.047858    0.795666    0.308291
     20          6           0       -5.360462    0.425096    0.004342
     21          6           0       -5.664362   -0.910238   -0.270634
     22          6           0       -4.649626   -1.871090   -0.237243
     23          6           0       -3.338159   -1.499598    0.066118
     24          1           0       -1.006614    3.223685   -1.351213
     25          1           0       -1.175151    3.275997    0.403680
     26          1           0       -0.091982    4.397974   -0.406533
     27          1           0        2.035191    4.006991    0.314168
     28          1           0        3.988582    2.537132    0.741563
     29          1           0        4.820784   -3.121188    0.501258
     30          1           0        5.643185   -1.768926    1.197303
     31          1           0        0.574359   -1.221794   -2.430244
     32          1           0        1.358214   -2.674090   -2.062229
     33          1           0       -1.398134    1.110274   -1.362112
     34          1           0       -0.781877   -0.525458   -1.201748
     35          1           0       -1.616552    1.246709    1.125788
     36          1           0       -3.820093    1.835906    0.528429
     37          1           0       -6.143293    1.177872   -0.010238
     38          1           0       -6.684599   -1.201420   -0.502381
     39          1           0       -4.879144   -2.913048   -0.440414
     40          1           0       -2.558420   -2.255379    0.105491
 ---------------------------------------------------------------------
                    Distance matrix (angstroms):
                    1          2          3          4          5
     1  C    0.000000
     2  C    1.516103   0.000000
     3  C    2.511976   1.418106   0.000000
     4  C    3.796250   2.442532   1.373887   0.000000
     5  C    4.351855   2.838509   2.418311   1.416673   0.000000
     6  N    5.706927   4.196253   3.639171   2.380853   1.361127
     7  C    6.456715   4.955691   4.694678   3.569726   2.276817
     8  N    7.795635   6.289829   5.919667   4.691272   3.534659
     9  N    6.281080   4.868616   4.989235   4.141710   2.728201
    10  C    5.135760   3.816976   4.226188   3.706363   2.399465
    11  N    5.512656   4.443242   5.165153   4.892519   3.695667
    12  C    3.863655   2.445828   2.796647   2.452517   1.433656
    13  C    2.561930   1.400337   2.433537   2.835847   2.483439
    14  C    2.948820   2.506278   3.807458   4.338846   3.877941
    15  C    3.444999   3.258655   4.459262   5.006635   4.623061
    16  C    4.480506   3.897726   4.792523   4.974124   4.362116
    17  N    5.445955   4.682490   5.343213   5.258341   4.509512
    18  C    4.430975   4.578235   5.874119   6.499692   6.081096
    19  C    4.478817   5.061178   6.381205   7.227820   7.033951
    20  C    5.737189   6.395509   7.741289   8.594505   8.350260
    21  C    6.743239   7.188754   8.550392   9.257478   8.812598
    22  C    6.713754   6.860166   8.182618   8.704906   8.076124
    23  C    5.677448   5.638608   6.911501   7.360494   6.708287
    24  H    1.095375   2.183931   3.330667   4.539399   4.917357
    25  H    1.097470   2.189941   3.165576   4.380058   4.876492
    26  H    1.093359   2.152227   2.576694   3.949618   4.801667
    27  H    2.670882   2.159981   1.087253   2.129773   3.402393
    28  H    4.663752   3.433826   2.154387   1.084780   2.150206
    29  H    8.410055   6.930617   6.709730   5.549152   4.299764
    30  H    8.131797   6.627292   6.069578   4.760214   3.819886
    31  H    5.113884   4.218116   5.079029   5.023181   4.013327
    32  H    6.516408   5.421252   6.056009   5.648489   4.363286
    33  H    2.621952   2.702595   4.105945   4.883810   4.634977
    34  H    3.983162   3.416910   4.614903   4.924666   4.183465
    35  H    2.868212   2.959469   4.078995   4.815737   4.737767
    36  H    3.817954   4.640981   5.897975   6.882832   6.902800
    37  H    6.110648   6.971479   8.294047   9.254843   9.137263
    38  H    7.727096   8.233927   9.606020  10.331427   9.880542
    39  H    7.682503   7.719991   9.018898   9.438662   8.689086
    40  H    6.025448   5.708501   6.883856   7.131844   6.302001
                    6          7          8          9         10
     6  N    0.000000
     7  C    1.321924   0.000000
     8  N    2.311373   1.369602   0.000000
     9  N    2.387639   1.358529   2.307923   0.000000
    10  C    2.758166   2.294606   3.514722   1.320032   0.000000
    11  N    4.128585   3.529435   4.584368   2.278902   1.384513
    12  C    2.459800   2.730106   4.095584   2.425814   1.449362
    13  C    3.745121   4.156343   5.516798   3.770260   2.588539
    14  C    5.016661   5.151013   6.461468   4.441184   3.164329
    15  C    5.672198   5.800987   7.015584   5.190547   4.083684
    16  C    5.135615   5.106979   6.166075   4.575177   3.749803
    17  N    4.997124   4.824320   5.688895   4.397711   3.890075
    18  C    7.099291   7.092412   8.264326   6.310081   5.197428
    19  C    8.160709   8.291335   9.510290   7.570221   6.397978
    20  C    9.451118   9.491501  10.681940   8.669568   7.508916
    21  C    9.800682   9.652099  10.761427   8.698240   7.617746
    22  C    8.940026   8.647323   9.681242   7.629433   6.643822
    23  C    7.565021   7.312156   8.372950   6.355065   5.358949
    24  H    6.273595   6.891995   8.257508   6.532156   5.295233
    25  H    6.193528   6.895061   8.206682   6.701725   5.565989
    26  H    6.120882   7.023402   8.328445   7.003435   5.934462
    27  H    4.508773   5.656666   6.817276   6.043172   5.309251
    28  H    2.575260   3.889702   4.780009   4.734476   4.540317
    29  H    3.197128   2.037999   1.008105   2.461794   3.763663
    30  H    2.485224   2.034010   1.008378   3.204741   4.308106
    31  H    4.660741   4.258027   5.389578   3.109663   2.048276
    32  H    4.529791   3.678833   4.491138   2.331902   1.994368
    33  H    5.857098   6.075130   7.411121   5.364363   4.052684
    34  H    5.137960   4.998829   6.238843   4.046880   2.797160
    35  H    5.871227   6.221967   7.452821   5.815345   4.733422
    36  H    8.107053   8.409653   9.669688   7.828268   6.633109
    37  H   10.292952  10.415714  11.634585   9.636778   8.445865
    38  H   10.859729  10.675290  11.764293   9.682395   8.617357
    39  H    9.446515   9.013556   9.954963   7.918152   7.039071
    40  H    7.005180   6.598351   7.569582   5.583471   4.719932
                   11         12         13         14         15
    11  N    0.000000
    12  C    2.489716   0.000000
    13  C    3.087236   1.436832   0.000000
    14  C    3.037946   2.592608   1.521049   0.000000
    15  C    4.052838   3.522798   2.581490   1.571232   0.000000
    16  C    3.925734   3.424678   3.049051   2.511353   1.472025
    17  N    4.210993   3.784984   3.806750   3.524696   2.633471
    18  C    4.808405   4.874973   3.915463   2.552439   1.527430
    19  C    6.025952   5.897785   4.729307   3.435106   2.530686
    20  C    6.955866   7.150117   6.015476   4.627528   3.822952
    21  C    6.880633   7.522176   6.564137   5.080629   4.336586
    22  C    5.845274   6.752977   6.006632   4.531003   3.836402
    23  C    4.703298   5.411812   4.720280   3.306751   2.554634
    24  H    5.414468   4.201452   2.837769   2.846652   3.585019
    25  H    5.908123   4.338293   3.009845   3.066415   3.031056
    26  H    6.419189   4.587140   3.437919   4.019287   4.497764
    27  H    6.227523   3.883246   3.408980   4.659875   5.206547
    28  H    5.801515   3.426299   3.919990   5.419078   6.017987
    29  H    4.608815   4.610519   6.011381   6.767740   7.257100
    30  H    5.476403   4.644452   6.022628   7.076192   7.539527
    31  H    1.010154   2.726484   2.947415   2.749132   4.023191
    32  H    1.013407   3.331715   4.081333   4.021796   4.955917
    33  H    3.783121   3.422995   2.165256   1.093562   2.149132
    34  H    2.248550   2.763992   2.187867   1.085908   2.141787
    35  H    4.915682   3.875722   2.776280   2.181804   1.095088
    36  H    6.439158   5.905056   4.616069   3.559364   2.721234
    37  H    7.925597   7.986677   6.765163   5.448136   4.683517
    38  H    7.807047   8.573724   7.619731   6.124911   5.422515
    39  H    6.124649   7.346969   6.752835   5.303176   4.704368
    40  H    4.028602   5.011796   4.603805   3.340617   2.761612
                   16         17         18         19         20
    16  C    0.000000
    17  N    1.161478   0.000000
    18  C    2.480488   3.492370   0.000000
    19  C    3.669724   4.696204   1.400613   0.000000
    20  C    4.832244   5.764778   2.430669   1.397368   0.000000
    21  C    5.097103   5.883872   2.810180   2.420402   1.396812
    22  C    4.318464   4.974366   2.427839   2.787709   2.415807
    23  C    2.964548   3.686804   1.401416   2.414655   2.792485
    24  H    4.822921   5.880293   4.288633   4.230649   5.350292
    25  H    4.089917   5.075633   3.904111   3.796523   5.079757
    26  H    5.462486   6.367198   5.472503   5.397828   6.611313
    27  H    5.634535   6.209952   6.556294   6.878672   8.223238
    28  H    5.886979   6.050417   7.525948   8.234367   9.612950
    29  H    6.315539   5.742148   8.387621   9.696999  10.792628
    30  H    6.646526   6.112915   8.858144  10.063985  11.283490
    31  H    4.257287   4.772464   4.664389   5.738868   6.622806
    32  H    4.695907   4.816447   5.594732   6.847203   7.682205
    33  H    3.414664   4.505684   2.676018   3.148057   4.246965
    34  H    2.729249   3.576885   2.746386   3.833043   4.829249
    35  H    2.064398   3.120359   2.141322   2.604417   3.993689
    36  H    3.960469   5.024118   2.157616   1.087399   2.153553
    37  H    5.759694   6.709677   3.411164   2.153692   1.086144
    38  H    6.153417   6.891963   3.896164   3.405576   2.157698
    39  H    4.981249   5.469354   3.408418   3.873778   3.401864
    40  H    2.709108   3.184753   2.158407   3.401239   3.878997
                   21         22         23         24         25
    21  C    0.000000
    22  C    1.397870   0.000000
    23  C    2.423214   1.396417   0.000000
    24  H    6.320727   6.361541   5.454753   0.000000
    25  H    6.175134   6.243017   5.253462   1.763743   0.000000
    26  H    7.697207   7.752544   6.748512   1.762931   1.757422
    27  H    9.154466   8.918670   7.697853   3.555227   3.293730
    28  H   10.299914   9.747262   8.392410   5.459217   5.227258
    29  H   10.743482   9.581064   8.329901   8.811789   8.768394
    30  H   11.434719  10.392801   9.056305   8.697179   8.518849
    31  H    6.609283   5.702706   4.649387   4.840048   5.596609
    32  H    7.459059   6.330049   5.288214   6.393880   6.921140
    33  H    4.845048   4.552588   3.551756   2.149398   2.803230
    34  H    4.985347   4.207194   3.015130   3.758846   4.145253
    35  H    4.794495   4.558296   3.410137   3.227382   2.198701
    36  H    3.403107   3.875074   3.401702   3.657137   3.014157
    37  H    2.158097   3.402755   3.878589   5.689379   5.408872
    38  H    1.085991   2.158673   3.407457   7.248557   7.156971
    39  H    2.157925   1.086109   2.151523   7.313381   7.261979
    40  H    3.405547   2.153668   1.086622   5.877944   5.709507
                   26         27         28         29         30
    26  H    0.000000
    27  H    2.279724   0.000000
    28  H    4.629456   2.481711   0.000000
    29  H    9.027577   7.655421   5.724237   0.000000
    30  H    8.572928   6.867224   4.635466   1.728998   0.000000
    31  H    6.010092   6.083257   5.987220   5.498502   6.257112
    32  H    7.406652   7.123370   6.475872   4.331369   5.459382
    33  H    3.664442   4.794643   5.956348   7.749346   8.026243
    34  H    5.034730   5.547699   5.992762   6.405299   6.970156
    35  H    3.821360   4.648990   5.764577   7.804349   7.861485
    36  H    4.619216   6.248509   7.842994   9.961841  10.148686
    37  H    6.866183   8.660067  10.250253  11.787898  12.209129
    38  H    8.650144  10.189653  11.377212  11.707546  12.457337
    39  H    8.738942   9.811440  10.475595   9.747752  10.710301
    40  H    7.114253   7.769304   8.138549   7.440357   8.288246
                   31         32         33         34         35
    31  H    0.000000
    32  H    1.690866   0.000000
    33  H    3.235765   4.733818   0.000000
    34  H    1.957923   3.152307   1.755309   0.000000
    35  H    4.851697   5.863902   2.501193   3.042151   0.000000
    36  H    6.116738   7.339376   3.156988   4.219041   2.357877
    37  H    7.532707   8.678761   4.934437   5.750288   4.667620
    38  H    7.510629   8.323985   5.833505   5.982321   5.859127
    39  H    6.046524   6.449188   5.399452   4.802896   5.513717
    40  H    4.160836   4.496037   3.850681   2.803142   3.767326
                   36         37         38         39         40
    36  H    0.000000
    37  H    2.473950   0.000000
    38  H    4.300385   2.489226   0.000000
    39  H    4.961130   4.303342   2.488610   0.000000
    40  H    4.302245   4.965070   4.301824   2.473116   0.000000
 Stoichiometry    C18H17N5
 Framework group  C1[X(C18H17N5)]
 Deg. of freedom   114
 Full point group                 C1      NOp   1
 Largest Abelian subgroup         C1      NOp   1
 Largest concise Abelian subgroup C1      NOp   1
                         Standard orientation:                         
 ---------------------------------------------------------------------
 Center     Atomic      Atomic             Coordinates (Angstroms)
 Number     Number       Type             X           Y           Z
 ---------------------------------------------------------------------
      1          6           0       -0.452280    3.365741   -0.417200
      2          6           0        0.713726    2.406089   -0.282793
      3          6           0        1.960698    2.937330    0.134183
      4          6           0        3.054128    2.137399    0.362410
      5          6           0        2.983012    0.745911    0.106156
      6          7           0        4.071973   -0.014517    0.403778
      7          6           0        3.971075   -1.305120    0.136110
      8          7           0        4.999296   -2.129052    0.509886
      9          7           0        2.972525   -1.897290   -0.569463
     10          6           0        1.923923   -1.162572   -0.890567
     11          7           0        1.005248   -1.789968   -1.714756
     12          6           0        1.772436    0.206959   -0.441025
     13          6           0        0.600162    1.032786   -0.531966
     14          6           0       -0.791973    0.453511   -0.731946
     15          6           0       -1.588751    0.280470    0.611174
     16          6           0       -0.900145   -0.648386    1.522165
     17          7           0       -0.366847   -1.384019    2.245676
     18          6           0       -3.025514   -0.161174    0.339689
     19          6           0       -4.047858    0.795666    0.308291
     20          6           0       -5.360462    0.425096    0.004342
     21          6           0       -5.664362   -0.910238   -0.270634
     22          6           0       -4.649626   -1.871090   -0.237243
     23          6           0       -3.338159   -1.499598    0.066118
     24          1           0       -1.006614    3.223685   -1.351213
     25          1           0       -1.175151    3.275997    0.403680
     26          1           0       -0.091982    4.397974   -0.406533
     27          1           0        2.035191    4.006991    0.314168
     28          1           0        3.988582    2.537132    0.741563
     29          1           0        4.820784   -3.121188    0.501258
     30          1           0        5.643185   -1.768926    1.197303
     31          1           0        0.574359   -1.221794   -2.430244
     32          1           0        1.358214   -2.674090   -2.062229
     33          1           0       -1.398134    1.110274   -1.362112
     34          1           0       -0.781877   -0.525458   -1.201748
     35          1           0       -1.616552    1.246709    1.125788
     36          1           0       -3.820093    1.835906    0.528429
     37          1           0       -6.143293    1.177872   -0.010238
     38          1           0       -6.684599   -1.201420   -0.502381
     39          1           0       -4.879144   -2.913048   -0.440414
     40          1           0       -2.558420   -2.255379    0.105491
 ---------------------------------------------------------------------
 Rotational constants (GHZ):           0.4969677           0.1595754           0.1339445
 Standard basis: 6-31+G(d,p) (6D, 7F)
 There are   522 symmetry adapted cartesian basis functions of A   symmetry.
 There are   522 symmetry adapted basis functions of A   symmetry.
   522 basis functions,   855 primitive gaussians,   522 cartesian basis functions
    80 alpha electrons       80 beta electrons
       nuclear repulsion energy      1794.1949956990 Hartrees.
 NAtoms=   40 NActive=   40 NUniq=   40 SFac= 1.00D+00 NAtFMM=   60 NAOKFM=F Big=F
 Integral buffers will be    131072 words long.
 Regular integral format.
 Two-electron integral symmetry is turned on.
 One-electron integrals computed using PRISM.
 NBasis=   522 RedAO= T EigKep=  1.60D-06  NBF=   522
 NBsUse=   519 1.00D-06 EigRej=  7.09D-07 NBFU=   519
 ExpMin= 4.38D-02 ExpMax= 4.17D+03 ExpMxC= 6.27D+02 IAcc=3 IRadAn=         5 AccDes= 0.00D+00
 Harris functional with IExCor=  402 and IRadAn=       5 diagonalized for initial guess.
 HarFok:  IExCor=  402 AccDes= 0.00D+00 IRadAn=         5 IDoV= 1 UseB2=F ITyADJ=14
 ICtDFT=  3500011 ScaDFX=  1.000000  1.000000  1.000000  1.000000
 FoFCou: FMM=F IPFlag=           0 FMFlag=      100000 FMFlg1=           0
         NFxFlg=           0 DoJE=T BraDBF=F KetDBF=T FulRan=T
         wScrn=  0.000000 ICntrl=       500 IOpCl=  0 I1Cent=   200000004 NGrid=           0
         NMat0=    1 NMatS0=      1 NMatT0=    0 NMatD0=    1 NMtDS0=    0 NMtDT0=    0
 Petite list used in FoFCou.
 Requested convergence on RMS density matrix=1.00D-08 within 128 cycles.
 Requested convergence on MAX density matrix=1.00D-06.
 Requested convergence on             energy=1.00D-06.
 No special actions if energy rises.
 SCF Done:  E(RB3LYP) =  -969.996537911     A.U. after   16 cycles
            NFock= 16  Conv=0.74D-08     -V/T= 2.0097
 DoSCS=F DFT=T ScalE2(SS,OS)=  1.000000  1.000000
 ExpMin= 4.38D-02 ExpMax= 4.17D+03 ExpMxC= 6.27D+02 IAcc=3 IRadAn=         5 AccDes= 0.00D+00
 HarFok:  IExCor=  205 AccDes= 0.00D+00 IRadAn=         5 IDoV=-2 UseB2=F ITyADJ=14
 ICtDFT= 12500011 ScaDFX=  1.000000  1.000000  1.000000  1.000000
 GSVD:  LWork=        -713 too small for GESVD, short by        2990 words or        2990 for optimal perf.
 Range of M.O.s used for correlation:    24   519
 NBasis=   522 NAE=    80 NBE=    80 NFC=    23 NFV=     0
 NROrb=    496 NOA=    57 NOB=    57 NVA=   439 NVB=   439

 **** Warning!!: The largest alpha MO coefficient is  0.15892185D+03

 Orbital symmetries:
       Occupied  (A) (A) (A) (A) (A) (A) (A) (A) (A) (A) (A) (A)
                 (A) (A) (A) (A) (A) (A) (A) (A) (A) (A) (A) (A)
                 (A) (A) (A) (A) (A) (A) (A) (A) (A) (A) (A) (A)
                 (A) (A) (A) (A) (A) (A) (A) (A) (A) (A) (A) (A)
                 (A) (A) (A) (A) (A) (A) (A) (A) (A) (A) (A) (A)
                 (A) (A) (A) (A) (A) (A) (A) (A) (A) (A) (A) (A)
                 (A) (A) (A) (A) (A) (A) (A) (A)
       Virtual   (A) (A) (A) (A) (A) (A) (A) (A) (A) (A) (A) (A)
                 (A) (A) (A) (A) (A) (A) (A) (A) (A) (A) (A) (A)
                 (A) (A) (A) (A) (A) (A) (A) (A) (A) (A) (A) (A)
                 (A) (A) (A) (A) (A) (A) (A) (A) (A) (A) (A) (A)
                 (A) (A) (A) (A) (A) (A) (A) (A) (A) (A) (A) (A)
                 (A) (A) (A) (A) (A) (A) (A) (A) (A) (A) (A) (A)
                 (A) (A) (A) (A) (A) (A) (A) (A) (A) (A) (A) (A)
                 (A) (A) (A) (A) (A) (A) (A) (A) (A) (A) (A) (A)
                 (A) (A) (A) (A) (A) (A) (A) (A) (A) (A) (A) (A)
                 (A) (A) (A) (A) (A) (A) (A) (A) (A) (A) (A) (A)
                 (A) (A) (A) (A) (A) (A) (A) (A) (A) (A) (A) (A)
                 (A) (A) (A) (A) (A) (A) (A) (A) (A) (A) (A) (A)
                 (A) (A) (A) (A) (A) (A) (A) (A) (A) (A) (A) (A)
                 (A) (A) (A) (A) (A) (A) (A) (A) (A) (A) (A) (A)
                 (A) (A) (A) (A) (A) (A) (A) (A) (A) (A) (A) (A)
                 (A) (A) (A) (A) (A) (A) (A) (A) (A) (A) (A) (A)
                 (A) (A) (A) (A) (A) (A) (A) (A) (A) (A) (A) (A)
                 (A) (A) (A) (A) (A) (A) (A) (A) (A) (A) (A) (A)
                 (A) (A) (A) (A) (A) (A) (A) (A) (A) (A) (A) (A)
                 (A) (A) (A) (A) (A) (A) (A) (A) (A) (A) (A) (A)
                 (A) (A) (A) (A) (A) (A) (A) (A) (A) (A) (A) (A)
                 (A) (A) (A) (A) (A) (A) (A) (A) (A) (A) (A) (A)
                 (A) (A) (A) (A) (A) (A) (A) (A) (A) (A) (A) (A)
                 (A) (A) (A) (A) (A) (A) (A) (A) (A) (A) (A) (A)
                 (A) (A) (A) (A) (A) (A) (A) (A) (A) (A) (A) (A)
                 (A) (A) (A) (A) (A) (A) (A) (A) (A) (A) (A) (A)
                 (A) (A) (A) (A) (A) (A) (A) (A) (A) (A) (A) (A)
                 (A) (A) (A) (A) (A) (A) (A) (A) (A) (A) (A) (A)
                 (A) (A) (A) (A) (A) (A) (A) (A) (A) (A) (A) (A)
                 (A) (A) (A) (A) (A) (A) (A) (A) (A) (A) (A) (A)
                 (A) (A) (A) (A) (A) (A) (A) (A) (A) (A) (A) (A)
                 (A) (A) (A) (A) (A) (A) (A) (A) (A) (A) (A) (A)
                 (A) (A) (A) (A) (A) (A) (A) (A) (A) (A) (A) (A)
                 (A) (A) (A) (A) (A) (A) (A) (A) (A) (A) (A) (A)
                 (A) (A) (A) (A) (A) (A) (A) (A) (A) (A) (A) (A)
                 (A) (A) (A) (A) (A) (A) (A) (A) (A) (A) (A) (A)
                 (A) (A) (A) (A) (A) (A) (A)
    24 initial guesses have been made.
 Convergence on wavefunction:    0.001000000000000
 Iteration     1 Dimension    24 NMult     0 NNew     24
 CISAX will form    24 AO SS matrices at one time.
 New state      1 was old state      2
 New state      2 was old state      8
 New state      3 was old state     10
 New state      4 was old state     12
 New state      5 was old state      1
 New state      6 was old state      9
 New state      7 was old state      4
 New state      8 was old state     16
 New state      9 was old state      5
 New state     10 was old state      6
 New state     11 was old state      3
 New state     12 was old state     13
 Vector   4 SDiff=8.88D+01 TDiff=2.38D+03 assumed to be singlet.
 Vector  10 SDiff=6.49D+01 TDiff=1.80D+03 assumed to be singlet.
 Iteration     2 Dimension    36 NMult    24 NNew     12
 New state      3 was old state      5
 New state      4 was old state      3
 New state      5 was old state      6
 New state      6 was old state     11
 Iteration     3 Dimension    48 NMult    36 NNew     12
 Iteration     4 Dimension    60 NMult    48 NNew     12
 Iteration     5 Dimension    72 NMult    60 NNew     12
 Iteration     6 Dimension    82 NMult    72 NNew     10
 Iteration     7 Dimension    90 NMult    82 NNew      8
 Iteration     8 Dimension    96 NMult    90 NNew      6
 Iteration     9 Dimension    98 NMult    96 NNew      2
 Iteration    10 Dimension   100 NMult    98 NNew      2
 Iteration    11 Dimension   102 NMult   100 NNew      2
 ***********************************************************************
 Excited states from <AA,BB:AA,BB> singles matrix:
 ***********************************************************************
 
 Ground to excited state transition densities written to RWF  633
 Ground to excited state transition electric dipole moments (Au):
       state          X           Y           Z        Dip. S.      Osc.
         1        -0.0000     -0.0000     -0.0000      0.0000      0.0000
         2         0.0000      0.0000     -0.0000      0.0000      0.0000
         3        -0.5325     -0.7354     -0.2620      0.8930      0.0793
         4         0.0000      0.0000     -0.0000      0.0000      0.0000
         5        -0.0794      0.0193      0.0777      0.0127      0.0013
         6        -0.1585     -0.1959      0.0299      0.0644      0.0070
 Ground to excited state transition velocity dipole moments (Au):
       state          X           Y           Z        Dip. S.      Osc.
         1         0.0000      0.0000     -0.0000      0.0000      0.0000
         2         0.0000     -0.0000      0.0000      0.0000      0.0000
         3         0.0771      0.0971      0.0362      0.0167      0.0834
         4        -0.0000     -0.0000      0.0000      0.0000      0.0000
         5         0.0140     -0.0016     -0.0203      0.0006      0.0026
         6         0.0231      0.0312     -0.0051      0.0015      0.0063
 Ground to excited state transition magnetic dipole moments (Au):
       state          X           Y           Z
         1         0.0000      0.0000      0.0000
         2        -0.0000     -0.0000      0.0000
         3         0.2950     -0.1378     -0.1867
         4        -0.0000     -0.0000     -0.0000
         5         0.1378      0.3803      0.2367
         6        -0.0978     -0.1157      0.2880
 Ground to excited state transition velocity quadrupole moments (Au):
       state          XX          YY          ZZ          XY          XZ          YZ
         1         0.0000      0.0000      0.0000      0.0000     -0.0000      0.0000
         2        -0.0000     -0.0000      0.0000     -0.0000      0.0000     -0.0000
         3         0.3097      0.1789     -0.1030      0.4048      0.1467     -0.0478
         4        -0.0000     -0.0000      0.0000     -0.0000      0.0000     -0.0000
         5         0.1668     -0.0403      0.0041     -0.0337     -0.1866      0.0407
         6        -0.4713      0.1707     -0.0304      0.0499     -0.0238      0.0206
 <0|del|b> * <b|rxdel|0> + <0|del|b> * <b|delr+rdel|0>
 Rotatory Strengths (R) in cgs (10**-40 erg-esu-cm/Gauss)
       state          XX          YY          ZZ    R(velocity)    E-M Angle
         1         0.0000      0.0000     -0.0000      0.0000       90.00
         2        -0.0000      0.0000      0.0000      0.0000       90.00
         3       -52.3639     -6.1770     72.4226      4.6272       86.91
         4        -0.0000      0.0000     -0.0000     -0.0000       90.00
         5       -11.4733     -6.8475      2.4139     -5.3023      107.46
         6       -10.0019     -6.5305    -15.4227    -10.6517      125.17
 1/2[<0|r|b>*<b|rxdel|0> + (<0|rxdel|b>*<b|r|0>)*]
 Rotatory Strengths (R) in cgs (10**-40 erg-esu-cm/Gauss)
       state          XX          YY          ZZ     R(length)
         1         0.0000      0.0000      0.0000      0.0000
         2         0.0000      0.0000      0.0000      0.0000
         3       111.1115    -71.6633    -34.5848      1.6212
         4         0.0000      0.0000     -0.0000      0.0000
         5         7.7420     -5.1818    -13.0085     -3.4828
         6       -10.9617    -16.0202     -6.0922    -11.0247
  1/2[<0|del|b>*<b|r|0> + (<0|r|b>*<b|del|0>)*] (Au)
       state          X           Y           Z        Dip. S.   Osc.(frdel)
         1        -0.0000     -0.0000      0.0000      0.0000      0.0000
         2         0.0000     -0.0000     -0.0000     -0.0000     -0.0000
         3        -0.0410     -0.0714     -0.0095      0.1219      0.0813
         4        -0.0000     -0.0000     -0.0000      0.0000      0.0000
         5        -0.0011     -0.0000     -0.0016      0.0027      0.0018
         6        -0.0037     -0.0061     -0.0002      0.0099      0.0066

 Excitation energies and oscillator strengths:
 
 Excited State   1:      Triplet-A      2.6553 eV  466.93 nm  f=0.0000  <S**2>=2.000
      78 -> 81         0.13469
      79 -> 81         0.10855
      80 -> 81         0.65897
      80 -> 84        -0.11326
 This state for optimization and/or second-order correction.
 Total Energy, E(TD-HF/TD-DFT) =  -969.898957726    
 Copying the excited state density for this state as the 1-particle RhoCI density.
 
 Excited State   2:      Triplet-A      3.4631 eV  358.02 nm  f=0.0000  <S**2>=2.000
      75 -> 81         0.13018
      76 -> 81        -0.10271
      78 -> 81        -0.29706
      79 -> 81        -0.27844
      80 -> 81         0.21939
      80 -> 84         0.44479
      80 -> 86        -0.10609
 
 Excited State   3:      Singlet-A      3.6255 eV  341.98 nm  f=0.0793  <S**2>=0.000
      80 -> 81         0.68715
 
 Excited State   4:      Triplet-A      3.7153 eV  333.71 nm  f=0.0000  <S**2>=2.000
      75 -> 82         0.28548
      75 -> 83         0.21306
      76 -> 83         0.40182
      77 -> 81         0.12098
      77 -> 82         0.34937
      78 -> 82         0.16614
 
 Excited State   5:      Singlet-A      4.2072 eV  294.70 nm  f=0.0013  <S**2>=0.000
      78 -> 81        -0.27726
      79 -> 81         0.63486
 
 Excited State   6:      Singlet-A      4.4207 eV  280.46 nm  f=0.0070  <S**2>=0.000
      78 -> 81         0.16758
      80 -> 82         0.64669
      80 -> 84        -0.18329
 SavETr:  write IOETrn=   770 NScale= 10 NData=  16 NLR=1 NState=    6 LETran=     118.

 **********************************************************************

            Population analysis using the SCF Density.

 **********************************************************************

 Orbital symmetries:
       Occupied  (A) (A) (A) (A) (A) (A) (A) (A) (A) (A) (A) (A)
                 (A) (A) (A) (A) (A) (A) (A) (A) (A) (A) (A) (A)
                 (A) (A) (A) (A) (A) (A) (A) (A) (A) (A) (A) (A)
                 (A) (A) (A) (A) (A) (A) (A) (A) (A) (A) (A) (A)
                 (A) (A) (A) (A) (A) (A) (A) (A) (A) (A) (A) (A)
                 (A) (A) (A) (A) (A) (A) (A) (A) (A) (A) (A) (A)
                 (A) (A) (A) (A) (A) (A) (A) (A)
       Virtual   (A) (A) (A) (A) (A) (A) (A) (A) (A) (A) (A) (A)
                 (A) (A) (A) (A) (A) (A) (A) (A) (A) (A) (A) (A)
                 (A) (A) (A) (A) (A) (A) (A) (A) (A) (A) (A) (A)
                 (A) (A) (A) (A) (A) (A) (A) (A) (A) (A) (A) (A)
                 (A) (A) (A) (A) (A) (A) (A) (A) (A) (A) (A) (A)
                 (A) (A) (A) (A) (A) (A) (A) (A) (A) (A) (A) (A)
                 (A) (A) (A) (A) (A) (A) (A) (A) (A) (A) (A) (A)
                 (A) (A) (A) (A) (A) (A) (A) (A) (A) (A) (A) (A)
                 (A) (A) (A) (A) (A) (A) (A) (A) (A) (A) (A) (A)
                 (A) (A) (A) (A) (A) (A) (A) (A) (A) (A) (A) (A)
                 (A) (A) (A) (A) (A) (A) (A) (A) (A) (A) (A) (A)
                 (A) (A) (A) (A) (A) (A) (A) (A) (A) (A) (A) (A)
                 (A) (A) (A) (A) (A) (A) (A) (A) (A) (A) (A) (A)
                 (A) (A) (A) (A) (A) (A) (A) (A) (A) (A) (A) (A)
                 (A) (A) (A) (A) (A) (A) (A) (A) (A) (A) (A) (A)
                 (A) (A) (A) (A) (A) (A) (A) (A) (A) (A) (A) (A)
                 (A) (A) (A) (A) (A) (A) (A) (A) (A) (A) (A) (A)
                 (A) (A) (A) (A) (A) (A) (A) (A) (A) (A) (A) (A)
                 (A) (A) (A) (A) (A) (A) (A) (A) (A) (A) (A) (A)
                 (A) (A) (A) (A) (A) (A) (A) (A) (A) (A) (A) (A)
                 (A) (A) (A) (A) (A) (A) (A) (A) (A) (A) (A) (A)
                 (A) (A) (A) (A) (A) (A) (A) (A) (A) (A) (A) (A)
                 (A) (A) (A) (A) (A) (A) (A) (A) (A) (A) (A) (A)
                 (A) (A) (A) (A) (A) (A) (A) (A) (A) (A) (A) (A)
                 (A) (A) (A) (A) (A) (A) (A) (A) (A) (A) (A) (A)
                 (A) (A) (A) (A) (A) (A) (A) (A) (A) (A) (A) (A)
                 (A) (A) (A) (A) (A) (A) (A) (A) (A) (A) (A) (A)
                 (A) (A) (A) (A) (A) (A) (A) (A) (A) (A) (A) (A)
                 (A) (A) (A) (A) (A) (A) (A) (A) (A) (A) (A) (A)
                 (A) (A) (A) (A) (A) (A) (A) (A) (A) (A) (A) (A)
                 (A) (A) (A) (A) (A) (A) (A) (A) (A) (A) (A) (A)
                 (A) (A) (A) (A) (A) (A) (A) (A) (A) (A) (A) (A)
                 (A) (A) (A) (A) (A) (A) (A) (A) (A) (A) (A) (A)
                 (A) (A) (A) (A) (A) (A) (A) (A) (A) (A) (A) (A)
                 (A) (A) (A) (A) (A) (A) (A) (A) (A) (A) (A) (A)
                 (A) (A) (A) (A) (A) (A) (A) (A) (A) (A) (A) (A)
                 (A) (A) (A) (A) (A) (A) (A)
 The electronic state is 1-A.
 Alpha  occ. eigenvalues --  -14.36656 -14.35065 -14.33994 -14.32998 -14.31511
 Alpha  occ. eigenvalues --  -10.28662 -10.28551 -10.25426 -10.23361 -10.23171
 Alpha  occ. eigenvalues --  -10.22476 -10.21957 -10.21780 -10.21229 -10.21146
 Alpha  occ. eigenvalues --  -10.21095 -10.20998 -10.20997 -10.20917 -10.20885
 Alpha  occ. eigenvalues --  -10.20181 -10.20060 -10.19185  -1.00480  -0.94890
 Alpha  occ. eigenvalues --   -0.91145  -0.89985  -0.87978  -0.87085  -0.85668
 Alpha  occ. eigenvalues --   -0.82483  -0.77745  -0.77594  -0.76402  -0.74106
 Alpha  occ. eigenvalues --   -0.70734  -0.67892  -0.65527  -0.63831  -0.62711
 Alpha  occ. eigenvalues --   -0.61235  -0.59754  -0.56336  -0.55026  -0.53856
 Alpha  occ. eigenvalues --   -0.53119  -0.52445  -0.49880  -0.49538  -0.48336
 Alpha  occ. eigenvalues --   -0.46596  -0.46480  -0.45736  -0.45330  -0.44358
 Alpha  occ. eigenvalues --   -0.43979  -0.43584  -0.43492  -0.42800  -0.41647
 Alpha  occ. eigenvalues --   -0.40135  -0.39923  -0.38049  -0.37480  -0.37347
 Alpha  occ. eigenvalues --   -0.36719  -0.36359  -0.36153  -0.35698  -0.34987
 Alpha  occ. eigenvalues --   -0.32851  -0.32795  -0.31324  -0.29016  -0.27125
 Alpha  occ. eigenvalues --   -0.27024  -0.26468  -0.25472  -0.24959  -0.21041
 Alpha virt. eigenvalues --   -0.05801  -0.03071  -0.02899  -0.02041  -0.01283
 Alpha virt. eigenvalues --   -0.00355   0.00418   0.00937   0.01360   0.01733
 Alpha virt. eigenvalues --    0.01969   0.02560   0.02670   0.03004   0.03562
 Alpha virt. eigenvalues --    0.03764   0.04417   0.04748   0.05055   0.05374
 Alpha virt. eigenvalues --    0.05714   0.06357   0.06835   0.06966   0.07201
 Alpha virt. eigenvalues --    0.07842   0.08103   0.08677   0.09089   0.09391
 Alpha virt. eigenvalues --    0.09852   0.10107   0.10549   0.10955   0.11177
 Alpha virt. eigenvalues --    0.11484   0.11959   0.12356   0.12719   0.13259
 Alpha virt. eigenvalues --    0.13314   0.13627   0.13984   0.14686   0.14828
 Alpha virt. eigenvalues --    0.15331   0.15488   0.15899   0.16104   0.16390
 Alpha virt. eigenvalues --    0.16650   0.16921   0.17136   0.17689   0.17896
 Alpha virt. eigenvalues --    0.18260   0.18339   0.18532   0.18834   0.19330
 Alpha virt. eigenvalues --    0.19753   0.19892   0.20119   0.20358   0.20716
 Alpha virt. eigenvalues --    0.20943   0.21164   0.21439   0.21628   0.22090
 Alpha virt. eigenvalues --    0.22314   0.22714   0.22841   0.23376   0.23520
 Alpha virt. eigenvalues --    0.23953   0.24194   0.24299   0.24639   0.25058
 Alpha virt. eigenvalues --    0.25161   0.25353   0.25667   0.25888   0.26247
 Alpha virt. eigenvalues --    0.26357   0.27014   0.27252   0.27392   0.27528
 Alpha virt. eigenvalues --    0.27655   0.28341   0.28620   0.28699   0.28851
 Alpha virt. eigenvalues --    0.29052   0.29400   0.29806   0.29948   0.30363
 Alpha virt. eigenvalues --    0.30709   0.30846   0.31172   0.31629   0.32035
 Alpha virt. eigenvalues --    0.32302   0.32494   0.32889   0.33251   0.33675
 Alpha virt. eigenvalues --    0.34063   0.34474   0.34912   0.35337   0.35773
 Alpha virt. eigenvalues --    0.36289   0.36891   0.37426   0.37838   0.38000
 Alpha virt. eigenvalues --    0.38573   0.39265   0.39759   0.40286   0.40876
 Alpha virt. eigenvalues --    0.41866   0.42368   0.42378   0.43901   0.44653
 Alpha virt. eigenvalues --    0.45153   0.45286   0.46900   0.49107   0.52162
 Alpha virt. eigenvalues --    0.55303   0.56589   0.59136   0.59931   0.63342
 Alpha virt. eigenvalues --    0.65146   0.65799   0.66587   0.68256   0.68858
 Alpha virt. eigenvalues --    0.69193   0.69660   0.70058   0.71057   0.71469
 Alpha virt. eigenvalues --    0.72035   0.72432   0.73263   0.73851   0.74145
 Alpha virt. eigenvalues --    0.74499   0.75016   0.75756   0.76330   0.76681
 Alpha virt. eigenvalues --    0.77542   0.78346   0.78821   0.79285   0.79718
 Alpha virt. eigenvalues --    0.80803   0.81697   0.82380   0.83830   0.84349
 Alpha virt. eigenvalues --    0.85052   0.86286   0.87267   0.87965   0.88361
 Alpha virt. eigenvalues --    0.88790   0.89019   0.89393   0.89789   0.90450
 Alpha virt. eigenvalues --    0.91682   0.92411   0.93368   0.93853   0.94261
 Alpha virt. eigenvalues --    0.95685   0.95878   0.96554   0.96867   0.97694
 Alpha virt. eigenvalues --    0.98589   0.99494   0.99920   1.00281   1.01014
 Alpha virt. eigenvalues --    1.01787   1.02319   1.02488   1.03961   1.04359
 Alpha virt. eigenvalues --    1.04722   1.05485   1.06708   1.07555   1.07860
 Alpha virt. eigenvalues --    1.08305   1.09005   1.10359   1.10969   1.11366
 Alpha virt. eigenvalues --    1.12009   1.12764   1.13943   1.14627   1.15149
 Alpha virt. eigenvalues --    1.15351   1.16481   1.16829   1.18066   1.18591
 Alpha virt. eigenvalues --    1.19719   1.20753   1.21827   1.23176   1.23776
 Alpha virt. eigenvalues --    1.25228   1.25753   1.26295   1.26784   1.28750
 Alpha virt. eigenvalues --    1.29616   1.30382   1.31491   1.32219   1.32263
 Alpha virt. eigenvalues --    1.33493   1.34606   1.34870   1.36135   1.36703
 Alpha virt. eigenvalues --    1.37235   1.38262   1.38571   1.39890   1.40262
 Alpha virt. eigenvalues --    1.40882   1.41134   1.42165   1.44700   1.45840
 Alpha virt. eigenvalues --    1.46841   1.48910   1.50396   1.51790   1.52954
 Alpha virt. eigenvalues --    1.55358   1.56450   1.58317   1.58683   1.60956
 Alpha virt. eigenvalues --    1.62563   1.65187   1.65721   1.68789   1.70673
 Alpha virt. eigenvalues --    1.71706   1.73678   1.74947   1.76361   1.77075
 Alpha virt. eigenvalues --    1.77773   1.79115   1.80276   1.80776   1.81932
 Alpha virt. eigenvalues --    1.83326   1.84769   1.86533   1.87048   1.87639
 Alpha virt. eigenvalues --    1.88132   1.88877   1.90145   1.90675   1.91037
 Alpha virt. eigenvalues --    1.92333   1.93434   1.93662   1.94618   1.94710
 Alpha virt. eigenvalues --    1.96199   1.96405   1.97008   1.97887   1.99633
 Alpha virt. eigenvalues --    2.00127   2.00863   2.01079   2.02135   2.04095
 Alpha virt. eigenvalues --    2.05014   2.05914   2.06088   2.07287   2.08940
 Alpha virt. eigenvalues --    2.10300   2.11070   2.11497   2.12611   2.13439
 Alpha virt. eigenvalues --    2.14269   2.15405   2.17949   2.18583   2.19943
 Alpha virt. eigenvalues --    2.22393   2.22888   2.24421   2.25462   2.25827
 Alpha virt. eigenvalues --    2.27011   2.28886   2.30241   2.30344   2.30835
 Alpha virt. eigenvalues --    2.32656   2.34242   2.34541   2.36109   2.36554
 Alpha virt. eigenvalues --    2.37926   2.38047   2.38847   2.39215   2.40405
 Alpha virt. eigenvalues --    2.41838   2.42342   2.43606   2.45167   2.45798
 Alpha virt. eigenvalues --    2.47134   2.48750   2.50197   2.50993   2.51157
 Alpha virt. eigenvalues --    2.51850   2.52696   2.52913   2.53627   2.54249
 Alpha virt. eigenvalues --    2.55816   2.56540   2.57878   2.58288   2.58581
 Alpha virt. eigenvalues --    2.59944   2.61548   2.62101   2.63542   2.63957
 Alpha virt. eigenvalues --    2.65089   2.67020   2.68972   2.69448   2.70451
 Alpha virt. eigenvalues --    2.71517   2.71852   2.73308   2.73965   2.75925
 Alpha virt. eigenvalues --    2.77346   2.78584   2.79863   2.79913   2.82604
 Alpha virt. eigenvalues --    2.84377   2.85357   2.87024   2.88744   2.90970
 Alpha virt. eigenvalues --    2.92924   2.93386   2.94414   2.97124   2.98911
 Alpha virt. eigenvalues --    2.99957   3.03228   3.03660   3.05690   3.06217
 Alpha virt. eigenvalues --    3.09476   3.13849   3.18593   3.19123   3.20605
 Alpha virt. eigenvalues --    3.25102   3.25804   3.27458   3.29291   3.31163
 Alpha virt. eigenvalues --    3.33024   3.33860   3.37538   3.41004   3.42198
 Alpha virt. eigenvalues --    3.42756   3.45752   3.46819   3.49335   3.50752
 Alpha virt. eigenvalues --    3.51920   3.56191   3.59777   3.61350   3.73938
 Alpha virt. eigenvalues --    3.88479   4.24699   4.29972   4.30759   4.31629
 Alpha virt. eigenvalues --    4.33915   4.36744   4.37545   4.39169   4.40256
 Alpha virt. eigenvalues --    4.43770   4.44328   4.45786   4.49944   4.50340
 Alpha virt. eigenvalues --    4.51150   4.52501   4.54201   4.57601   4.64186
 Alpha virt. eigenvalues --    4.68540   4.83636   4.89226   4.90556
          Condensed to atoms (all electrons):
               1          2          3          4          5          6
     1  C    8.211692  -1.012818  -0.856002   0.191531   0.142192   0.006426
     2  C   -1.012818  11.576040  -1.596363  -0.727261   2.775658   0.035990
     3  C   -0.856002  -1.596363  11.165850  -1.579119   0.285088   0.114226
     4  C    0.191531  -0.727261  -1.579119  12.040272  -4.918863   0.358541
     5  C    0.142192   2.775658   0.285088  -4.918863  16.454066  -0.280714
     6  N    0.006426   0.035990   0.114226   0.358541  -0.280714   7.477445
     7  C   -0.109634  -0.265189   0.047720  -0.695588  -0.286342   0.008105
     8  N    0.003608   0.013146  -0.010453  -0.114992   0.124928  -0.258749
     9  N    0.005429   0.060410   0.018535   0.067728   0.170837  -0.018250
    10  C    0.096352  -1.241390   0.147014  -0.395600  -0.813155  -0.220667
    11  N   -0.025968  -0.099230   0.015207   0.050167  -0.037563  -0.032509
    12  C   -0.962664  -1.706256   1.910672  -1.215824  -2.445694   0.032306
    13  C    0.748165  -0.528525  -2.722016   2.680227  -2.061150   0.045876
    14  C   -1.299927  -1.035398  -0.721377   0.635807  -3.415689   0.073163
    15  C   -0.052993  -0.570426  -0.551277   0.333538  -0.074237   0.005160
    16  C   -0.075462   0.749902   0.590116  -0.314658   0.324103  -0.006704
    17  N   -0.006438  -0.049051  -0.014101   0.029425  -0.021935   0.000535
    18  C    0.185134  -0.403421  -0.221201   0.060651  -0.314234  -0.001516
    19  C   -0.215585   0.446728   0.299983  -0.038590   0.019759  -0.000846
    20  C    0.056103  -0.101788  -0.016660   0.003439  -0.004661  -0.000123
    21  C   -0.002227   0.018897   0.006157  -0.000630  -0.000004   0.000017
    22  C    0.006664  -0.015720  -0.013776  -0.000643   0.014233   0.000313
    23  C    0.102321  -0.225953  -0.195020   0.030828   0.003744   0.002143
    24  H    0.455894  -0.056587   0.021808  -0.006951   0.014392   0.000010
    25  H    0.426823  -0.101333   0.007636   0.010973  -0.005316  -0.000029
    26  H    0.624740  -0.194226  -0.095298   0.021549  -0.023549   0.000010
    27  H   -0.041813  -0.000629   0.192409   0.110164  -0.035201  -0.000211
    28  H   -0.006410  -0.028555  -0.048225   0.205222   0.142000  -0.021005
    29  H   -0.000003  -0.000046   0.000481   0.001788  -0.007122   0.028750
    30  H    0.000010   0.000315  -0.001161   0.008274  -0.004075  -0.010172
    31  H   -0.001185  -0.018699  -0.001107   0.005782  -0.021627   0.000570
    32  H    0.000628   0.012359  -0.000648  -0.002689   0.003082   0.000744
    33  H    0.024346  -0.013922   0.027690   0.003084  -0.009938   0.000127
    34  H    0.013197  -0.051372  -0.039715   0.015485  -0.031991   0.000291
    35  H   -0.016167   0.048975  -0.007835  -0.002849  -0.000572   0.000035
    36  H    0.007077  -0.009934  -0.002506   0.000151   0.000029  -0.000000
    37  H    0.000031  -0.000037  -0.000004  -0.000001   0.000002  -0.000000
    38  H   -0.000009   0.000023   0.000000  -0.000000  -0.000000   0.000000
    39  H   -0.000004   0.000022   0.000001  -0.000001   0.000006  -0.000000
    40  H   -0.000151  -0.001384   0.000284   0.000221   0.000312  -0.000008
               7          8          9         10         11         12
     1  C   -0.109634   0.003608   0.005429   0.096352  -0.025968  -0.962664
     2  C   -0.265189   0.013146   0.060410  -1.241390  -0.099230  -1.706256
     3  C    0.047720  -0.010453   0.018535   0.147014   0.015207   1.910672
     4  C   -0.695588  -0.114992   0.067728  -0.395600   0.050167  -1.215824
     5  C   -0.286342   0.124928   0.170837  -0.813155  -0.037563  -2.445694
     6  N    0.008105  -0.258749  -0.018250  -0.220667  -0.032509   0.032306
     7  C    6.677919   0.228122  -0.186229  -0.544658   0.144640   0.692416
     8  N    0.228122   7.112301  -0.220180   0.248816  -0.023550  -0.162896
     9  N   -0.186229  -0.220180   7.464086   0.144841  -0.342285   0.106165
    10  C   -0.544658   0.248816   0.144841  12.543998   0.062384  -3.606048
    11  N    0.144640  -0.023550  -0.342285   0.062384   7.328009  -0.141095
    12  C    0.692416  -0.162896   0.106165  -3.606048  -0.141095  12.765035
    13  C   -0.470183   0.000366   0.082847   1.014258   0.180613  -1.693637
    14  C    0.258345  -0.017115  -0.091320  -1.517303  -0.163381   2.217788
    15  C   -0.008238  -0.010249  -0.025183   0.894841   0.126946  -0.477457
    16  C   -0.038994   0.014034   0.044706  -0.694280  -0.096257   0.405464
    17  N   -0.002144  -0.000261   0.002643   0.006811   0.011643   0.002390
    18  C    0.006499   0.001142  -0.011675  -0.036095  -0.020083  -0.182395
    19  C   -0.009130   0.000446   0.003228   0.161675  -0.016780   0.013482
    20  C   -0.000466   0.000002  -0.000473   0.007305  -0.000967  -0.017800
    21  C   -0.000001   0.000002   0.000205  -0.004818  -0.000053   0.008019
    22  C    0.003491  -0.000254   0.000111  -0.032174   0.000519   0.048440
    23  C    0.017877  -0.001931  -0.005455  -0.258531   0.023544   0.131967
    24  H   -0.000135  -0.000000   0.000021  -0.002592  -0.000059  -0.003379
    25  H   -0.000177   0.000001  -0.000003   0.002596  -0.000069  -0.004455
    26  H   -0.000289   0.000000  -0.000011   0.001352  -0.000006  -0.017642
    27  H    0.000338  -0.000002   0.000029  -0.001101  -0.000010  -0.010290
    28  H   -0.008413   0.000132   0.000049   0.016816   0.000040   0.063229
    29  H    0.020689   0.303298  -0.009381  -0.010152  -0.000260   0.002154
    30  H    0.005084   0.311878   0.027282  -0.010755   0.000150   0.005239
    31  H    0.000425  -0.000016   0.019823   0.095252   0.298366  -0.077044
    32  H   -0.002771  -0.000280  -0.001231  -0.130870   0.310685   0.134019
    33  H   -0.000133   0.000004   0.000213  -0.001567  -0.001802   0.008069
    34  H   -0.003701   0.000051   0.002697   0.010111  -0.004442  -0.073918
    35  H    0.000451  -0.000001   0.000103  -0.011487  -0.000577  -0.008125
    36  H   -0.000002   0.000000   0.000001   0.000182  -0.000011  -0.000287
    37  H   -0.000000   0.000000  -0.000000   0.000005  -0.000000   0.000014
    38  H    0.000000  -0.000000   0.000000  -0.000009  -0.000000   0.000004
    39  H   -0.000001   0.000000   0.000000   0.000085  -0.000030   0.000012
    40  H   -0.000252   0.000001  -0.000076   0.007240   0.002423  -0.008263
              13         14         15         16         17         18
     1  C    0.748165  -1.299927  -0.052993  -0.075462  -0.006438   0.185134
     2  C   -0.528525  -1.035398  -0.570426   0.749902  -0.049051  -0.403421
     3  C   -2.722016  -0.721377  -0.551277   0.590116  -0.014101  -0.221201
     4  C    2.680227   0.635807   0.333538  -0.314658   0.029425   0.060651
     5  C   -2.061150  -3.415689  -0.074237   0.324103  -0.021935  -0.314234
     6  N    0.045876   0.073163   0.005160  -0.006704   0.000535  -0.001516
     7  C   -0.470183   0.258345  -0.008238  -0.038994  -0.002144   0.006499
     8  N    0.000366  -0.017115  -0.010249   0.014034  -0.000261   0.001142
     9  N    0.082847  -0.091320  -0.025183   0.044706   0.002643  -0.011675
    10  C    1.014258  -1.517303   0.894841  -0.694280   0.006811  -0.036095
    11  N    0.180613  -0.163381   0.126946  -0.096257   0.011643  -0.020083
    12  C   -1.693637   2.217788  -0.477457   0.405464   0.002390  -0.182395
    13  C   14.468769  -6.434687   2.863348  -0.979555   0.036485  -1.200011
    14  C   -6.434687  18.064995  -3.988849   0.234208  -0.045989   2.789277
    15  C    2.863348  -3.988849  20.548779  -7.238673   0.035302  -7.897540
    16  C   -0.979555   0.234208  -7.238673  13.286752   0.605795  -0.041257
    17  N    0.036485  -0.045989   0.035302   0.605795   6.753048   0.058810
    18  C   -1.200011   2.789277  -7.897540  -0.041257   0.058810  19.775016
    19  C    0.160493  -0.967883   3.043461   1.324033  -0.026434  -7.694647
    20  C    0.086741   0.133087  -0.678386  -0.429557   0.002015   1.438497
    21  C   -0.009844  -0.005372  -0.187244   0.210531  -0.004891  -0.783985
    22  C    0.019877  -0.072886   0.879236  -0.642250   0.014868  -0.663705
    23  C   -0.320142   0.824698  -2.028657  -0.531573  -0.087024   1.071646
    24  H   -0.021650  -0.093321   0.046453   0.013502  -0.000110  -0.024940
    25  H   -0.026126   0.042165  -0.018336   0.023442  -0.000299  -0.021058
    26  H    0.040249   0.000452  -0.004525  -0.007513   0.000029   0.011851
    27  H    0.067860   0.013244   0.000308   0.000309  -0.000014   0.000833
    28  H   -0.007091   0.002112  -0.000897   0.000966  -0.000018  -0.000116
    29  H   -0.001047   0.000347  -0.000077   0.000087  -0.000026  -0.000010
    30  H    0.001019  -0.000050   0.000056  -0.000052   0.000000   0.000006
    31  H   -0.011166   0.029086  -0.011432   0.009401  -0.000103   0.000476
    32  H   -0.005152   0.007287  -0.005540   0.006904  -0.000990  -0.003071
    33  H   -0.130908   0.421149  -0.126967   0.007589   0.000870   0.082059
    34  H   -0.117036   0.705409  -0.148959  -0.010967  -0.002931   0.085636
    35  H   -0.119081   0.187374   0.212124   0.041790  -0.009641  -0.103415
    36  H    0.010304   0.019763  -0.012273   0.004829  -0.000038   0.016103
    37  H    0.000421  -0.001360   0.001957  -0.000573   0.000011   0.021338
    38  H   -0.000170  -0.000537   0.001981   0.001572  -0.000012   0.003858
    39  H    0.000478  -0.000556   0.008449   0.000090  -0.000030   0.018319
    40  H    0.015037  -0.026313   0.101352  -0.094493   0.010772   0.153654
              19         20         21         22         23         24
     1  C   -0.215585   0.056103  -0.002227   0.006664   0.102321   0.455894
     2  C    0.446728  -0.101788   0.018897  -0.015720  -0.225953  -0.056587
     3  C    0.299983  -0.016660   0.006157  -0.013776  -0.195020   0.021808
     4  C   -0.038590   0.003439  -0.000630  -0.000643   0.030828  -0.006951
     5  C    0.019759  -0.004661  -0.000004   0.014233   0.003744   0.014392
     6  N   -0.000846  -0.000123   0.000017   0.000313   0.002143   0.000010
     7  C   -0.009130  -0.000466  -0.000001   0.003491   0.017877  -0.000135
     8  N    0.000446   0.000002   0.000002  -0.000254  -0.001931  -0.000000
     9  N    0.003228  -0.000473   0.000205   0.000111  -0.005455   0.000021
    10  C    0.161675   0.007305  -0.004818  -0.032174  -0.258531  -0.002592
    11  N   -0.016780  -0.000967  -0.000053   0.000519   0.023544  -0.000059
    12  C    0.013482  -0.017800   0.008019   0.048440   0.131967  -0.003379
    13  C    0.160493   0.086741  -0.009844   0.019877  -0.320142  -0.021650
    14  C   -0.967883   0.133087  -0.005372  -0.072886   0.824698  -0.093321
    15  C    3.043461  -0.678386  -0.187244   0.879236  -2.028657   0.046453
    16  C    1.324033  -0.429557   0.210531  -0.642250  -0.531573   0.013502
    17  N   -0.026434   0.002015  -0.004891   0.014868  -0.087024  -0.000110
    18  C   -7.694647   1.438497  -0.783985  -0.663705   1.071646  -0.024940
    19  C   23.612313  -4.238050   0.693025  -0.444098 -10.411036   0.000277
    20  C   -4.238050   7.835200   0.258811   0.072176   1.480055  -0.000482
    21  C    0.693025   0.258811   5.319922   0.330439  -0.039152   0.000190
    22  C   -0.444098   0.072176   0.330439   8.270278  -1.884882  -0.000206
    23  C  -10.411036   1.480055  -0.039152  -1.884882  18.313670   0.001899
    24  H    0.000277  -0.000482   0.000190  -0.000206   0.001899   0.557133
    25  H    0.006202   0.003091  -0.000015  -0.000202  -0.005000  -0.035592
    26  H   -0.002929  -0.000016  -0.000036   0.000084   0.000603  -0.024967
    27  H   -0.000123   0.000017  -0.000000   0.000002   0.000084   0.000194
    28  H    0.000027   0.000001   0.000000  -0.000000  -0.000020   0.000002
    29  H   -0.000000   0.000000  -0.000000   0.000001   0.000006  -0.000000
    30  H   -0.000000  -0.000000   0.000000  -0.000000  -0.000000  -0.000000
    31  H   -0.000589  -0.000715   0.000332  -0.000254   0.002212  -0.000002
    32  H   -0.000160   0.000066  -0.000008   0.000516   0.002082  -0.000000
    33  H   -0.023061  -0.012789   0.004930   0.000880   0.044654   0.004067
    34  H   -0.017099   0.009740  -0.004877   0.000026  -0.026860   0.000223
    35  H    0.117919   0.012057  -0.000857   0.007177  -0.087500  -0.000317
    36  H    0.150876   0.079581  -0.004581   0.013969   0.019054  -0.000099
    37  H    0.003012   0.273481   0.006809   0.010325  -0.005932  -0.000000
    38  H    0.014804   0.016092   0.267144  -0.000189   0.005413  -0.000000
    39  H    0.005953   0.005248   0.004427   0.311278  -0.043339  -0.000000
    40  H    0.062839   0.008057  -0.024276  -0.073790   0.168916  -0.000000
              25         26         27         28         29         30
     1  C    0.426823   0.624740  -0.041813  -0.006410  -0.000003   0.000010
     2  C   -0.101333  -0.194226  -0.000629  -0.028555  -0.000046   0.000315
     3  C    0.007636  -0.095298   0.192409  -0.048225   0.000481  -0.001161
     4  C    0.010973   0.021549   0.110164   0.205222   0.001788   0.008274
     5  C   -0.005316  -0.023549  -0.035201   0.142000  -0.007122  -0.004075
     6  N   -0.000029   0.000010  -0.000211  -0.021005   0.028750  -0.010172
     7  C   -0.000177  -0.000289   0.000338  -0.008413   0.020689   0.005084
     8  N    0.000001   0.000000  -0.000002   0.000132   0.303298   0.311878
     9  N   -0.000003  -0.000011   0.000029   0.000049  -0.009381   0.027282
    10  C    0.002596   0.001352  -0.001101   0.016816  -0.010152  -0.010755
    11  N   -0.000069  -0.000006  -0.000010   0.000040  -0.000260   0.000150
    12  C   -0.004455  -0.017642  -0.010290   0.063229   0.002154   0.005239
    13  C   -0.026126   0.040249   0.067860  -0.007091  -0.001047   0.001019
    14  C    0.042165   0.000452   0.013244   0.002112   0.000347  -0.000050
    15  C   -0.018336  -0.004525   0.000308  -0.000897  -0.000077   0.000056
    16  C    0.023442  -0.007513   0.000309   0.000966   0.000087  -0.000052
    17  N   -0.000299   0.000029  -0.000014  -0.000018  -0.000026   0.000000
    18  C   -0.021058   0.011851   0.000833  -0.000116  -0.000010   0.000006
    19  C    0.006202  -0.002929  -0.000123   0.000027  -0.000000  -0.000000
    20  C    0.003091  -0.000016   0.000017   0.000001   0.000000  -0.000000
    21  C   -0.000015  -0.000036  -0.000000   0.000000  -0.000000   0.000000
    22  C   -0.000202   0.000084   0.000002  -0.000000   0.000001  -0.000000
    23  C   -0.005000   0.000603   0.000084  -0.000020   0.000006  -0.000000
    24  H   -0.035592  -0.024967   0.000194   0.000002  -0.000000  -0.000000
    25  H    0.570585  -0.026136   0.000224   0.000002   0.000000  -0.000000
    26  H   -0.026136   0.541257   0.004056  -0.000009   0.000000   0.000000
    27  H    0.000224   0.004056   0.582665  -0.004969   0.000000  -0.000000
    28  H    0.000002  -0.000009  -0.004969   0.556958   0.000000  -0.000002
    29  H    0.000000   0.000000   0.000000   0.000000   0.395007  -0.025806
    30  H   -0.000000   0.000000  -0.000000  -0.000002  -0.025806   0.388553
    31  H    0.000000   0.000000   0.000000   0.000000   0.000001  -0.000000
    32  H    0.000000  -0.000000   0.000000  -0.000000  -0.000001   0.000001
    33  H   -0.002350   0.000217  -0.000005   0.000000  -0.000000   0.000000
    34  H   -0.000040  -0.000004   0.000002  -0.000000  -0.000000   0.000000
    35  H    0.003617   0.000013   0.000008  -0.000000   0.000000  -0.000000
    36  H    0.000393   0.000007   0.000000  -0.000000   0.000000  -0.000000
    37  H   -0.000000  -0.000000   0.000000  -0.000000  -0.000000  -0.000000
    38  H   -0.000000  -0.000000   0.000000   0.000000   0.000000   0.000000
    39  H    0.000000   0.000000  -0.000000   0.000000  -0.000000  -0.000000
    40  H   -0.000000   0.000000  -0.000000  -0.000000  -0.000000   0.000000
              31         32         33         34         35         36
     1  C   -0.001185   0.000628   0.024346   0.013197  -0.016167   0.007077
     2  C   -0.018699   0.012359  -0.013922  -0.051372   0.048975  -0.009934
     3  C   -0.001107  -0.000648   0.027690  -0.039715  -0.007835  -0.002506
     4  C    0.005782  -0.002689   0.003084   0.015485  -0.002849   0.000151
     5  C   -0.021627   0.003082  -0.009938  -0.031991  -0.000572   0.000029
     6  N    0.000570   0.000744   0.000127   0.000291   0.000035  -0.000000
     7  C    0.000425  -0.002771  -0.000133  -0.003701   0.000451  -0.000002
     8  N   -0.000016  -0.000280   0.000004   0.000051  -0.000001   0.000000
     9  N    0.019823  -0.001231   0.000213   0.002697   0.000103   0.000001
    10  C    0.095252  -0.130870  -0.001567   0.010111  -0.011487   0.000182
    11  N    0.298366   0.310685  -0.001802  -0.004442  -0.000577  -0.000011
    12  C   -0.077044   0.134019   0.008069  -0.073918  -0.008125  -0.000287
    13  C   -0.011166  -0.005152  -0.130908  -0.117036  -0.119081   0.010304
    14  C    0.029086   0.007287   0.421149   0.705409   0.187374   0.019763
    15  C   -0.011432  -0.005540  -0.126967  -0.148959   0.212124  -0.012273
    16  C    0.009401   0.006904   0.007589  -0.010967   0.041790   0.004829
    17  N   -0.000103  -0.000990   0.000870  -0.002931  -0.009641  -0.000038
    18  C    0.000476  -0.003071   0.082059   0.085636  -0.103415   0.016103
    19  C   -0.000589  -0.000160  -0.023061  -0.017099   0.117919   0.150876
    20  C   -0.000715   0.000066  -0.012789   0.009740   0.012057   0.079581
    21  C    0.000332  -0.000008   0.004930  -0.004877  -0.000857  -0.004581
    22  C   -0.000254   0.000516   0.000880   0.000026   0.007177   0.013969
    23  C    0.002212   0.002082   0.044654  -0.026860  -0.087500   0.019054
    24  H   -0.000002  -0.000000   0.004067   0.000223  -0.000317  -0.000099
    25  H    0.000000   0.000000  -0.002350  -0.000040   0.003617   0.000393
    26  H    0.000000  -0.000000   0.000217  -0.000004   0.000013   0.000007
    27  H    0.000000   0.000000  -0.000005   0.000002   0.000008   0.000000
    28  H    0.000000  -0.000000   0.000000  -0.000000  -0.000000  -0.000000
    29  H    0.000001  -0.000001  -0.000000  -0.000000   0.000000   0.000000
    30  H   -0.000000   0.000001   0.000000   0.000000  -0.000000  -0.000000
    31  H    0.416913  -0.025482   0.000157   0.000915   0.000002   0.000000
    32  H   -0.025482   0.371868  -0.000009   0.000963   0.000000   0.000000
    33  H    0.000157  -0.000009   0.583112  -0.031882  -0.006551   0.000041
    34  H    0.000915   0.000963  -0.031882   0.568233   0.005171   0.000001
    35  H    0.000002   0.000000  -0.006551   0.005171   0.574079   0.004128
    36  H    0.000000   0.000000   0.000041   0.000001   0.004128   0.595283
    37  H   -0.000000  -0.000000   0.000002   0.000000  -0.000006  -0.006023
    38  H    0.000000  -0.000000  -0.000000   0.000000  -0.000000  -0.000162
    39  H    0.000000   0.000000   0.000000   0.000002   0.000002   0.000015
    40  H   -0.000011  -0.000011   0.000109   0.000252   0.000037  -0.000163
              37         38         39         40
     1  C    0.000031  -0.000009  -0.000004  -0.000151
     2  C   -0.000037   0.000023   0.000022  -0.001384
     3  C   -0.000004   0.000000   0.000001   0.000284
     4  C   -0.000001  -0.000000  -0.000001   0.000221
     5  C    0.000002  -0.000000   0.000006   0.000312
     6  N   -0.000000   0.000000  -0.000000  -0.000008
     7  C   -0.000000   0.000000  -0.000001  -0.000252
     8  N    0.000000  -0.000000   0.000000   0.000001
     9  N   -0.000000   0.000000   0.000000  -0.000076
    10  C    0.000005  -0.000009   0.000085   0.007240
    11  N   -0.000000  -0.000000  -0.000030   0.002423
    12  C    0.000014   0.000004   0.000012  -0.008263
    13  C    0.000421  -0.000170   0.000478   0.015037
    14  C   -0.001360  -0.000537  -0.000556  -0.026313
    15  C    0.001957   0.001981   0.008449   0.101352
    16  C   -0.000573   0.001572   0.000090  -0.094493
    17  N    0.000011  -0.000012  -0.000030   0.010772
    18  C    0.021338   0.003858   0.018319   0.153654
    19  C    0.003012   0.014804   0.005953   0.062839
    20  C    0.273481   0.016092   0.005248   0.008057
    21  C    0.006809   0.267144   0.004427  -0.024276
    22  C    0.010325  -0.000189   0.311278  -0.073790
    23  C   -0.005932   0.005413  -0.043339   0.168916
    24  H   -0.000000  -0.000000  -0.000000  -0.000000
    25  H   -0.000000  -0.000000   0.000000  -0.000000
    26  H   -0.000000  -0.000000   0.000000   0.000000
    27  H    0.000000   0.000000  -0.000000  -0.000000
    28  H   -0.000000   0.000000   0.000000  -0.000000
    29  H   -0.000000   0.000000  -0.000000  -0.000000
    30  H   -0.000000   0.000000  -0.000000   0.000000
    31  H   -0.000000   0.000000   0.000000  -0.000011
    32  H   -0.000000  -0.000000   0.000000  -0.000011
    33  H    0.000002  -0.000000   0.000000   0.000109
    34  H    0.000000   0.000000   0.000002   0.000252
    35  H   -0.000006  -0.000000   0.000002   0.000037
    36  H   -0.006023  -0.000162   0.000015  -0.000163
    37  H    0.573144  -0.005573  -0.000166   0.000015
    38  H   -0.005573   0.573609  -0.005548  -0.000155
    39  H   -0.000166  -0.005548   0.570198  -0.005847
    40  H    0.000015  -0.000155  -0.005847   0.565952
 Mulliken charges:
               1
     1  C   -0.622906
     2  C    0.317046
     3  C   -0.157015
     4  C   -0.850585
     5  C    0.339204
     6  N   -0.339285
     7  C    0.520549
     8  N   -0.541349
     9  N   -0.310239
    10  C    0.071321
    11  N   -0.548347
    12  C    0.268284
    13  C    0.335747
    14  C   -0.760443
    15  C    1.015124
    16  C   -0.697307
    17  N   -0.298972
    18  C   -0.156431
    19  C   -0.033495
    20  C   -0.277930
    21  C   -0.056986
    22  C   -0.159875
    23  C   -0.089408
    24  H    0.155328
    25  H    0.148786
    26  H    0.150688
    27  H    0.121621
    28  H    0.138175
    29  H    0.301321
    30  H    0.304205
    31  H    0.289719
    32  H    0.327707
    33  H    0.148515
    34  H    0.147388
    35  H    0.159921
    36  H    0.114295
    37  H    0.129107
    38  H    0.127864
    39  H    0.130936
    40  H    0.137722
 Sum of Mulliken charges =  -0.00000
 Mulliken charges with hydrogens summed into heavy atoms:
               1
     1  C   -0.168104
     2  C    0.317046
     3  C   -0.035394
     4  C   -0.712411
     5  C    0.339204
     6  N   -0.339285
     7  C    0.520549
     8  N    0.064178
     9  N   -0.310239
    10  C    0.071321
    11  N    0.069078
    12  C    0.268284
    13  C    0.335747
    14  C   -0.464540
    15  C    1.175045
    16  C   -0.697307
    17  N   -0.298972
    18  C   -0.156431
    19  C    0.080799
    20  C   -0.148823
    21  C    0.070878
    22  C   -0.028938
    23  C    0.048314
 Electronic spatial extent (au):  <R**2>=           7997.0678
 Charge=             -0.0000 electrons
 Dipole moment (field-independent basis, Debye):
    X=             -3.2332    Y=              1.5196    Z=             -3.3505  Tot=              4.8978
 Quadrupole moment (field-independent basis, Debye-Ang):
   XX=           -127.8139   YY=           -123.0366   ZZ=           -140.5698
   XY=             -6.4520   XZ=              6.6833   YZ=              7.3097
 Traceless Quadrupole moment (field-independent basis, Debye-Ang):
   XX=              2.6596   YY=              7.4368   ZZ=            -10.0964
   XY=             -6.4520   XZ=              6.6833   YZ=              7.3097
 Octapole moment (field-independent basis, Debye-Ang**2):
  XXX=            -54.8141  YYY=             -7.1029  ZZZ=            -39.9194  XYY=             18.3271
  XXY=            -42.5044  XXZ=             30.6294  XZZ=             23.6279  YZZ=             -2.9934
  YYZ=             -6.5549  XYZ=            -19.1827
 Hexadecapole moment (field-independent basis, Debye-Ang**3):
 XXXX=          -7451.7584 YYYY=          -2197.7952 ZZZZ=           -725.3542 XXXY=           -210.8498
 XXXZ=            320.9567 YYYX=            -63.9788 YYYZ=             44.5501 ZZZX=              5.7610
 ZZZY=             67.5542 XXYY=          -1511.9637 XXZZ=          -1518.0244 YYZZ=           -530.8470
 XXYZ=            -55.7097 YYXZ=             63.5147 ZZXY=            -54.6268
 N-N= 1.794194995699D+03 E-N=-5.837268611771D+03  KE= 9.606960091309D+02
 Unable to Open any file for archive entry.
 1\1\GINC-N1\SP\RB3LYP TD-FC\6-31+G(d,p)\C18H17N5\HPCMGAC13\29-Jul-2025
 \0\\# td=(50-50,nstates=3) b3lyp/6-31+g(d,p) geom=connectivity\\Title 
 Card Required\\0,1\C,0,-0.45228,3.365741,-0.4172\C,0,0.713726,2.406089
 ,-0.282793\C,0,1.960698,2.93733,0.134183\C,0,3.054128,2.137399,0.36241
 \C,0,2.983012,0.745911,0.106156\N,0,4.071973,-0.014517,0.403778\C,0,3.
 971075,-1.30512,0.13611\N,0,4.999296,-2.129052,0.509886\N,0,2.972525,-
 1.89729,-0.569463\C,0,1.923923,-1.162572,-0.890567\N,0,1.005248,-1.789
 968,-1.714756\C,0,1.772436,0.206959,-0.441025\C,0,0.600162,1.032786,-0
 .531966\C,0,-0.791973,0.453511,-0.731946\C,0,-1.588751,0.28047,0.61117
 4\C,0,-0.900145,-0.648386,1.522165\N,0,-0.366847,-1.384019,2.245676\C,
 0,-3.025514,-0.161174,0.339689\C,0,-4.047858,0.795666,0.308291\C,0,-5.
 360462,0.425096,0.004342\C,0,-5.664362,-0.910238,-0.270634\C,0,-4.6496
 26,-1.87109,-0.237243\C,0,-3.338159,-1.499598,0.066118\H,0,-1.006614,3
 .223685,-1.351213\H,0,-1.175151,3.275997,0.40368\H,0,-0.091982,4.39797
 4,-0.406533\H,0,2.035191,4.006991,0.314168\H,0,3.988582,2.537132,0.741
 563\H,0,4.820784,-3.121188,0.501258\H,0,5.643185,-1.768926,1.197303\H,
 0,0.574359,-1.221794,-2.430244\H,0,1.358214,-2.67409,-2.062229\H,0,-1.
 398134,1.110274,-1.362112\H,0,-0.781877,-0.525458,-1.201748\H,0,-1.616
 552,1.246709,1.125788\H,0,-3.820093,1.835906,0.528429\H,0,-6.143293,1.
 177872,-0.010238\H,0,-6.684599,-1.20142,-0.502381\H,0,-4.879144,-2.913
 048,-0.440414\H,0,-2.55842,-2.255379,0.105491\\Version=ES64L-G16RevC.0
 2\State=1-A\HF=-969.9965379\RMSD=7.380e-09\PG=C01 [X(C18H17N5)]\\@
 The archive entry for this job was punched.


 BLACK HOLES SUCK.
 Job cpu time:       0 days  3 hours  7 minutes 19.7 seconds.
 Elapsed time:       0 days  0 hours 23 minutes 46.7 seconds.
 File lengths (MBytes):  RWF=   1443 Int=      0 D2E=      0 Chk=     70 Scr=      2
 Normal termination of Gaussian 16 at Tue Jul 29 15:31:26 2025.
