 Entering Gaussian System, Link 0=g16
 Input=M2849e.gjf
 Output=M2849e.log
 Initial command:
 /hpc/softwares/Gaussian/g16/l1.exe "/hpc/home/hpcmgac13/pbs.12365.admin1.x8z/Gau-1718859.inp" -scrdir="/hpc/home/hpcmgac13/pbs.12365.admin1.x8z/"
 Default linda workers: n1
 Default is to use   8 SMP processors on each worker.
 Entering Link 1 = /hpc/softwares/Gaussian/g16/l1.exe PID=   1718860.
  
 Copyright (c) 1988-2021, Gaussian, Inc.  All Rights Reserved.
  
 This is part of the Gaussian(R) 16 program.  It is based on
 the Gaussian(R) 09 system (copyright 2009, Gaussian, Inc.),
 the Gaussian(R) 03 system (copyright 2003, Gaussian, Inc.),
 the Gaussian(R) 98 system (copyright 1998, Gaussian, Inc.),
 the Gaussian(R) 94 system (copyright 1995, Gaussian, Inc.),
 the Gaussian 92(TM) system (copyright 1992, Gaussian, Inc.),
 the Gaussian 90(TM) system (copyright 1990, Gaussian, Inc.),
 the Gaussian 88(TM) system (copyright 1988, Gaussian, Inc.),
 the Gaussian 86(TM) system (copyright 1986, Carnegie Mellon
 University), and the Gaussian 82(TM) system (copyright 1983,
 Carnegie Mellon University). Gaussian is a federally registered
 trademark of Gaussian, Inc.
  
 This software contains proprietary and confidential information,
 including trade secrets, belonging to Gaussian, Inc.
  
 This software is provided under written license and may be
 used, copied, transmitted, or stored only in accord with that
 written license.
  
 The following legend is applicable only to US Government
 contracts under FAR:
  
                    RESTRICTED RIGHTS LEGEND
  
 Use, reproduction and disclosure by the US Government is
 subject to restrictions as set forth in subparagraphs (a)
 and (c) of the Commercial Computer Software - Restricted
 Rights clause in FAR 52.227-19.
  
 Gaussian, Inc.
 340 Quinnipiac St., Bldg. 40, Wallingford CT 06492
  
  
 ---------------------------------------------------------------
 Warning -- This program may not be used in any manner that
 competes with the business of Gaussian, Inc. or will provide
 assistance to any competitor of Gaussian, Inc.  The licensee
 of this program is prohibited from giving any competitor of
 Gaussian, Inc. access to this program.  By using this program,
 the user acknowledges that Gaussian, Inc. is engaged in the
 business of creating and licensing software in the field of
 computational chemistry and represents and warrants to the
 licensee that it is not a competitor of Gaussian, Inc. and that
 it will not use this program in any manner prohibited above.
 ---------------------------------------------------------------
  

 Cite this work as:
 Gaussian 16, Revision C.02,
 M. J. Frisch, G. W. Trucks, H. B. Schlegel, G. E. Scuseria, 
 M. A. Robb, J. R. Cheeseman, G. Scalmani, V. Barone, 
 G. A. Petersson, H. Nakatsuji, X. Li, M. Caricato, A. V. Marenich, 
 J. Bloino, B. G. Janesko, R. Gomperts, B. Mennucci, H. P. Hratchian, 
 J. V. Ortiz, A. F. Izmaylov, J. L. Sonnenberg, D. Williams-Young, 
 F. Ding, F. Lipparini, F. Egidi, J. Goings, B. Peng, A. Petrone, 
 T. Henderson, D. Ranasinghe, V. G. Zakrzewski, J. Gao, N. Rega, 
 G. Zheng, W. Liang, M. Hada, M. Ehara, K. Toyota, R. Fukuda, 
 J. Hasegawa, M. Ishida, T. Nakajima, Y. Honda, O. Kitao, H. Nakai, 
 T. Vreven, K. Throssell, J. A. Montgomery, Jr., J. E. Peralta, 
 F. Ogliaro, M. J. Bearpark, J. J. Heyd, E. N. Brothers, K. N. Kudin, 
 V. N. Staroverov, T. A. Keith, R. Kobayashi, J. Normand, 
 K. Raghavachari, A. P. Rendell, J. C. Burant, S. S. Iyengar, 
 J. Tomasi, M. Cossi, J. M. Millam, M. Klene, C. Adamo, R. Cammi, 
 J. W. Ochterski, R. L. Martin, K. Morokuma, O. Farkas, 
 J. B. Foresman, and D. J. Fox, Gaussian, Inc., Wallingford CT, 2019.
 
 ******************************************
 Gaussian 16:  ES64L-G16RevC.02  7-Dec-2021
                29-Jul-2025 
 ******************************************
 SetLPE:    new flags="-opt 'Tsnet.Node.lindarsharg: ssh'  -nodelist 'n1' -env GAUSS_MDEF=2147483648 -env GAUSS_EXEDIR="/hpc/softwares/Gaussian/g16/bsd:/hpc/softwares/Gaussian/g16""
 Will use up to    1 processors via Linda.
 ----------------------------------------------------------
 # td=(50-50,nstates=3) b3lyp/6-31+g(d,p) geom=connectivity
 ----------------------------------------------------------
 1/38=1,57=2,172=1/1;
 2/12=2,17=6,18=5,40=1/2;
 3/5=1,6=6,7=111,11=9,25=1,30=1,74=-5/1,2,3,8;
 4//1;
 5/5=2,38=5/2;
 8/6=1,10=2,108=3/1;
 9/41=3,42=1,48=2,70=2/14;
 6/7=2,8=2,9=2,10=2/1;
 99/5=1,9=1/99;
 -------------------
 Title Card Required
 -------------------
 Symbolic Z-matrix:
 Charge =  0 Multiplicity = 1
 C                    -1.32626   2.89566   0.83143 
 C                    -1.94894   1.97604   0.0697 
 C                    -2.9714    2.41307  -0.84727 
 N                    -3.78374   2.76632  -1.6024 
 C                    -1.67736   0.51568   0.10808 
 C                    -2.64754  -0.43707   0.244 
 C                    -4.1355   -0.29293   0.45613 
 C                    -4.93582  -0.87785  -0.72643 
 C                    -4.56921  -0.92881   1.79526 
 C                    -1.95437  -1.73666   0.1816 
 O                    -2.35456  -2.88726   0.26585 
 C                    -0.47451  -1.44109  -0.03388 
 O                     0.37018  -2.4542   -0.10238 
 C                    -0.28854  -0.09641  -0.07804 
 C                     0.99407   0.58372  -0.2274 
 O                     1.21568   1.74688   0.10574 
 C                     2.134    -0.17729  -0.93903 
 O                     1.88107  -0.75765  -1.98737 
 C                     3.48639  -0.10263  -0.38112 
 C                     4.57644  -0.79601  -0.87911 
 C                     5.75389  -0.60521  -0.11716 
 C                     5.54949   0.23062   0.95924 
 S                     3.92862   0.80684   1.0484 
 H                    -0.53494   2.61696   1.51393 
 H                    -1.59986   3.94338   0.76588 
 H                    -4.36197   0.77625   0.51396 
 H                    -6.00812  -0.72998  -0.56054 
 H                    -4.67037  -0.38447  -1.66611 
 H                    -4.75448  -1.95217  -0.83143 
 H                    -5.63913  -0.75957   1.95643 
 H                    -4.02713  -0.48879   2.63914 
 H                    -4.39318  -2.0086    1.79727 
 H                    -0.15521  -3.27625  -0.02292 
 H                     4.49873  -1.42082  -1.76084 
 H                     6.70967  -1.0612   -0.34697 
 H                     6.27621   0.55259   1.69381 
 
                          Input orientation:                          
 ---------------------------------------------------------------------
 Center     Atomic      Atomic             Coordinates (Angstroms)
 Number     Number       Type             X           Y           Z
 ---------------------------------------------------------------------
      1          6           0       -1.326259    2.895656    0.831428
      2          6           0       -1.948937    1.976042    0.069703
      3          6           0       -2.971399    2.413072   -0.847269
      4          7           0       -3.783740    2.766320   -1.602400
      5          6           0       -1.677362    0.515675    0.108081
      6          6           0       -2.647542   -0.437073    0.243998
      7          6           0       -4.135497   -0.292934    0.456128
      8          6           0       -4.935816   -0.877853   -0.726430
      9          6           0       -4.569214   -0.928814    1.795255
     10          6           0       -1.954372   -1.736656    0.181602
     11          8           0       -2.354557   -2.887262    0.265854
     12          6           0       -0.474505   -1.441094   -0.033875
     13          8           0        0.370184   -2.454197   -0.102382
     14          6           0       -0.288540   -0.096410   -0.078040
     15          6           0        0.994074    0.583724   -0.227400
     16          8           0        1.215684    1.746876    0.105735
     17          6           0        2.133998   -0.177288   -0.939025
     18          8           0        1.881065   -0.757651   -1.987367
     19          6           0        3.486389   -0.102634   -0.381120
     20          6           0        4.576435   -0.796014   -0.879112
     21          6           0        5.753887   -0.605205   -0.117158
     22          6           0        5.549488    0.230615    0.959241
     23         16           0        3.928623    0.806841    1.048402
     24          1           0       -0.534936    2.616964    1.513929
     25          1           0       -1.599860    3.943382    0.765880
     26          1           0       -4.361967    0.776245    0.513959
     27          1           0       -6.008121   -0.729980   -0.560542
     28          1           0       -4.670366   -0.384473   -1.666106
     29          1           0       -4.754481   -1.952167   -0.831429
     30          1           0       -5.639130   -0.759570    1.956425
     31          1           0       -4.027126   -0.488790    2.639135
     32          1           0       -4.393181   -2.008604    1.797266
     33          1           0       -0.155208   -3.276254   -0.022919
     34          1           0        4.498731   -1.420824   -1.760837
     35          1           0        6.709666   -1.061204   -0.346971
     36          1           0        6.276208    0.552594    1.693813
 ---------------------------------------------------------------------
                    Distance matrix (angstroms):
                    1          2          3          4          5
     1  C    0.000000
     2  C    1.346716   0.000000
     3  C    2.399458   1.441271   0.000000
     4  N    3.461136   2.605181   1.164004   0.000000
     5  C    2.512133   1.485900   2.487437   3.525334   0.000000
     6  C    3.632898   2.518244   3.069051   3.868056   1.366547
     7  C    4.266119   3.174684   3.221248   3.704093   2.611018
     8  C    5.449330   4.207136   3.834543   3.921046   3.640859
     9  C    5.106103   4.275695   4.550181   5.080851   3.646356
    10  C    4.719652   3.714388   4.394674   5.177455   2.270492
    11  O    5.900798   4.884130   5.450970   6.123392   3.473250
    12  C    4.503514   3.723103   4.663763   5.577960   2.301296
    13  O    5.689538   5.003494   5.950743   6.838051   3.613430
    14  C    3.294913   2.659662   3.753258   4.768157   1.529090
    15  C    3.442396   3.269271   4.410865   5.429720   2.693278
    16  O    2.882325   3.173112   4.345538   5.380635   3.144134
    17  C    4.954883   4.724904   5.725684   6.642629   4.012866
    18  O    5.619536   5.135517   5.907598   6.682558   4.321419
    19  C    5.798413   5.836686   6.946157   7.910575   5.223595
    20  C    7.169112   7.152973   8.201771   9.116243   6.465683
    21  C    7.955144   8.125962   9.261408  10.224454   7.518681
    22  C    7.375275   7.750108   8.979539  10.005046   7.282382
    23  S    5.658976   6.072116   7.333747   8.387303   5.691753
    24  H    1.081512   2.120370   3.398997   4.504280   2.774340
    25  H    1.084843   2.115879   2.612512   3.429804   3.491115
    26  H    3.715940   2.731225   2.542798   2.962047   2.727588
    27  H    6.082980   4.919018   4.379802   4.272874   4.555676
    28  H    5.308481   3.998905   3.373906   3.273784   3.593895
    29  H    6.165970   4.910595   4.715394   4.878612   4.054822
    30  H    5.764300   4.965966   5.004313   5.342247   4.553925
    31  H    4.692224   4.122650   4.657293   5.352158   3.596745
    32  H    5.864352   4.983594   5.344740   5.893136   4.074433
    33  H    6.339853   5.550915   6.401478   7.223137   4.088134
    34  H    7.699503   7.514120   8.446076   9.282058   6.736988
    35  H    9.034459   9.185308  10.297762  11.240001   8.546102
    36  H    8.001947   8.503937   9.769171  10.815182   8.110190
                    6          7          8          9         10
     6  C    0.000000
     7  C    1.509896   0.000000
     8  C    2.524325   1.543076   0.000000
     9  C    2.518140   1.544576   2.548703   0.000000
    10  C    1.474210   2.630020   3.232812   3.177087   0.000000
    11  O    2.467741   3.152537   3.418370   3.328557   1.221123
    12  C    2.409847   3.867976   4.549744   4.513844   1.524399
    13  O    3.646291   5.028335   5.570272   5.506857   2.449300
    14  C    2.405130   3.888835   4.756915   4.746188   2.352194
    15  C    3.811248   5.248642   6.127710   6.109753   3.774226
    16  O    4.439962   5.737485   6.739633   6.593849   4.710627
    17  C    4.932561   6.423892   7.107620   7.278333   4.516880
    18  O    5.058660   6.510426   6.933562   7.479547   4.513696
    19  C    6.174766   7.670094   8.464853   8.385220   5.708639
    20  C    7.319567   8.828007   9.513828   9.529573   6.682916
    21  C    8.410869   9.910907  10.710523  10.503736   7.796582
    22  C    8.255221   9.712166  10.677630  10.219165   7.796332
    23  S    6.740945   8.160290   9.196005   8.705373   6.467639
    24  H    3.924662   4.748735   6.049851   5.378391   4.769057
    25  H    4.534135   4.946895   6.049785   5.797842   5.721004
    26  H    2.117610   1.094430   2.145672   2.142871   3.495947
    27  H    3.467935   2.175166   1.095091   2.767629   4.242294
    28  H    2.782639   2.190512   1.094019   3.505361   3.552330
    29  H    2.809136   2.189520   1.094558   2.825074   2.985513
    30  H    3.462082   2.174753   2.776032   1.095144   4.205013
    31  H    2.764527   2.194453   3.507722   1.095269   3.448615
    32  H    2.815956   2.192846   2.818172   1.094047   2.938046
    33  H    3.787337   4.997238   5.394578   5.319744   2.376801
    34  H    7.487079   8.985375   9.506603   9.752717   6.746507
    35  H    9.396602  10.901962  11.653105  11.481280   8.706387
    36  H    9.094763  10.519049  11.559119  10.946599   8.675822
                   11         12         13         14         15
    11  O    0.000000
    12  C    2.390781   0.000000
    13  O    2.783407   1.320822   0.000000
    14  C    3.489347   1.358200   2.448197   0.000000
    15  C    4.848131   2.508797   3.103842   1.459448   0.000000
    16  O    5.852136   3.611009   4.290361   2.386245   1.230046
    17  C    5.379853   3.036575   2.999221   2.572261   1.544337
    18  O    5.249071   3.135592   2.951982   2.964786   2.384014
    19  C    6.503028   4.195323   3.913857   3.787081   2.589662
    20  C    7.329592   5.161642   4.587530   4.979874   3.893805
    21  C    8.432161   6.284784   5.692385   6.063937   4.907293
    22  C    8.525014   6.330038   5.929625   5.938474   4.720657
    23  S    7.330561   5.060837   4.961971   4.457488   3.207652
    24  H    5.930027   4.343637   5.398924   3.155547   3.082882
    25  H    6.890377   5.558652   6.750109   4.330321   4.359174
    26  H    4.184798   4.508778   5.762715   4.207707   5.410532
    27  H    4.322653   5.603924   6.623112   5.774758   7.132148
    28  H    3.919106   4.624487   5.668874   4.669618   5.923948
    29  H    2.799655   4.383547   5.200551   4.894493   6.312011
    30  H    4.263042   5.576659   6.574367   5.762607   7.111464
    31  H    3.765982   4.546755   5.542118   4.638322   5.880456
    32  H    2.696896   4.362473   5.147510   4.901157   6.312048
    33  H    2.252075   1.862762   0.978841   3.183115   4.032628
    34  H    7.295579   5.264588   4.567629   5.244411   4.318827
    35  H    9.266616   7.201018   6.495328   7.069515   5.948788
    36  H    9.400095   7.247884   6.866457   6.830563   5.620762
                   16         17         18         19         20
    16  O    0.000000
    17  C    2.374285   0.000000
    18  O    3.331135   1.224670   0.000000
    19  C    2.968807   1.464852   2.363502   0.000000
    20  C    4.327916   2.520300   2.914570   1.384548   0.000000
    21  C    5.116371   3.736599   4.303449   2.337477   1.415406
    22  C    4.670051   3.928787   4.807962   2.482740   2.319556
    23  S    3.021974   2.852903   3.981962   1.751071   2.589231
    24  H    2.409302   4.576902   5.429932   5.211380   6.595542
    25  H    3.631490   5.816212   6.465054   6.599681   7.957040
    26  H    5.676175   6.724429   6.898182   7.947974   9.181921
    27  H    7.665644   8.169628   8.017222   9.516905  10.589555
    28  H    6.505971   6.846236   6.569910   8.262159   9.289352
    29  H    7.085483   7.114275   6.840580   8.457866   9.402391
    30  H    7.529661   8.315299   8.491574   9.443028  10.601857
    31  H    6.237257   7.131599   7.508897   8.107032   9.300199
    32  H    6.958755   7.310614   7.433337   8.394386   9.438611
    33  H    5.208429   3.960215   3.787984   4.843697   5.410462
    34  H    4.929180   2.795303   2.709850   2.160111   1.083450
    35  H    6.186606   4.697720   5.108662   3.362966   2.214537
    36  H    5.436654   4.962103   5.880911   3.538045   3.365697
                   21         22         23         24         25
    21  C    0.000000
    22  C    1.378045   0.000000
    23  S    2.585342   1.722553   0.000000
    24  H    7.252042   6.559158   4.839072   0.000000
    25  H    8.691777   8.058238   6.362533   1.858232   0.000000
    26  H   10.229233   9.936444   8.307855   4.362838   4.209924
    27  H   11.771023  11.696615  10.182799   6.742493   6.559914
    28  H   10.541016  10.569588   9.095625   6.018557   5.837199
    29  H   10.618394  10.683764   9.302805   6.646971   6.874629
    30  H   11.581209  11.276525   9.737559   6.135925   6.312754
    31  H   10.162624   9.749417   8.216023   4.806994   5.389328
    32  H   10.421014  10.226097   8.817026   6.030109   6.655264
    33  H    6.485429   6.768037   5.873421   6.102140   7.404888
    34  H    2.223136   3.351144   3.630336   7.236410   8.505987
    35  H    1.083634   2.172786   3.629168   8.335234   9.763838
    36  H    2.211998   1.082307   2.447928   7.119387   8.625019
                   26         27         28         29         30
    26  H    0.000000
    27  H    2.476507   0.000000
    28  H    2.488988   1.769530   0.000000
    29  H    3.067306   1.771647   1.778040   0.000000
    30  H    2.463855   2.544043   3.768545   3.158642   0.000000
    31  H    2.495757   3.771001   4.354278   3.836057   1.771432
    32  H    3.066469   3.130842   3.835307   2.654008   1.771385
    33  H    5.865817   6.405399   5.607951   4.853886   6.350189
    34  H    9.408176  10.597731   9.227965   9.314937  10.818111
    35  H   11.256042  12.723892  11.476202  11.508917  12.565404
    36  H   10.705739  12.555152  11.488892  11.589943  11.990247
                   31         32         33         34         35
    31  H    0.000000
    32  H    1.775549   0.000000
    33  H    5.463354   4.783349   0.000000
    34  H    9.639434   9.595399   5.303030   0.000000
    35  H   11.158996  11.347622   7.220661   2.648882   0.000000
    36  H   10.398885  10.972980   7.679216   4.357569   2.637618
                   36
    36  H    0.000000
 Stoichiometry    C17H13NO4S
 Framework group  C1[X(C17H13NO4S)]
 Deg. of freedom   102
 Full point group                 C1      NOp   1
 Largest Abelian subgroup         C1      NOp   1
 Largest concise Abelian subgroup C1      NOp   1
                         Standard orientation:                         
 ---------------------------------------------------------------------
 Center     Atomic      Atomic             Coordinates (Angstroms)
 Number     Number       Type             X           Y           Z
 ---------------------------------------------------------------------
      1          6           0        1.326259    2.895656   -0.831428
      2          6           0        1.948937    1.976042   -0.069703
      3          6           0        2.971399    2.413072    0.847269
      4          7           0        3.783740    2.766320    1.602400
      5          6           0        1.677362    0.515675   -0.108081
      6          6           0        2.647542   -0.437073   -0.243998
      7          6           0        4.135497   -0.292934   -0.456128
      8          6           0        4.935816   -0.877853    0.726430
      9          6           0        4.569214   -0.928814   -1.795255
     10          6           0        1.954372   -1.736656   -0.181602
     11          8           0        2.354557   -2.887262   -0.265854
     12          6           0        0.474505   -1.441094    0.033875
     13          8           0       -0.370184   -2.454197    0.102382
     14          6           0        0.288540   -0.096410    0.078040
     15          6           0       -0.994074    0.583724    0.227400
     16          8           0       -1.215684    1.746876   -0.105735
     17          6           0       -2.133998   -0.177288    0.939025
     18          8           0       -1.881065   -0.757651    1.987367
     19          6           0       -3.486389   -0.102634    0.381120
     20          6           0       -4.576435   -0.796014    0.879112
     21          6           0       -5.753887   -0.605205    0.117158
     22          6           0       -5.549488    0.230615   -0.959241
     23         16           0       -3.928623    0.806841   -1.048402
     24          1           0        0.534936    2.616964   -1.513929
     25          1           0        1.599860    3.943382   -0.765880
     26          1           0        4.361967    0.776245   -0.513959
     27          1           0        6.008121   -0.729980    0.560542
     28          1           0        4.670366   -0.384473    1.666106
     29          1           0        4.754481   -1.952167    0.831429
     30          1           0        5.639130   -0.759570   -1.956425
     31          1           0        4.027126   -0.488790   -2.639135
     32          1           0        4.393181   -2.008604   -1.797266
     33          1           0        0.155208   -3.276254    0.022919
     34          1           0       -4.498731   -1.420824    1.760837
     35          1           0       -6.709666   -1.061204    0.346971
     36          1           0       -6.276208    0.552594   -1.693813
 ---------------------------------------------------------------------
 Rotational constants (GHZ):           0.4829769           0.1358073           0.1190855
 Standard basis: 6-31+G(d,p) (6D, 7F)
 There are   506 symmetry adapted cartesian basis functions of A   symmetry.
 There are   506 symmetry adapted basis functions of A   symmetry.
   506 basis functions,   851 primitive gaussians,   506 cartesian basis functions
    85 alpha electrons       85 beta electrons
       nuclear repulsion energy      1952.0609958637 Hartrees.
 NAtoms=   36 NActive=   36 NUniq=   36 SFac= 1.00D+00 NAtFMM=   60 NAOKFM=F Big=F
 Integral buffers will be    131072 words long.
 Regular integral format.
 Two-electron integral symmetry is turned on.
 One-electron integrals computed using PRISM.
 NBasis=   506 RedAO= T EigKep=  1.15D-06  NBF=   506
 NBsUse=   504 1.00D-06 EigRej=  4.37D-07 NBFU=   504
 ExpMin= 4.05D-02 ExpMax= 2.19D+04 ExpMxC= 3.30D+03 IAcc=3 IRadAn=         5 AccDes= 0.00D+00
 Harris functional with IExCor=  402 and IRadAn=       5 diagonalized for initial guess.
 HarFok:  IExCor=  402 AccDes= 0.00D+00 IRadAn=         5 IDoV= 1 UseB2=F ITyADJ=14
 ICtDFT=  3500011 ScaDFX=  1.000000  1.000000  1.000000  1.000000
 FoFCou: FMM=F IPFlag=           0 FMFlag=      100000 FMFlg1=           0
         NFxFlg=           0 DoJE=T BraDBF=F KetDBF=T FulRan=T
         wScrn=  0.000000 ICntrl=       500 IOpCl=  0 I1Cent=   200000004 NGrid=           0
         NMat0=    1 NMatS0=      1 NMatT0=    0 NMatD0=    1 NMtDS0=    0 NMtDT0=    0
 Petite list used in FoFCou.
 Requested convergence on RMS density matrix=1.00D-08 within 128 cycles.
 Requested convergence on MAX density matrix=1.00D-06.
 Requested convergence on             energy=1.00D-06.
 No special actions if energy rises.
 SCF Done:  E(RB3LYP) =  -1409.43136344     A.U. after   18 cycles
            NFock= 18  Conv=0.91D-08     -V/T= 2.0077
 DoSCS=F DFT=T ScalE2(SS,OS)=  1.000000  1.000000
 ExpMin= 4.05D-02 ExpMax= 2.19D+04 ExpMxC= 3.30D+03 IAcc=3 IRadAn=         5 AccDes= 0.00D+00
 HarFok:  IExCor=  205 AccDes= 0.00D+00 IRadAn=         5 IDoV=-2 UseB2=F ITyADJ=14
 ICtDFT= 12500011 ScaDFX=  1.000000  1.000000  1.000000  1.000000
 GSVD:  LWork=        -945 too small for GESVD, short by        4050 words or        4050 for optimal perf.
 Range of M.O.s used for correlation:    28   504
 NBasis=   506 NAE=    85 NBE=    85 NFC=    27 NFV=     0
 NROrb=    477 NOA=    58 NOB=    58 NVA=   419 NVB=   419

 **** Warning!!: The largest alpha MO coefficient is  0.17583251D+03

 Orbital symmetries:
       Occupied  (A) (A) (A) (A) (A) (A) (A) (A) (A) (A) (A) (A)
                 (A) (A) (A) (A) (A) (A) (A) (A) (A) (A) (A) (A)
                 (A) (A) (A) (A) (A) (A) (A) (A) (A) (A) (A) (A)
                 (A) (A) (A) (A) (A) (A) (A) (A) (A) (A) (A) (A)
                 (A) (A) (A) (A) (A) (A) (A) (A) (A) (A) (A) (A)
                 (A) (A) (A) (A) (A) (A) (A) (A) (A) (A) (A) (A)
                 (A) (A) (A) (A) (A) (A) (A) (A) (A) (A) (A) (A)
                 (A)
       Virtual   (A) (A) (A) (A) (A) (A) (A) (A) (A) (A) (A) (A)
                 (A) (A) (A) (A) (A) (A) (A) (A) (A) (A) (A) (A)
                 (A) (A) (A) (A) (A) (A) (A) (A) (A) (A) (A) (A)
                 (A) (A) (A) (A) (A) (A) (A) (A) (A) (A) (A) (A)
                 (A) (A) (A) (A) (A) (A) (A) (A) (A) (A) (A) (A)
                 (A) (A) (A) (A) (A) (A) (A) (A) (A) (A) (A) (A)
                 (A) (A) (A) (A) (A) (A) (A) (A) (A) (A) (A) (A)
                 (A) (A) (A) (A) (A) (A) (A) (A) (A) (A) (A) (A)
                 (A) (A) (A) (A) (A) (A) (A) (A) (A) (A) (A) (A)
                 (A) (A) (A) (A) (A) (A) (A) (A) (A) (A) (A) (A)
                 (A) (A) (A) (A) (A) (A) (A) (A) (A) (A) (A) (A)
                 (A) (A) (A) (A) (A) (A) (A) (A) (A) (A) (A) (A)
                 (A) (A) (A) (A) (A) (A) (A) (A) (A) (A) (A) (A)
                 (A) (A) (A) (A) (A) (A) (A) (A) (A) (A) (A) (A)
                 (A) (A) (A) (A) (A) (A) (A) (A) (A) (A) (A) (A)
                 (A) (A) (A) (A) (A) (A) (A) (A) (A) (A) (A) (A)
                 (A) (A) (A) (A) (A) (A) (A) (A) (A) (A) (A) (A)
                 (A) (A) (A) (A) (A) (A) (A) (A) (A) (A) (A) (A)
                 (A) (A) (A) (A) (A) (A) (A) (A) (A) (A) (A) (A)
                 (A) (A) (A) (A) (A) (A) (A) (A) (A) (A) (A) (A)
                 (A) (A) (A) (A) (A) (A) (A) (A) (A) (A) (A) (A)
                 (A) (A) (A) (A) (A) (A) (A) (A) (A) (A) (A) (A)
                 (A) (A) (A) (A) (A) (A) (A) (A) (A) (A) (A) (A)
                 (A) (A) (A) (A) (A) (A) (A) (A) (A) (A) (A) (A)
                 (A) (A) (A) (A) (A) (A) (A) (A) (A) (A) (A) (A)
                 (A) (A) (A) (A) (A) (A) (A) (A) (A) (A) (A) (A)
                 (A) (A) (A) (A) (A) (A) (A) (A) (A) (A) (A) (A)
                 (A) (A) (A) (A) (A) (A) (A) (A) (A) (A) (A) (A)
                 (A) (A) (A) (A) (A) (A) (A) (A) (A) (A) (A) (A)
                 (A) (A) (A) (A) (A) (A) (A) (A) (A) (A) (A) (A)
                 (A) (A) (A) (A) (A) (A) (A) (A) (A) (A) (A) (A)
                 (A) (A) (A) (A) (A) (A) (A) (A) (A) (A) (A) (A)
                 (A) (A) (A) (A) (A) (A) (A) (A) (A) (A) (A) (A)
                 (A) (A) (A) (A) (A) (A) (A) (A) (A) (A) (A) (A)
                 (A) (A) (A) (A) (A) (A) (A) (A) (A) (A) (A)
    24 initial guesses have been made.
 Convergence on wavefunction:    0.001000000000000
 Iteration     1 Dimension    24 NMult     0 NNew     24
 CISAX will form    24 AO SS matrices at one time.
 New state      1 was old state      2
 New state      2 was old state      4
 New state      4 was old state      1
 New state      5 was old state      6
 New state      6 was old state     12
 New state      7 was old state      5
 New state      8 was old state     14
 New state      9 was old state     10
 New state     10 was old state     11
 New state     11 was old state     18
 New state     12 was old state     13
 Vector   6 SDiff=4.64D+00 TDiff=6.57D+00 assumed to be singlet.
 Vector  12 SDiff=4.65D+00 TDiff=6.43D+00 assumed to be singlet.
 Iteration     2 Dimension    36 NMult    24 NNew     12
 New state      3 was old state      4
 New state      4 was old state      3
 New state      6 was old state      7
 Iteration     3 Dimension    48 NMult    36 NNew     12
 Iteration     4 Dimension    60 NMult    48 NNew     12
 Iteration     5 Dimension    72 NMult    60 NNew     12
 Iteration     6 Dimension    78 NMult    72 NNew      6
 Iteration     7 Dimension    80 NMult    78 NNew      2
 Convergence on energies, max DE= 9.39D-06.
 ***********************************************************************
 Excited states from <AA,BB:AA,BB> singles matrix:
 ***********************************************************************
 
 Ground to excited state transition densities written to RWF  633
 Ground to excited state transition electric dipole moments (Au):
       state          X           Y           Z        Dip. S.      Osc.
         1         0.0000      0.0000      0.0000      0.0000      0.0000
         2        -0.0000      0.0000     -0.0000      0.0000      0.0000
         3        -0.0697      0.1450      0.0024      0.0259      0.0013
         4         0.1173     -0.1453     -0.0494      0.0373      0.0020
         5        -0.0000     -0.0000     -0.0000      0.0000      0.0000
         6        -0.2209      0.0429     -0.0307      0.0516      0.0035
 Ground to excited state transition velocity dipole moments (Au):
       state          X           Y           Z        Dip. S.      Osc.
         1        -0.0000     -0.0000      0.0000      0.0000      0.0000
         2        -0.0000     -0.0000      0.0000      0.0000      0.0000
         3         0.0127     -0.0073     -0.0016      0.0002      0.0019
         4        -0.0090      0.0110      0.0042      0.0002      0.0018
         5         0.0000      0.0000     -0.0000      0.0000      0.0000
         6         0.0220     -0.0040      0.0026      0.0005      0.0033
 Ground to excited state transition magnetic dipole moments (Au):
       state          X           Y           Z
         1        -0.0000      0.0000      0.0000
         2        -0.0000     -0.0000      0.0000
         3        -0.0939     -0.0602     -0.8537
         4        -0.0832      0.4361      0.1013
         5         0.0000     -0.0000     -0.0000
         6         0.0451     -0.0694     -0.0490
 Ground to excited state transition velocity quadrupole moments (Au):
       state          XX          YY          ZZ          XY          XZ          YZ
         1        -0.0000     -0.0000     -0.0000      0.0000     -0.0000     -0.0000
         2         0.0000      0.0000      0.0000      0.0000      0.0000     -0.0000
         3         0.2967     -0.1581      0.0143     -0.2125     -0.0383      0.0340
         4        -0.0084     -0.0107      0.0173      0.0169     -0.0284     -0.0179
         5        -0.0000     -0.0000     -0.0000     -0.0000      0.0000      0.0000
         6        -0.1659      0.0069      0.0026     -0.0298     -0.0196      0.0030
 <0|del|b> * <b|rxdel|0> + <0|del|b> * <b|delr+rdel|0>
 Rotatory Strengths (R) in cgs (10**-40 erg-esu-cm/Gauss)
       state          XX          YY          ZZ    R(velocity)    E-M Angle
         1        -0.0000      0.0000     -0.0000     -0.0000       90.00
         2         0.0000     -0.0000     -0.0000      0.0000       90.00
         3         8.8791      1.3365     -4.2057      2.0033       87.10
         4        24.2677      5.4564     21.9435     17.2225       27.66
         5        -0.0000      0.0000      0.0000      0.0000       90.00
         6        -0.0165      3.5136      4.4709      2.6560       58.15
 1/2[<0|r|b>*<b|rxdel|0> + (<0|rxdel|b>*<b|r|0>)*]
 Rotatory Strengths (R) in cgs (10**-40 erg-esu-cm/Gauss)
       state          XX          YY          ZZ     R(length)
         1         0.0000     -0.0000     -0.0000     -0.0000
         2        -0.0000      0.0000      0.0000      0.0000
         3        -4.6278      6.1698      1.4700      1.0040
         4         6.9010     44.8023      3.5415     18.4149
         5         0.0000     -0.0000     -0.0000     -0.0000
         6         7.0461      2.1053     -1.0651      2.6954
  1/2[<0|del|b>*<b|r|0> + (<0|r|b>*<b|del|0>)*] (Au)
       state          X           Y           Z        Dip. S.   Osc.(frdel)
         1        -0.0000     -0.0000      0.0000      0.0000      0.0000
         2         0.0000     -0.0000     -0.0000     -0.0000     -0.0000
         3        -0.0009     -0.0011     -0.0000      0.0019      0.0013
         4        -0.0011     -0.0016     -0.0002      0.0029      0.0019
         5        -0.0000     -0.0000      0.0000      0.0000      0.0000
         6        -0.0049     -0.0002     -0.0001      0.0051      0.0034

 Excitation energies and oscillator strengths:
 
 Excited State   1:      Triplet-A      1.1085 eV 1118.53 nm  f=0.0000  <S**2>=2.000
      85 -> 86         0.71075
      85 <- 86         0.14693
 This state for optimization and/or second-order correction.
 Total Energy, E(TD-HF/TD-DFT) =  -1409.39062842    
 Copying the excited state density for this state as the 1-particle RhoCI density.
 
 Excited State   2:      Triplet-A      1.9715 eV  628.89 nm  f=0.0000  <S**2>=2.000
      81 -> 86         0.12814
      83 -> 86        -0.17784
      84 -> 86         0.59888
      84 -> 87        -0.23341
 
 Excited State   3:      Singlet-A      2.0535 eV  603.78 nm  f=0.0013  <S**2>=0.000
      85 -> 86         0.70496
 
 Excited State   4:      Singlet-A      2.2321 eV  555.46 nm  f=0.0020  <S**2>=0.000
      83 -> 86        -0.17341
      84 -> 86         0.66201
      84 -> 87        -0.10327
 
 Excited State   5:      Triplet-A      2.4568 eV  504.66 nm  f=0.0000  <S**2>=2.000
      80 -> 86        -0.33470
      81 -> 86         0.41121
      83 -> 86        -0.11292
      84 -> 87         0.39904
 
 Excited State   6:      Singlet-A      2.7650 eV  448.40 nm  f=0.0035  <S**2>=0.000
      83 -> 86         0.66993
      84 -> 86         0.19878
 SavETr:  write IOETrn=   770 NScale= 10 NData=  16 NLR=1 NState=    6 LETran=     118.

 **********************************************************************

            Population analysis using the SCF Density.

 **********************************************************************

 Orbital symmetries:
       Occupied  (A) (A) (A) (A) (A) (A) (A) (A) (A) (A) (A) (A)
                 (A) (A) (A) (A) (A) (A) (A) (A) (A) (A) (A) (A)
                 (A) (A) (A) (A) (A) (A) (A) (A) (A) (A) (A) (A)
                 (A) (A) (A) (A) (A) (A) (A) (A) (A) (A) (A) (A)
                 (A) (A) (A) (A) (A) (A) (A) (A) (A) (A) (A) (A)
                 (A) (A) (A) (A) (A) (A) (A) (A) (A) (A) (A) (A)
                 (A) (A) (A) (A) (A) (A) (A) (A) (A) (A) (A) (A)
                 (A)
       Virtual   (A) (A) (A) (A) (A) (A) (A) (A) (A) (A) (A) (A)
                 (A) (A) (A) (A) (A) (A) (A) (A) (A) (A) (A) (A)
                 (A) (A) (A) (A) (A) (A) (A) (A) (A) (A) (A) (A)
                 (A) (A) (A) (A) (A) (A) (A) (A) (A) (A) (A) (A)
                 (A) (A) (A) (A) (A) (A) (A) (A) (A) (A) (A) (A)
                 (A) (A) (A) (A) (A) (A) (A) (A) (A) (A) (A) (A)
                 (A) (A) (A) (A) (A) (A) (A) (A) (A) (A) (A) (A)
                 (A) (A) (A) (A) (A) (A) (A) (A) (A) (A) (A) (A)
                 (A) (A) (A) (A) (A) (A) (A) (A) (A) (A) (A) (A)
                 (A) (A) (A) (A) (A) (A) (A) (A) (A) (A) (A) (A)
                 (A) (A) (A) (A) (A) (A) (A) (A) (A) (A) (A) (A)
                 (A) (A) (A) (A) (A) (A) (A) (A) (A) (A) (A) (A)
                 (A) (A) (A) (A) (A) (A) (A) (A) (A) (A) (A) (A)
                 (A) (A) (A) (A) (A) (A) (A) (A) (A) (A) (A) (A)
                 (A) (A) (A) (A) (A) (A) (A) (A) (A) (A) (A) (A)
                 (A) (A) (A) (A) (A) (A) (A) (A) (A) (A) (A) (A)
                 (A) (A) (A) (A) (A) (A) (A) (A) (A) (A) (A) (A)
                 (A) (A) (A) (A) (A) (A) (A) (A) (A) (A) (A) (A)
                 (A) (A) (A) (A) (A) (A) (A) (A) (A) (A) (A) (A)
                 (A) (A) (A) (A) (A) (A) (A) (A) (A) (A) (A) (A)
                 (A) (A) (A) (A) (A) (A) (A) (A) (A) (A) (A) (A)
                 (A) (A) (A) (A) (A) (A) (A) (A) (A) (A) (A) (A)
                 (A) (A) (A) (A) (A) (A) (A) (A) (A) (A) (A) (A)
                 (A) (A) (A) (A) (A) (A) (A) (A) (A) (A) (A) (A)
                 (A) (A) (A) (A) (A) (A) (A) (A) (A) (A) (A) (A)
                 (A) (A) (A) (A) (A) (A) (A) (A) (A) (A) (A) (A)
                 (A) (A) (A) (A) (A) (A) (A) (A) (A) (A) (A) (A)
                 (A) (A) (A) (A) (A) (A) (A) (A) (A) (A) (A) (A)
                 (A) (A) (A) (A) (A) (A) (A) (A) (A) (A) (A) (A)
                 (A) (A) (A) (A) (A) (A) (A) (A) (A) (A) (A) (A)
                 (A) (A) (A) (A) (A) (A) (A) (A) (A) (A) (A) (A)
                 (A) (A) (A) (A) (A) (A) (A) (A) (A) (A) (A) (A)
                 (A) (A) (A) (A) (A) (A) (A) (A) (A) (A) (A) (A)
                 (A) (A) (A) (A) (A) (A) (A) (A) (A) (A) (A) (A)
                 (A) (A) (A) (A) (A) (A) (A) (A) (A) (A) (A)
 The electronic state is 1-A.
 Alpha  occ. eigenvalues --  -88.93898 -19.24837 -19.20553 -19.17626 -19.16734
 Alpha  occ. eigenvalues --  -14.35735 -10.32222 -10.31041 -10.30994 -10.30409
 Alpha  occ. eigenvalues --  -10.26983 -10.26903 -10.24989 -10.24633 -10.24274
 Alpha  occ. eigenvalues --  -10.24139 -10.24081 -10.22920 -10.22352 -10.22045
 Alpha  occ. eigenvalues --  -10.21838 -10.18933 -10.18447  -7.99742  -5.96156
 Alpha  occ. eigenvalues --   -5.95776  -5.95490  -1.13753  -1.09159  -1.07794
 Alpha  occ. eigenvalues --   -1.05753  -0.92888  -0.91026  -0.90568  -0.84161
 Alpha  occ. eigenvalues --   -0.82300  -0.77335  -0.76246  -0.76106  -0.72390
 Alpha  occ. eigenvalues --   -0.69485  -0.68474  -0.66846  -0.64318  -0.62938
 Alpha  occ. eigenvalues --   -0.59702  -0.58821  -0.57918  -0.55878  -0.54247
 Alpha  occ. eigenvalues --   -0.52563  -0.50173  -0.49585  -0.49084  -0.48537
 Alpha  occ. eigenvalues --   -0.47691  -0.46668  -0.46333  -0.45063  -0.44322
 Alpha  occ. eigenvalues --   -0.43511  -0.43204  -0.42533  -0.42397  -0.41967
 Alpha  occ. eigenvalues --   -0.41733  -0.41048  -0.40187  -0.39684  -0.39117
 Alpha  occ. eigenvalues --   -0.38013  -0.37852  -0.36900  -0.36549  -0.35904
 Alpha  occ. eigenvalues --   -0.35488  -0.35046  -0.33945  -0.32643  -0.30453
 Alpha  occ. eigenvalues --   -0.29736  -0.27804  -0.26510  -0.25524  -0.24790
 Alpha virt. eigenvalues --   -0.14308  -0.10046  -0.07244  -0.05380  -0.01678
 Alpha virt. eigenvalues --   -0.00626  -0.00147   0.00280   0.00899   0.01183
 Alpha virt. eigenvalues --    0.01550   0.01870   0.02568   0.02726   0.03260
 Alpha virt. eigenvalues --    0.03355   0.03496   0.04064   0.04485   0.04961
 Alpha virt. eigenvalues --    0.05016   0.05567   0.05709   0.06145   0.06289
 Alpha virt. eigenvalues --    0.06776   0.06961   0.07329   0.07963   0.08193
 Alpha virt. eigenvalues --    0.08495   0.08900   0.09415   0.09758   0.10055
 Alpha virt. eigenvalues --    0.10216   0.10655   0.10900   0.11315   0.11888
 Alpha virt. eigenvalues --    0.11960   0.12074   0.12280   0.13027   0.13451
 Alpha virt. eigenvalues --    0.13561   0.14008   0.14113   0.14204   0.14746
 Alpha virt. eigenvalues --    0.14838   0.15309   0.15562   0.15999   0.16298
 Alpha virt. eigenvalues --    0.16466   0.16867   0.17174   0.17384   0.17909
 Alpha virt. eigenvalues --    0.18360   0.18513   0.19036   0.19516   0.19698
 Alpha virt. eigenvalues --    0.19781   0.20483   0.20620   0.20831   0.21180
 Alpha virt. eigenvalues --    0.21771   0.21969   0.22112   0.22335   0.22452
 Alpha virt. eigenvalues --    0.22741   0.23162   0.23391   0.24050   0.24199
 Alpha virt. eigenvalues --    0.24485   0.24587   0.25530   0.25814   0.25928
 Alpha virt. eigenvalues --    0.26124   0.26824   0.27117   0.27229   0.27626
 Alpha virt. eigenvalues --    0.27801   0.28329   0.28653   0.28791   0.28991
 Alpha virt. eigenvalues --    0.29450   0.29539   0.30066   0.30621   0.31112
 Alpha virt. eigenvalues --    0.31145   0.31421   0.32112   0.32213   0.32784
 Alpha virt. eigenvalues --    0.33172   0.33831   0.34077   0.34144   0.34868
 Alpha virt. eigenvalues --    0.35436   0.35970   0.36470   0.36873   0.37552
 Alpha virt. eigenvalues --    0.38980   0.39184   0.39324   0.39698   0.40055
 Alpha virt. eigenvalues --    0.40751   0.41006   0.41361   0.42098   0.43606
 Alpha virt. eigenvalues --    0.43848   0.44367   0.44828   0.46185   0.46857
 Alpha virt. eigenvalues --    0.47005   0.50751   0.51539   0.52608   0.53694
 Alpha virt. eigenvalues --    0.54484   0.55152   0.57919   0.59547   0.61340
 Alpha virt. eigenvalues --    0.64001   0.64641   0.65746   0.66471   0.67307
 Alpha virt. eigenvalues --    0.67630   0.68585   0.69331   0.70763   0.70804
 Alpha virt. eigenvalues --    0.71106   0.72128   0.73220   0.73593   0.74235
 Alpha virt. eigenvalues --    0.74311   0.75139   0.75890   0.76640   0.77269
 Alpha virt. eigenvalues --    0.77782   0.78412   0.79017   0.79761   0.80353
 Alpha virt. eigenvalues --    0.81355   0.81643   0.82186   0.82704   0.83298
 Alpha virt. eigenvalues --    0.84088   0.84878   0.85292   0.86285   0.87205
 Alpha virt. eigenvalues --    0.87638   0.88158   0.89243   0.89581   0.90172
 Alpha virt. eigenvalues --    0.92780   0.93204   0.93277   0.94194   0.94805
 Alpha virt. eigenvalues --    0.96849   0.97502   0.98838   0.99199   0.99469
 Alpha virt. eigenvalues --    0.99826   1.01006   1.02521   1.03098   1.03700
 Alpha virt. eigenvalues --    1.04854   1.05203   1.06068   1.06641   1.07238
 Alpha virt. eigenvalues --    1.07710   1.09674   1.10151   1.10915   1.12085
 Alpha virt. eigenvalues --    1.13099   1.14050   1.15039   1.16175   1.16921
 Alpha virt. eigenvalues --    1.17737   1.17894   1.19305   1.20054   1.20896
 Alpha virt. eigenvalues --    1.22129   1.23258   1.23402   1.24264   1.25372
 Alpha virt. eigenvalues --    1.25432   1.26217   1.27565   1.29442   1.30074
 Alpha virt. eigenvalues --    1.30555   1.31819   1.32395   1.32830   1.32908
 Alpha virt. eigenvalues --    1.33607   1.34193   1.34294   1.35709   1.36276
 Alpha virt. eigenvalues --    1.36921   1.37533   1.38743   1.39452   1.40070
 Alpha virt. eigenvalues --    1.41960   1.43323   1.43639   1.44724   1.47086
 Alpha virt. eigenvalues --    1.49380   1.49815   1.50277   1.51075   1.53318
 Alpha virt. eigenvalues --    1.54275   1.55127   1.56119   1.57582   1.58405
 Alpha virt. eigenvalues --    1.59184   1.59913   1.61004   1.61900   1.64503
 Alpha virt. eigenvalues --    1.67144   1.68246   1.68883   1.70234   1.72158
 Alpha virt. eigenvalues --    1.73630   1.74278   1.75293   1.76296   1.77850
 Alpha virt. eigenvalues --    1.79887   1.81577   1.82837   1.83430   1.83814
 Alpha virt. eigenvalues --    1.85917   1.86037   1.86855   1.87936   1.88528
 Alpha virt. eigenvalues --    1.89088   1.89611   1.90767   1.91331   1.92548
 Alpha virt. eigenvalues --    1.93433   1.94976   1.95602   1.96461   1.97905
 Alpha virt. eigenvalues --    1.98287   1.99439   1.99780   2.00369   2.03717
 Alpha virt. eigenvalues --    2.04462   2.04758   2.05605   2.06621   2.06965
 Alpha virt. eigenvalues --    2.08419   2.09579   2.10168   2.10815   2.11944
 Alpha virt. eigenvalues --    2.12521   2.13018   2.13964   2.14450   2.15020
 Alpha virt. eigenvalues --    2.16215   2.16649   2.17563   2.18930   2.20521
 Alpha virt. eigenvalues --    2.22003   2.23712   2.24230   2.27536   2.32234
 Alpha virt. eigenvalues --    2.32244   2.34992   2.35202   2.35402   2.36508
 Alpha virt. eigenvalues --    2.37259   2.39189   2.40453   2.40640   2.42093
 Alpha virt. eigenvalues --    2.44011   2.44133   2.45116   2.46195   2.47302
 Alpha virt. eigenvalues --    2.49196   2.49901   2.50165   2.51831   2.53186
 Alpha virt. eigenvalues --    2.54230   2.55930   2.57387   2.58179   2.58561
 Alpha virt. eigenvalues --    2.60003   2.60698   2.61811   2.64337   2.65198
 Alpha virt. eigenvalues --    2.67839   2.68795   2.70005   2.70330   2.70710
 Alpha virt. eigenvalues --    2.72652   2.73877   2.76304   2.76974   2.78379
 Alpha virt. eigenvalues --    2.80452   2.82036   2.83135   2.85390   2.87747
 Alpha virt. eigenvalues --    2.88629   2.89194   2.90086   2.91229   2.92146
 Alpha virt. eigenvalues --    2.97612   3.00210   3.03253   3.05641   3.06748
 Alpha virt. eigenvalues --    3.12324   3.15053   3.18838   3.20741   3.23856
 Alpha virt. eigenvalues --    3.25025   3.27401   3.28474   3.28638   3.29374
 Alpha virt. eigenvalues --    3.33709   3.37784   3.38571   3.41326   3.44385
 Alpha virt. eigenvalues --    3.49749   3.50498   3.54090   3.56333   3.59591
 Alpha virt. eigenvalues --    3.70873   3.96863   4.21557   4.24531   4.27122
 Alpha virt. eigenvalues --    4.28318   4.30981   4.31723   4.36758   4.38312
 Alpha virt. eigenvalues --    4.38945   4.43439   4.46368   4.49109   4.53648
 Alpha virt. eigenvalues --    4.56951   4.57283   4.61261   4.68751   4.71616
 Alpha virt. eigenvalues --    4.73437   4.78143   4.89544   5.11245
          Condensed to atoms (all electrons):
               1          2          3          4          5          6
     1  C    7.727643  -0.185734  -0.660538  -0.033266  -1.032133   0.195264
     2  C   -0.185734  14.197839  -0.203259  -0.008811  -7.567048   0.738826
     3  C   -0.660538  -0.203259   9.195615   0.155037  -1.956873  -1.058655
     4  N   -0.033266  -0.008811   0.155037   7.148401   0.209357   0.047228
     5  C   -1.032133  -7.567048  -1.956873   0.209357  21.131747   1.061690
     6  C    0.195264   0.738826  -1.058655   0.047228   1.061690  16.106990
     7  C   -0.119217  -0.548356  -0.293785   0.018789   0.416564  -0.862755
     8  C    0.011288   0.064526  -0.173516  -0.016550   0.160266   0.200437
     9  C    0.031029   0.025088   0.082662  -0.002708  -0.023028   0.004331
    10  C    0.052287  -0.910767   0.235904   0.004271  -2.353431  -3.143721
    11  O    0.006542   0.060007   0.005090  -0.000349  -0.029090  -0.146363
    12  C   -0.125476   0.353586   0.244377  -0.019706  -1.129898   0.601246
    13  O   -0.007869  -0.017724   0.004229   0.000007  -0.122857  -0.014914
    14  C   -0.242834   1.287156   1.325622  -0.062475  -3.602892  -8.000429
    15  C   -0.163488  -1.131869  -0.216853   0.008512  -0.976924  -0.253138
    16  O    0.005991   0.015567  -0.036264  -0.000365   0.072216   0.043600
    17  C   -0.066276  -1.072072  -0.203378   0.007309   2.048428   0.680865
    18  O    0.002475   0.024573  -0.002887   0.000042  -0.030773  -0.050136
    19  C   -0.050005   0.359003   0.022832  -0.000068  -0.719895  -0.247588
    20  C   -0.001855  -0.107987  -0.012794   0.000142   0.121146   0.025682
    21  C   -0.003086   0.011669   0.000896  -0.000002  -0.011501   0.000410
    22  C    0.002057  -0.001445   0.000240  -0.000003  -0.004026  -0.003616
    23  S    0.002818   0.043663   0.009203  -0.000134  -0.076596  -0.017773
    24  H    0.440086  -0.052626   0.001316   0.000166  -0.037811  -0.013673
    25  H    0.528692  -0.157148  -0.111230   0.001807   0.084248  -0.023846
    26  H   -0.007823   0.189205  -0.063960   0.006399  -0.193098   0.100619
    27  H   -0.000863  -0.002901   0.002874   0.000392  -0.002035  -0.053308
    28  H    0.001213  -0.010371  -0.011886   0.002301  -0.003185   0.030468
    29  H    0.000506   0.013695  -0.007738   0.000438   0.000327   0.076775
    30  H    0.002143   0.002611  -0.004722  -0.000109   0.015363  -0.073256
    31  H   -0.002943  -0.003767   0.001839  -0.000149  -0.011593  -0.009573
    32  H   -0.001087   0.004734   0.000713  -0.000018   0.016468   0.076741
    33  H    0.000134   0.011838   0.000109   0.000001   0.053228  -0.007809
    34  H   -0.000012   0.000053   0.000007  -0.000000  -0.001083  -0.000080
    35  H   -0.000001   0.000002  -0.000000   0.000000   0.000009   0.000003
    36  H    0.000000  -0.000017  -0.000001   0.000000  -0.000023   0.000003
               7          8          9         10         11         12
     1  C   -0.119217   0.011288   0.031029   0.052287   0.006542  -0.125476
     2  C   -0.548356   0.064526   0.025088  -0.910767   0.060007   0.353586
     3  C   -0.293785  -0.173516   0.082662   0.235904   0.005090   0.244377
     4  N    0.018789  -0.016550  -0.002708   0.004271  -0.000349  -0.019706
     5  C    0.416564   0.160266  -0.023028  -2.353431  -0.029090  -1.129898
     6  C   -0.862755   0.200437   0.004331  -3.143721  -0.146363   0.601246
     7  C    8.262746  -0.014302  -0.633145  -0.225796   0.116545   0.528424
     8  C   -0.014302   5.745006  -0.327200  -0.310047  -0.031495   0.088258
     9  C   -0.633145  -0.327200   6.105316  -0.021812  -0.046978  -0.158843
    10  C   -0.225796  -0.310047  -0.021812  15.301214   0.258844  -7.516720
    11  O    0.116545  -0.031495  -0.046978   0.258844   8.438691  -0.021672
    12  C    0.528424   0.088258  -0.158843  -7.516720  -0.021672  23.281552
    13  O    0.000440  -0.002119  -0.001681   0.359730  -0.059200  -0.288983
    14  C   -0.805288  -0.139580   0.229036   3.400104  -0.136983  -7.085818
    15  C    0.036410  -0.026145   0.031537  -0.194786   0.015554   2.629729
    16  O   -0.002812  -0.000162   0.000928  -0.004228   0.000229  -0.038215
    17  C   -0.104610  -0.006075   0.010561   1.072421  -0.008789  -5.303787
    18  O   -0.002909  -0.000130  -0.000130   0.023404   0.000058  -0.153905
    19  C   -0.004545   0.001208  -0.001541  -0.117892   0.001995   1.162536
    20  C   -0.002796  -0.000463   0.000477   0.059092   0.000221  -0.666263
    21  C   -0.000032   0.000042  -0.000006  -0.004953   0.000038   0.029326
    22  C   -0.000253  -0.000014  -0.000003   0.008669   0.000006  -0.030091
    23  S   -0.000679   0.000239  -0.000173   0.003691  -0.000018   0.104636
    24  H    0.004608   0.000726  -0.001215  -0.003089   0.000015   0.016623
    25  H    0.003209   0.000542  -0.000226  -0.003390   0.000000   0.001559
    26  H    0.270353   0.029184  -0.003863  -0.020707  -0.000295   0.001680
    27  H   -0.023619   0.409511  -0.004170   0.027931   0.000142  -0.003078
    28  H   -0.067014   0.440396  -0.007017  -0.003132  -0.000370   0.010815
    29  H   -0.138946   0.497195  -0.029742  -0.057713  -0.000041   0.001858
    30  H   -0.028851  -0.004188   0.429600   0.014206   0.000239  -0.002634
    31  H   -0.078937  -0.008939   0.470287   0.007218  -0.000071   0.004084
    32  H   -0.180528  -0.009686   0.504470  -0.063559  -0.001082  -0.002591
    33  H   -0.005422   0.000549   0.000501  -0.263596   0.054218   0.091851
    34  H    0.000001  -0.000000   0.000000   0.000738  -0.000000   0.005821
    35  H    0.000000   0.000000   0.000000  -0.000006  -0.000000  -0.000053
    36  H    0.000000  -0.000000   0.000000  -0.000015   0.000000   0.000016
              13         14         15         16         17         18
     1  C   -0.007869  -0.242834  -0.163488   0.005991  -0.066276   0.002475
     2  C   -0.017724   1.287156  -1.131869   0.015567  -1.072072   0.024573
     3  C    0.004229   1.325622  -0.216853  -0.036264  -0.203378  -0.002887
     4  N    0.000007  -0.062475   0.008512  -0.000365   0.007309   0.000042
     5  C   -0.122857  -3.602892  -0.976924   0.072216   2.048428  -0.030773
     6  C   -0.014914  -8.000429  -0.253138   0.043600   0.680865  -0.050136
     7  C    0.000440  -0.805288   0.036410  -0.002812  -0.104610  -0.002909
     8  C   -0.002119  -0.139580  -0.026145  -0.000162  -0.006075  -0.000130
     9  C   -0.001681   0.229036   0.031537   0.000928   0.010561  -0.000130
    10  C    0.359730   3.400104  -0.194786  -0.004228   1.072421   0.023404
    11  O   -0.059200  -0.136983   0.015554   0.000229  -0.008789   0.000058
    12  C   -0.288983  -7.085818   2.629729  -0.038215  -5.303787  -0.153905
    13  O    8.362800   0.006796  -0.066171   0.000785   0.218466  -0.025904
    14  C    0.006796  23.719373  -2.535475  -0.161401  -3.200115   0.331900
    15  C   -0.066171  -2.535475  15.071987   0.210558  -6.571978  -0.113143
    16  O    0.000785  -0.161401   0.210558   8.258664  -0.013208  -0.002834
    17  C    0.218466  -3.200115  -6.571978  -0.013208  25.078966   0.308619
    18  O   -0.025904   0.331900  -0.113143  -0.002834   0.308619   8.158786
    19  C   -0.067115   1.366205   2.594846   0.047761 -11.138930   0.029271
    20  C   -0.007378  -0.499140  -2.249715   0.028626   5.071836  -0.144566
    21  C   -0.000614  -0.005546  -0.067479  -0.010374  -0.547261   0.033471
    22  C    0.000271   0.013307  -0.164963   0.013500   0.168076  -0.009105
    23  S    0.000382   0.107947   0.433043  -0.059323  -0.755559   0.012331
    24  H    0.000017   0.053787  -0.019954  -0.012345  -0.021684   0.000031
    25  H   -0.000001  -0.008616   0.032835   0.001259   0.000338   0.000000
    26  H    0.000020  -0.039961  -0.007323  -0.000001   0.000292  -0.000000
    27  H    0.000000   0.001524   0.000167  -0.000000   0.000025  -0.000000
    28  H    0.000005  -0.020711  -0.001018   0.000000   0.000013   0.000001
    29  H   -0.000015  -0.006289  -0.000900   0.000000  -0.000028  -0.000000
    30  H    0.000000   0.003225   0.000096   0.000000  -0.000026   0.000000
    31  H    0.000004  -0.010092   0.000774  -0.000003   0.000005  -0.000000
    32  H   -0.000015   0.008104   0.000318  -0.000000   0.000052  -0.000000
    33  H    0.153765   0.117312   0.006347  -0.000007  -0.011166   0.001180
    34  H   -0.000132  -0.004910   0.006723  -0.000042   0.018832  -0.002034
    35  H   -0.000001   0.000501   0.001453   0.000006  -0.021862   0.000076
    36  H    0.000001  -0.000779  -0.000713  -0.000057   0.000285   0.000031
              19         20         21         22         23         24
     1  C   -0.050005  -0.001855  -0.003086   0.002057   0.002818   0.440086
     2  C    0.359003  -0.107987   0.011669  -0.001445   0.043663  -0.052626
     3  C    0.022832  -0.012794   0.000896   0.000240   0.009203   0.001316
     4  N   -0.000068   0.000142  -0.000002  -0.000003  -0.000134   0.000166
     5  C   -0.719895   0.121146  -0.011501  -0.004026  -0.076596  -0.037811
     6  C   -0.247588   0.025682   0.000410  -0.003616  -0.017773  -0.013673
     7  C   -0.004545  -0.002796  -0.000032  -0.000253  -0.000679   0.004608
     8  C    0.001208  -0.000463   0.000042  -0.000014   0.000239   0.000726
     9  C   -0.001541   0.000477  -0.000006  -0.000003  -0.000173  -0.001215
    10  C   -0.117892   0.059092  -0.004953   0.008669   0.003691  -0.003089
    11  O    0.001995   0.000221   0.000038   0.000006  -0.000018   0.000015
    12  C    1.162536  -0.666263   0.029326  -0.030091   0.104636   0.016623
    13  O   -0.067115  -0.007378  -0.000614   0.000271   0.000382   0.000017
    14  C    1.366205  -0.499140  -0.005546   0.013307   0.107947   0.053787
    15  C    2.594846  -2.249715  -0.067479  -0.164963   0.433043  -0.019954
    16  O    0.047761   0.028626  -0.010374   0.013500  -0.059323  -0.012345
    17  C  -11.138930   5.071836  -0.547261   0.168076  -0.755559  -0.021684
    18  O    0.029271  -0.144566   0.033471  -0.009105   0.012331   0.000031
    19  C   18.825011  -7.555020   1.173778  -0.633119   1.143298  -0.001021
    20  C   -7.555020  13.519845  -1.589358   0.739187  -1.315737  -0.000983
    21  C    1.173778  -1.589358   6.458560   0.210130   0.334123  -0.000012
    22  C   -0.633119   0.739187   0.210130   5.450485   0.060441   0.000024
    23  S    1.143298  -1.315737   0.334123   0.060441  15.907815   0.000908
    24  H   -0.001021  -0.000983  -0.000012   0.000024   0.000908   0.500488
    25  H    0.000816   0.000078  -0.000002  -0.000008  -0.000375  -0.028620
    26  H   -0.000007  -0.000002   0.000000  -0.000000  -0.000001   0.000003
    27  H    0.000001   0.000000   0.000000   0.000000   0.000000   0.000000
    28  H   -0.000007   0.000000  -0.000000  -0.000000  -0.000001   0.000000
    29  H   -0.000001  -0.000001   0.000000  -0.000000   0.000000  -0.000000
    30  H    0.000002  -0.000000   0.000000  -0.000000  -0.000000   0.000000
    31  H    0.000000   0.000000   0.000000  -0.000000   0.000003   0.000000
    32  H   -0.000004  -0.000000   0.000000  -0.000000  -0.000000  -0.000000
    33  H    0.004546   0.002021   0.000182   0.000005  -0.000042  -0.000000
    34  H    0.031486   0.307354  -0.059991  -0.009685   0.015014   0.000000
    35  H    0.059261  -0.076001   0.348973  -0.019136   0.018549   0.000000
    36  H   -0.025616   0.037187  -0.023041   0.338007   0.001162  -0.000000
              25         26         27         28         29         30
     1  C    0.528692  -0.007823  -0.000863   0.001213   0.000506   0.002143
     2  C   -0.157148   0.189205  -0.002901  -0.010371   0.013695   0.002611
     3  C   -0.111230  -0.063960   0.002874  -0.011886  -0.007738  -0.004722
     4  N    0.001807   0.006399   0.000392   0.002301   0.000438  -0.000109
     5  C    0.084248  -0.193098  -0.002035  -0.003185   0.000327   0.015363
     6  C   -0.023846   0.100619  -0.053308   0.030468   0.076775  -0.073256
     7  C    0.003209   0.270353  -0.023619  -0.067014  -0.138946  -0.028851
     8  C    0.000542   0.029184   0.409511   0.440396   0.497195  -0.004188
     9  C   -0.000226  -0.003863  -0.004170  -0.007017  -0.029742   0.429600
    10  C   -0.003390  -0.020707   0.027931  -0.003132  -0.057713   0.014206
    11  O    0.000000  -0.000295   0.000142  -0.000370  -0.000041   0.000239
    12  C    0.001559   0.001680  -0.003078   0.010815   0.001858  -0.002634
    13  O   -0.000001   0.000020   0.000000   0.000005  -0.000015   0.000000
    14  C   -0.008616  -0.039961   0.001524  -0.020711  -0.006289   0.003225
    15  C    0.032835  -0.007323   0.000167  -0.001018  -0.000900   0.000096
    16  O    0.001259  -0.000001  -0.000000   0.000000   0.000000   0.000000
    17  C    0.000338   0.000292   0.000025   0.000013  -0.000028  -0.000026
    18  O    0.000000  -0.000000  -0.000000   0.000001  -0.000000   0.000000
    19  C    0.000816  -0.000007   0.000001  -0.000007  -0.000001   0.000002
    20  C    0.000078  -0.000002   0.000000   0.000000  -0.000001  -0.000000
    21  C   -0.000002   0.000000   0.000000  -0.000000   0.000000   0.000000
    22  C   -0.000008  -0.000000   0.000000  -0.000000  -0.000000  -0.000000
    23  S   -0.000375  -0.000001   0.000000  -0.000001   0.000000  -0.000000
    24  H   -0.028620   0.000003   0.000000   0.000000  -0.000000   0.000000
    25  H    0.512415   0.000017  -0.000000  -0.000000  -0.000000   0.000000
    26  H    0.000017   0.617899  -0.003732  -0.004143   0.005319  -0.004211
    27  H   -0.000000  -0.003732   0.551999  -0.024661  -0.027153   0.002929
    28  H   -0.000000  -0.004143  -0.024661   0.532489  -0.027328   0.000090
    29  H   -0.000000   0.005319  -0.027153  -0.027328   0.531736  -0.000100
    30  H    0.000000  -0.004211   0.002929   0.000090  -0.000100   0.550691
    31  H    0.000000  -0.004512   0.000110  -0.000148   0.000011  -0.026154
    32  H    0.000000   0.005111  -0.000071   0.000019   0.003037  -0.026452
    33  H    0.000000   0.000000  -0.000000  -0.000000   0.000001  -0.000000
    34  H    0.000000  -0.000000  -0.000000   0.000000   0.000000   0.000000
    35  H   -0.000000   0.000000   0.000000   0.000000   0.000000   0.000000
    36  H    0.000000   0.000000   0.000000   0.000000  -0.000000   0.000000
              31         32         33         34         35         36
     1  C   -0.002943  -0.001087   0.000134  -0.000012  -0.000001   0.000000
     2  C   -0.003767   0.004734   0.011838   0.000053   0.000002  -0.000017
     3  C    0.001839   0.000713   0.000109   0.000007  -0.000000  -0.000001
     4  N   -0.000149  -0.000018   0.000001  -0.000000   0.000000   0.000000
     5  C   -0.011593   0.016468   0.053228  -0.001083   0.000009  -0.000023
     6  C   -0.009573   0.076741  -0.007809  -0.000080   0.000003   0.000003
     7  C   -0.078937  -0.180528  -0.005422   0.000001   0.000000   0.000000
     8  C   -0.008939  -0.009686   0.000549  -0.000000   0.000000  -0.000000
     9  C    0.470287   0.504470   0.000501   0.000000   0.000000   0.000000
    10  C    0.007218  -0.063559  -0.263596   0.000738  -0.000006  -0.000015
    11  O   -0.000071  -0.001082   0.054218  -0.000000  -0.000000   0.000000
    12  C    0.004084  -0.002591   0.091851   0.005821  -0.000053   0.000016
    13  O    0.000004  -0.000015   0.153765  -0.000132  -0.000001   0.000001
    14  C   -0.010092   0.008104   0.117312  -0.004910   0.000501  -0.000779
    15  C    0.000774   0.000318   0.006347   0.006723   0.001453  -0.000713
    16  O   -0.000003  -0.000000  -0.000007  -0.000042   0.000006  -0.000057
    17  C    0.000005   0.000052  -0.011166   0.018832  -0.021862   0.000285
    18  O   -0.000000  -0.000000   0.001180  -0.002034   0.000076   0.000031
    19  C    0.000000  -0.000004   0.004546   0.031486   0.059261  -0.025616
    20  C    0.000000  -0.000000   0.002021   0.307354  -0.076001   0.037187
    21  C    0.000000   0.000000   0.000182  -0.059991   0.348973  -0.023041
    22  C   -0.000000  -0.000000   0.000005  -0.009685  -0.019136   0.338007
    23  S    0.000003  -0.000000  -0.000042   0.015014   0.018549   0.001162
    24  H    0.000000  -0.000000  -0.000000   0.000000   0.000000  -0.000000
    25  H    0.000000   0.000000   0.000000   0.000000  -0.000000   0.000000
    26  H   -0.004512   0.005111   0.000000  -0.000000   0.000000   0.000000
    27  H    0.000110  -0.000071  -0.000000  -0.000000   0.000000   0.000000
    28  H   -0.000148   0.000019  -0.000000   0.000000   0.000000   0.000000
    29  H    0.000011   0.003037   0.000001   0.000000   0.000000  -0.000000
    30  H   -0.026154  -0.026452  -0.000000   0.000000   0.000000   0.000000
    31  H    0.557899  -0.029012  -0.000000  -0.000000  -0.000000  -0.000000
    32  H   -0.029012   0.521340   0.000001   0.000000   0.000000   0.000000
    33  H   -0.000000   0.000001   0.388463   0.000000  -0.000000   0.000000
    34  H   -0.000000   0.000000   0.000000   0.531469  -0.002613  -0.000097
    35  H   -0.000000   0.000000  -0.000000  -0.002613   0.550025  -0.003020
    36  H   -0.000000   0.000000   0.000000  -0.000097  -0.003020   0.509864
 Mulliken charges:
               1
     1  C   -0.305660
     2  C    0.578262
     3  C   -0.270226
     4  N   -0.465885
     5  C    0.494738
     6  C   -0.010547
     7  C    0.486507
     8  C   -0.578763
     9  C   -0.662342
    10  C    0.389637
    11  O   -0.475640
    12  C   -0.610244
    13  O   -0.425026
    14  C    0.597438
    15  C   -0.318852
    16  O   -0.358049
    17  C    0.361415
    18  O   -0.387792
    19  C   -0.261482
    20  C    0.317166
    21  C   -0.278340
    22  C   -0.128938
    23  S    0.027145
    24  H    0.174234
    25  H    0.165648
    26  H    0.127538
    27  H    0.147987
    28  H    0.163180
    29  H    0.165097
    30  H    0.149507
    31  H    0.143658
    32  H    0.172998
    33  H    0.401793
    34  H    0.163181
    35  H    0.143834
    36  H    0.166819
 Sum of Mulliken charges =  -0.00000
 Mulliken charges with hydrogens summed into heavy atoms:
               1
     1  C    0.034222
     2  C    0.578262
     3  C   -0.270226
     4  N   -0.465885
     5  C    0.494738
     6  C   -0.010547
     7  C    0.614046
     8  C   -0.102498
     9  C   -0.196179
    10  C    0.389637
    11  O   -0.475640
    12  C   -0.610244
    13  O   -0.023232
    14  C    0.597438
    15  C   -0.318852
    16  O   -0.358049
    17  C    0.361415
    18  O   -0.387792
    19  C   -0.261482
    20  C    0.480347
    21  C   -0.134505
    22  C    0.037881
    23  S    0.027145
 Electronic spatial extent (au):  <R**2>=           8976.3465
 Charge=             -0.0000 electrons
 Dipole moment (field-independent basis, Debye):
    X=             -3.0560    Y=             -1.5684    Z=             -4.4960  Tot=              5.6579
 Quadrupole moment (field-independent basis, Debye-Ang):
   XX=           -128.9038   YY=           -143.7086   ZZ=           -146.5485
   XY=             -2.2181   XZ=             -3.8349   YZ=             -8.9411
 Traceless Quadrupole moment (field-independent basis, Debye-Ang):
   XX=             10.8165   YY=             -3.9883   ZZ=             -6.8282
   XY=             -2.2181   XZ=             -3.8349   YZ=             -8.9411
 Octapole moment (field-independent basis, Debye-Ang**2):
  XXX=           -201.4187  YYY=            -24.7892  ZZZ=            -20.8396  XYY=            -36.2568
  XXY=            -54.6983  XXZ=            -57.3130  XZZ=            -21.7297  YZZ=             -9.9462
  YYZ=            -22.3760  XYZ=            -19.6923
 Hexadecapole moment (field-independent basis, Debye-Ang**3):
 XXXX=          -8504.8443 YYYY=          -2021.7641 ZZZZ=           -890.0415 XXXY=           -132.9481
 XXXZ=            -41.3046 YYYX=            -17.1064 YYYZ=           -108.4740 ZZZX=             -2.2436
 ZZZY=            -34.0475 XXYY=          -2149.2001 XXZZ=          -1742.4717 YYZZ=           -520.4849
 XXYZ=           -193.2569 YYXZ=            -85.4792 ZZXY=            -79.8534
 N-N= 1.952060995864D+03 E-N=-7.202539426575D+03  KE= 1.398655449069D+03
 Unable to Open any file for archive entry.
 1\1\GINC-N1\SP\RB3LYP TD-FC\6-31+G(d,p)\C17H13N1O4S1\HPCMGAC13\29-Jul-
 2025\0\\# td=(50-50,nstates=3) b3lyp/6-31+g(d,p) geom=connectivity\\Ti
 tle Card Required\\0,1\C,0,-1.326259,2.895656,0.831428\C,0,-1.948937,1
 .976042,0.069703\C,0,-2.971399,2.413072,-0.847269\N,0,-3.78374,2.76632
 ,-1.6024\C,0,-1.677362,0.515675,0.108081\C,0,-2.647542,-0.437073,0.243
 998\C,0,-4.135497,-0.292934,0.456128\C,0,-4.935816,-0.877853,-0.72643\
 C,0,-4.569214,-0.928814,1.795255\C,0,-1.954372,-1.736656,0.181602\O,0,
 -2.354557,-2.887262,0.265854\C,0,-0.474505,-1.441094,-0.033875\O,0,0.3
 70184,-2.454197,-0.102382\C,0,-0.28854,-0.09641,-0.07804\C,0,0.994074,
 0.583724,-0.2274\O,0,1.215684,1.746876,0.105735\C,0,2.133998,-0.177288
 ,-0.939025\O,0,1.881065,-0.757651,-1.987367\C,0,3.486389,-0.102634,-0.
 38112\C,0,4.576435,-0.796014,-0.879112\C,0,5.753887,-0.605205,-0.11715
 8\C,0,5.549488,0.230615,0.959241\S,0,3.928623,0.806841,1.048402\H,0,-0
 .534936,2.616964,1.513929\H,0,-1.59986,3.943382,0.76588\H,0,-4.361967,
 0.776245,0.513959\H,0,-6.008121,-0.72998,-0.560542\H,0,-4.670366,-0.38
 4473,-1.666106\H,0,-4.754481,-1.952167,-0.831429\H,0,-5.63913,-0.75957
 ,1.956425\H,0,-4.027126,-0.48879,2.639135\H,0,-4.393181,-2.008604,1.79
 7266\H,0,-0.155208,-3.276254,-0.022919\H,0,4.498731,-1.420824,-1.76083
 7\H,0,6.709666,-1.061204,-0.346971\H,0,6.276208,0.552594,1.693813\\Ver
 sion=ES64L-G16RevC.02\State=1-A\HF=-1409.4313634\RMSD=9.066e-09\PG=C01
  [X(C17H13N1O4S1)]\\@
 The archive entry for this job was punched.


 THE MOLECULE ALSO HAS A BODY.  WHEN THIS BODY IS HIT, THE MOLECULE
 FEELS HURT ALL OVER -- A. KITAIGORODSKI
 Job cpu time:       0 days  1 hours 47 minutes 24.3 seconds.
 Elapsed time:       0 days  0 hours 13 minutes 39.6 seconds.
 File lengths (MBytes):  RWF=   1394 Int=      0 D2E=      0 Chk=     67 Scr=      2
 Normal termination of Gaussian 16 at Tue Jul 29 15:07:32 2025.
