 Entering Gaussian System, Link 0=g16
 Input=M2855e.gjf
 Output=M2855e.log
 Initial command:
 /hpc/softwares/Gaussian/g16/l1.exe "/hpc/home/hpcmgac201/pbs.12324.admin1.x8z/Gau-1690484.inp" -scrdir="/hpc/home/hpcmgac201/pbs.12324.admin1.x8z/"
 Default linda workers: n1
 Default is to use   8 SMP processors on each worker.
 Entering Link 1 = /hpc/softwares/Gaussian/g16/l1.exe PID=   1690485.
  
 Copyright (c) 1988-2021, Gaussian, Inc.  All Rights Reserved.
  
 This is part of the Gaussian(R) 16 program.  It is based on
 the Gaussian(R) 09 system (copyright 2009, Gaussian, Inc.),
 the Gaussian(R) 03 system (copyright 2003, Gaussian, Inc.),
 the Gaussian(R) 98 system (copyright 1998, Gaussian, Inc.),
 the Gaussian(R) 94 system (copyright 1995, Gaussian, Inc.),
 the Gaussian 92(TM) system (copyright 1992, Gaussian, Inc.),
 the Gaussian 90(TM) system (copyright 1990, Gaussian, Inc.),
 the Gaussian 88(TM) system (copyright 1988, Gaussian, Inc.),
 the Gaussian 86(TM) system (copyright 1986, Carnegie Mellon
 University), and the Gaussian 82(TM) system (copyright 1983,
 Carnegie Mellon University). Gaussian is a federally registered
 trademark of Gaussian, Inc.
  
 This software contains proprietary and confidential information,
 including trade secrets, belonging to Gaussian, Inc.
  
 This software is provided under written license and may be
 used, copied, transmitted, or stored only in accord with that
 written license.
  
 The following legend is applicable only to US Government
 contracts under FAR:
  
                    RESTRICTED RIGHTS LEGEND
  
 Use, reproduction and disclosure by the US Government is
 subject to restrictions as set forth in subparagraphs (a)
 and (c) of the Commercial Computer Software - Restricted
 Rights clause in FAR 52.227-19.
  
 Gaussian, Inc.
 340 Quinnipiac St., Bldg. 40, Wallingford CT 06492
  
  
 ---------------------------------------------------------------
 Warning -- This program may not be used in any manner that
 competes with the business of Gaussian, Inc. or will provide
 assistance to any competitor of Gaussian, Inc.  The licensee
 of this program is prohibited from giving any competitor of
 Gaussian, Inc. access to this program.  By using this program,
 the user acknowledges that Gaussian, Inc. is engaged in the
 business of creating and licensing software in the field of
 computational chemistry and represents and warrants to the
 licensee that it is not a competitor of Gaussian, Inc. and that
 it will not use this program in any manner prohibited above.
 ---------------------------------------------------------------
  

 Cite this work as:
 Gaussian 16, Revision C.02,
 M. J. Frisch, G. W. Trucks, H. B. Schlegel, G. E. Scuseria, 
 M. A. Robb, J. R. Cheeseman, G. Scalmani, V. Barone, 
 G. A. Petersson, H. Nakatsuji, X. Li, M. Caricato, A. V. Marenich, 
 J. Bloino, B. G. Janesko, R. Gomperts, B. Mennucci, H. P. Hratchian, 
 J. V. Ortiz, A. F. Izmaylov, J. L. Sonnenberg, D. Williams-Young, 
 F. Ding, F. Lipparini, F. Egidi, J. Goings, B. Peng, A. Petrone, 
 T. Henderson, D. Ranasinghe, V. G. Zakrzewski, J. Gao, N. Rega, 
 G. Zheng, W. Liang, M. Hada, M. Ehara, K. Toyota, R. Fukuda, 
 J. Hasegawa, M. Ishida, T. Nakajima, Y. Honda, O. Kitao, H. Nakai, 
 T. Vreven, K. Throssell, J. A. Montgomery, Jr., J. E. Peralta, 
 F. Ogliaro, M. J. Bearpark, J. J. Heyd, E. N. Brothers, K. N. Kudin, 
 V. N. Staroverov, T. A. Keith, R. Kobayashi, J. Normand, 
 K. Raghavachari, A. P. Rendell, J. C. Burant, S. S. Iyengar, 
 J. Tomasi, M. Cossi, J. M. Millam, M. Klene, C. Adamo, R. Cammi, 
 J. W. Ochterski, R. L. Martin, K. Morokuma, O. Farkas, 
 J. B. Foresman, and D. J. Fox, Gaussian, Inc., Wallingford CT, 2019.
 
 ******************************************
 Gaussian 16:  ES64L-G16RevC.02  7-Dec-2021
                29-Jul-2025 
 ******************************************
 SetLPE:    new flags="-opt 'Tsnet.Node.lindarsharg: ssh'  -nodelist 'n1' -env GAUSS_MDEF=2147483648 -env GAUSS_EXEDIR="/hpc/softwares/Gaussian/g16/bsd:/hpc/softwares/Gaussian/g16""
 Will use up to    1 processors via Linda.
 ----------------------------------------------------------
 # td=(50-50,nstates=3) b3lyp/6-31+g(d,p) geom=connectivity
 ----------------------------------------------------------
 1/38=1,57=2,172=1/1;
 2/12=2,17=6,18=5,40=1/2;
 3/5=1,6=6,7=111,11=9,25=1,30=1,74=-5/1,2,3,8;
 4//1;
 5/5=2,38=5/2;
 8/6=1,10=2,108=3/1;
 9/41=3,42=1,48=2,70=2/14;
 6/7=2,8=2,9=2,10=2/1;
 99/5=1,9=1/99;
 -------------------
 Title Card Required
 -------------------
 Symbolic Z-matrix:
 Charge =  0 Multiplicity = 1
 C                    -5.54331   0.25185  -0.28224 
 C                    -4.24063   0.39197   0.05233 
 C                    -3.72541   1.6447    0.53853 
 N                    -3.30649   2.65665   0.92871 
 C                    -3.30802  -0.70601  -0.0635 
 C                    -2.00478  -1.01304   0.14678 
 C                    -0.7294   -0.39847   0.62497 
 C                    -0.22293  -1.12914   1.88649 
 C                     0.31127  -0.38304  -0.54404 
 C                     1.66157   0.23995  -0.20779 
 C                     2.79263  -0.58147   0.05307 
 C                     2.73521  -2.11119  -0.02609 
 C                     3.09602  -2.59433  -1.44771 
 C                     3.61044  -2.82398   1.02179 
 C                     4.02495   0.02581   0.33043 
 C                     4.16011   1.4113    0.36113 
 C                     3.05286   2.2123    0.1054 
 C                     1.79952   1.65185  -0.18018 
 C                     0.64736   2.61314  -0.48667 
 C                     0.3904    3.60807   0.663 
 C                     0.88149   3.35923  -1.81723 
 C                    -2.37025  -2.37859  -0.34528 
 O                    -1.91636  -3.45491  -0.56243 
 O                    -3.75297  -1.96843  -0.54196 
 H                    -5.90811  -0.70137  -0.64729 
 H                    -6.23779   1.07903  -0.19252 
 H                    -0.94576   0.63834   0.90365 
 H                     0.72468  -0.69759   2.22011 
 H                    -0.94838  -1.03437   2.70031 
 H                    -0.06739  -2.1958    1.69597 
 H                     0.44151  -1.40811  -0.89615 
 H                    -0.14209   0.15456  -1.38311 
 H                     1.71023  -2.43112   0.1754 
 H                     3.01063  -3.68463  -1.52083 
 H                     2.43905  -2.15075  -2.20322 
 H                     4.12547  -2.31495  -1.69957 
 H                     3.40653  -3.90012   1.0025 
 H                     3.40596  -2.45766   2.03322 
 H                     4.68048  -2.69641   0.8267 
 H                     4.89579  -0.59133   0.52464 
 H                     5.12414   1.8619    0.58077 
 H                     3.16405   3.29248   0.12312 
 H                    -0.27306   2.03848  -0.6093 
 H                    -0.49846   4.21126   0.45197 
 H                     0.22293   3.08726   1.61134 
 H                     1.23556   4.29076   0.80249 
 H                     0.02563   4.00259  -2.05132 
 H                     1.02062   2.65872  -2.64775 
 H                     1.77334   3.99343  -1.766 
 
                          Input orientation:                          
 ---------------------------------------------------------------------
 Center     Atomic      Atomic             Coordinates (Angstroms)
 Number     Number       Type             X           Y           Z
 ---------------------------------------------------------------------
      1          6           0       -5.543311    0.251853   -0.282240
      2          6           0       -4.240630    0.391969    0.052332
      3          6           0       -3.725414    1.644702    0.538529
      4          7           0       -3.306489    2.656650    0.928710
      5          6           0       -3.308022   -0.706009   -0.063502
      6          6           0       -2.004780   -1.013040    0.146779
      7          6           0       -0.729397   -0.398465    0.624971
      8          6           0       -0.222931   -1.129140    1.886485
      9          6           0        0.311265   -0.383036   -0.544039
     10          6           0        1.661570    0.239953   -0.207790
     11          6           0        2.792632   -0.581473    0.053069
     12          6           0        2.735208   -2.111187   -0.026086
     13          6           0        3.096016   -2.594326   -1.447708
     14          6           0        3.610437   -2.823983    1.021792
     15          6           0        4.024946    0.025810    0.330432
     16          6           0        4.160114    1.411296    0.361133
     17          6           0        3.052860    2.212300    0.105399
     18          6           0        1.799515    1.651852   -0.180179
     19          6           0        0.647355    2.613139   -0.486673
     20          6           0        0.390404    3.608074    0.662995
     21          6           0        0.881491    3.359231   -1.817234
     22          6           0       -2.370245   -2.378588   -0.345284
     23          8           0       -1.916360   -3.454910   -0.562434
     24          8           0       -3.752968   -1.968434   -0.541964
     25          1           0       -5.908110   -0.701370   -0.647291
     26          1           0       -6.237793    1.079031   -0.192518
     27          1           0       -0.945763    0.638337    0.903647
     28          1           0        0.724681   -0.697589    2.220114
     29          1           0       -0.948378   -1.034367    2.700306
     30          1           0       -0.067389   -2.195802    1.695970
     31          1           0        0.441514   -1.408106   -0.896146
     32          1           0       -0.142089    0.154560   -1.383113
     33          1           0        1.710226   -2.431124    0.175399
     34          1           0        3.010628   -3.684625   -1.520833
     35          1           0        2.439050   -2.150753   -2.203217
     36          1           0        4.125472   -2.314945   -1.699565
     37          1           0        3.406532   -3.900122    1.002505
     38          1           0        3.405955   -2.457657    2.033217
     39          1           0        4.680483   -2.696412    0.826699
     40          1           0        4.895789   -0.591334    0.524642
     41          1           0        5.124140    1.861899    0.580765
     42          1           0        3.164051    3.292479    0.123119
     43          1           0       -0.273062    2.038484   -0.609302
     44          1           0       -0.498459    4.211255    0.451966
     45          1           0        0.222927    3.087263    1.611344
     46          1           0        1.235555    4.290764    0.802490
     47          1           0        0.025632    4.002590   -2.051317
     48          1           0        1.020617    2.658716   -2.647753
     49          1           0        1.773338    3.993434   -1.765998
 ---------------------------------------------------------------------
                    Distance matrix (angstroms):
                    1          2          3          4          5
     1  C    0.000000
     2  C    1.352238   0.000000
     3  C    2.432784   1.439158   0.000000
     4  N    3.500403   2.601814   1.162660   0.000000
     5  C    2.441693   1.445244   2.462214   3.505990   0.000000
     6  C    3.782223   2.642347   3.190242   3.971459   1.355332
     7  C    4.941631   3.644374   3.627413   4.008415   2.686612
     8  C    5.909057   4.671166   4.666752   4.975728   3.674136
     9  C    5.894717   4.655753   4.645261   4.949427   3.665306
    10  C    7.205275   5.909885   5.616931   5.640361   5.060880
    11  C    8.384200   7.100307   6.904814   6.960709   6.103038
    12  C    8.612981   7.411765   7.494340   7.755386   6.204559
    13  C    9.170443   8.061914   8.273234   8.614649   6.818612
    14  C    9.744351   8.539406   8.603336   8.825524   7.316335
    15  C    9.590516   8.278355   7.920366   7.812118   7.379916
    16  C    9.793605   8.467992   7.890976   7.590995   7.774082
    17  C    8.825405   7.517408   6.815773   6.427800   7.000420
    18  C    7.475795   6.174522   5.571484   5.320764   5.626727
    19  C    6.628862   5.395973   4.594564   4.199772   5.180813
    20  C    6.882344   5.671218   4.561828   3.826595   5.728653
    21  C    7.300006   6.207741   5.450945   5.056976   6.095389
    22  C    4.122080   3.366367   4.336412   5.277616   1.938130
    23  O    5.193590   4.536369   5.521851   6.442603   3.121236
    24  O    2.863994   2.482439   3.771336   4.873769   1.421485
    25  H    1.083962   2.113138   3.416780   4.530840   2.664824
    26  H    1.083780   2.126186   2.677025   3.512631   3.433158
    27  H    4.763732   3.411976   2.978681   3.106001   2.884946
    28  H    6.815493   5.526367   5.302584   5.400831   4.634400
    29  H    5.627020   4.459274   4.422965   4.724706   3.648887
    30  H    6.315857   5.178228   5.428654   5.884450   3.977050
    31  H    6.241032   5.105130   5.361084   5.822359   3.904517
    32  H    5.513129   4.349127   4.330525   4.649560   3.536253
    33  H    7.747361   6.587692   6.803705   7.184730   5.311865
    34  H    9.497360   8.466062   8.832721   9.279978   7.135917
    35  H    8.554575   7.494736   7.741012   8.119810   6.300357
    36  H   10.103595   8.965946   9.073273   9.319798   7.779602
    37  H    9.949329   8.820655   9.045717   9.384101   7.511589
    38  H    9.632868   8.397293   8.361810   8.510757   7.248585
    39  H   10.698036   9.472275   9.465063   9.615477   8.280723
    40  H   10.504134   9.201310   8.906469   8.831197   8.225666
    41  H   10.822732   9.494148   8.852320   8.475152   8.838019
    42  H    9.231894   7.952815   7.095947   6.551423   7.609892
    43  H    5.574455   4.346305   3.659415   3.456774   4.128089
    44  H    6.454956   5.361949   4.124067   3.244860   5.686725
    45  H    6.698859   5.442285   4.338353   3.620524   5.446248
    46  H    7.965078   6.764018   5.628724   4.828708   6.808948
    47  H    6.943399   5.971843   5.131986   4.668527   6.102095
    48  H    7.380636   6.333192   5.805638   5.613817   6.061093
    49  H    8.350708   7.241870   6.408093   5.903650   7.127656
                    6          7          8          9         10
     6  C    0.000000
     7  C    1.494313   0.000000
     8  C    2.492999   1.543312   0.000000
     9  C    2.497639   1.565184   2.597977   0.000000
    10  C    3.890737   2.611090   3.132371   1.524632   0.000000
    11  C    4.817696   3.572849   3.571411   2.559902   1.422002
    12  C    4.868603   3.919283   3.656902   3.021635   2.591057
    13  C    5.573237   4.873560   4.927375   3.668959   3.410010
    14  C    5.964547   4.987461   4.279591   4.392560   3.833753
    15  C    6.121318   4.782315   4.669012   3.837093   2.433328
    16  C    6.627916   5.220360   5.290709   4.341958   2.817524
    17  C    5.998688   4.625096   5.006825   3.830650   2.433912
    18  C    4.656309   3.353724   4.011895   2.547165   1.418890
    19  C    4.536988   3.492987   4.515964   3.015512   2.595847
    20  C    5.230495   4.160259   4.930954   4.170390   3.703832
    21  C    5.595057   4.762311   5.923070   3.993838   3.595654
    22  C    1.496801   2.748575   3.339591   3.348466   4.809490
    23  O    2.544313   3.487215   3.778110   3.794610   5.155518
    24  O    2.107915   3.601183   4.366113   4.362509   5.857121
    25  H    3.995456   5.341299   6.238932   6.228372   7.640635
    26  H    4.733950   5.761398   6.736233   6.719477   7.943817
    27  H    2.102715   1.095186   2.147657   2.172353   2.862200
    28  H    3.442119   2.179059   1.093395   2.812543   2.766128
    29  H    2.763501   2.181591   1.094331   3.540721   4.110078
    30  H    2.748163   2.194473   1.094649   2.906396   3.542104
    31  H    2.688517   2.168918   2.874429   1.091656   2.162977
    32  H    2.678335   2.164063   3.513501   1.094799   2.154498
    33  H    3.976563   3.207114   2.891379   2.582508   2.698862
    34  H    5.922214   5.421357   5.347544   4.375063   4.352741
    35  H    5.154076   4.594368   4.985529   3.225704   3.209623
    36  H    6.533294   5.713678   5.759731   4.428960   3.850157
    37  H    6.192722   5.432315   4.651103   4.933799   4.652948
    38  H    5.909452   4.829551   3.867208   4.530277   3.916898
    39  H    6.927393   5.881161   5.255755   5.130370   4.336616
    40  H    6.923761   5.629386   5.324016   4.712041   3.418723
    41  H    7.699034   6.274958   6.264374   5.428507   3.904090
    42  H    6.727174   5.388308   5.842245   4.700308   3.418313
    43  H    3.589193   2.769547   4.033027   2.491878   2.671840
    44  H    5.445677   4.618742   5.536567   4.770240   4.568615
    45  H    4.890819   3.745685   4.248829   4.086130   3.672345
    46  H    6.249805   5.087378   5.716431   4.950945   4.196573
    47  H    5.840440   5.205946   6.473231   4.646202   4.498035
    48  H    5.517629   4.808287   6.037680   3.765773   3.494947
    49  H    6.557261   5.591886   6.600491   4.773294   4.065603
                   11         12         13         14         15
    11  C    0.000000
    12  C    1.532837   0.000000
    13  C    2.529022   1.544220   0.000000
    14  C    2.576059   1.540179   2.532943   0.000000
    15  C    1.401542   2.521366   3.299971   2.961607   0.000000
    16  C    2.436399   3.819448   4.522081   4.321597   1.392402
    17  C    2.806354   4.337134   5.051500   5.149254   2.403400
    18  C    2.455285   3.880687   4.617096   4.975668   2.803084
    19  C    3.885754   5.185608   5.834143   6.373195   4.332442
    20  C    4.867752   6.219557   7.088383   7.201993   5.114011
    21  C    4.762315   6.047309   6.362823   7.330713   5.060185
    22  C    5.481205   5.122406   5.580492   6.151084   6.865580
    23  O    5.550684   4.871380   5.162192   5.783885   6.943467
    24  O    6.717336   6.510218   6.936908   7.576083   8.076759
    25  H    8.729707   8.779546   9.235704   9.894143  10.007514
    26  H    9.185105   9.524701  10.108860  10.662819  10.329887
    27  H    4.023309   4.687626   5.684625   5.723686   5.041003
    28  H    2.997664   3.329548   4.761697   3.779565   3.871169
    29  H    4.605229   4.707607   5.999718   5.177155   5.610190
    30  H    3.672179   3.290469   4.477573   3.791508   4.852572
    31  H    2.666850   2.551932   2.959344   3.965510   4.049888
    32  H    3.349172   3.905633   4.248043   5.360666   4.507438
    33  H    2.146573   1.092494   2.140450   2.116960   3.379125
    34  H    3.486293   2.187654   1.096080   2.750530   4.268882
    35  H    2.771008   2.197538   1.095059   3.496580   3.697549
    36  H    2.802341   2.185151   1.096023   2.816055   3.100021
    37  H    3.505957   2.170015   2.793755   1.095456   4.030764
    38  H    2.795929   2.193324   3.497368   1.094983   3.074123
    39  H    2.938614   2.203140   2.773785   1.095141   2.843678
    40  H    2.155400   2.698400   3.337862   2.623740   1.084874
    41  H    3.418254   4.675540   5.299616   4.944016   2.154557
    42  H    3.892347   5.422709   6.093160   6.198224   3.384560
    43  H    4.086733   5.158449   5.789347   6.433165   4.838060
    44  H    5.827576   7.117472   7.927480   8.167148   6.163920
    45  H    4.742492   6.001384   7.063490   6.838540   5.046640
    46  H    5.169605   6.627252   7.478581   7.503851   5.117946
    47  H    5.753118   6.987248   7.301432   8.300417   6.122256
    48  H    4.575292   5.706569   5.774239   7.087504   4.982747
    49  H    5.027697   6.420194   6.726765   7.591039   5.020637
                   16         17         18         19         20
    16  C    0.000000
    17  C    1.390330   0.000000
    18  C    2.433786   1.402330   0.000000
    19  C    3.808238   2.509517   1.531497   0.000000
    20  C    4.373519   3.057412   2.554083   1.541965   0.000000
    21  C    4.391936   3.118784   2.537294   1.543329   2.540595
    22  C    7.583392   7.119651   5.801604   5.834658   6.669178
    23  O    7.839418   7.566797   6.327153   6.587837   7.530510
    24  O    8.651880   8.013545   6.638330   6.352693   7.051021
    25  H   10.336799   9.452777   8.072381   7.347509   7.743348
    26  H   10.417936   9.364256   8.057704   7.060119   7.145695
    27  H    5.192472   4.370760   3.120648   2.893243   3.265363
    28  H    4.439077   4.284844   3.526549   4.277101   4.590762
    29  H    6.127780   5.769254   4.802487   5.099755   5.243590
    30  H    5.715306   5.630030   4.670086   5.329231   5.912833
    31  H    4.832987   4.574884   3.423466   4.047277   5.253151
    32  H    4.809442   4.081380   2.731073   2.733393   4.049304
    33  H    4.560772   4.834144   4.099403   5.197367   6.200935
    34  H    5.552614   6.117200   5.634016   6.805614   8.050971
    35  H    4.714461   4.974204   4.354480   5.371346   6.751015
    36  H    4.258233   4.990425   4.842942   6.152594   7.390168
    37  H    5.402815   6.188020   5.899632   7.228643   8.098475
    38  H    4.281754   5.064549   4.936379   6.298626   6.911161
    39  H    4.166629   5.221579   5.312361   6.795763   7.627458
    40  H    2.139738   3.381200   3.887875   5.416696   6.160573
    41  H    1.086567   2.153823   3.417058   4.663195   5.046201
    42  H    2.141878   1.086031   2.155367   2.677145   2.843270
    43  H    4.581283   3.406283   2.151559   1.091986   2.126626
    44  H    5.436021   4.089963   3.497261   2.178969   1.094732
    45  H    4.457952   3.322943   2.784886   2.192398   1.094833
    46  H    4.127854   2.847551   2.871854   2.195984   1.095356
    47  H    5.443222   4.125612   3.489096   2.182939   2.766982
    48  H    4.523925   3.450963   2.776577   2.193552   3.501357
    49  H    4.109601   2.883009   2.828164   2.193108   2.821527
                   21         22         23         24         25
    21  C    0.000000
    22  C    6.757440   0.000000
    23  O    7.472283   1.188122   0.000000
    24  O    7.175551   1.455621   2.362871   0.000000
    25  H    7.997245   3.926927   4.850077   2.502235   0.000000
    26  H    7.650047   5.190028   6.274412   3.947596   1.866906
    27  H    4.259732   3.562417   4.454899   4.094563   5.368902
    28  H    5.725605   4.357246   4.724457   5.412344   7.226060
    29  H    6.562034   3.619980   4.176301   4.387542   5.993015
    30  H    6.640886   3.082738   3.178747   4.317816   6.468247
    31  H    4.875396   3.025107   3.140118   4.246539   6.393679
    32  H    3.392063   3.529675   4.104854   4.272363   5.875462
    33  H    6.179450   4.113893   3.839878   5.529483   7.855438
    34  H    7.364576   5.660516   5.024590   7.046256   9.444934
    35  H    5.738893   5.160731   4.833486   6.413586   8.613750
    36  H    6.537089   6.635696   6.252705   7.970566  10.216833
    37  H    8.186878   6.123949   5.566006   7.574645   9.985810
    38  H    7.418563   6.247240   6.004911   7.623718   9.849948
    39  H    7.621911   7.154532   6.784051   8.574747  10.875254
    40  H    6.099667   7.533014   7.469081   8.822417  10.867832
    41  H    5.098281   8.660549   8.896291   9.733192  11.392498
    42  H    2.996582   7.937810   8.473949   8.715773   9.942257
    43  H    2.129898   4.896775   5.734109   5.307511   6.265940
    44  H    2.789171   6.896754   7.861904   7.054664   7.389626
    45  H    3.501831   6.358338   7.218164   6.782665   7.552800
    46  H    2.802868   7.668079   8.473078   8.116063   8.834886
    47  H    1.095993   7.026394   7.848720   7.225586   7.701157
    48  H    1.095372   6.494131   7.095831   6.973663   7.956085
    49  H    1.095550   7.732423   8.398825   8.220839   9.071788
                   26         27         28         29         30
    26  H    0.000000
    27  H    5.422303   0.000000
    28  H    7.579790   2.511606   0.000000
    29  H    6.388489   2.454777   1.772888   0.000000
    30  H    7.236353   3.071101   1.773906   1.770244   0.000000
    31  H    7.161989   3.058058   3.208753   3.873751   2.756540
    32  H    6.279313   2.471680   3.802722   4.328737   3.874343
    33  H    8.696411   4.123859   2.856099   3.923552   2.351048
    34  H   10.487618   6.341856   5.304962   6.365187   4.694529
    35  H    9.474282   5.374810   4.961512   6.063458   4.635507
    36  H   11.008521   6.419970   5.435541   6.836863   5.396660
    37  H   10.919389   6.288868   4.350990   5.482729   3.931123
    38  H   10.510182   5.458805   3.212787   4.629360   3.499489
    39  H   11.597479   6.540727   4.645995   6.160915   4.852683
    40  H   11.281006   5.981594   4.503783   6.251726   5.345976
    41  H   11.415094   6.200410   5.347306   7.053814   6.682858
    42  H    9.664039   4.954217   5.125286   6.501966   6.560281
    43  H    6.055764   2.168399   4.060441   4.566396   4.825532
    44  H    6.570094   3.629027   5.359027   5.724859   6.540929
    45  H    7.001987   2.804266   3.866195   4.421044   5.291712
    46  H    8.194889   4.255421   5.210980   6.060387   6.676190
    47  H    7.157711   4.581879   6.389482   6.992678   7.243678
    48  H    7.823561   4.534426   5.920177   6.790990   6.604395
    49  H    8.668783   5.077124   6.244555   7.254956   7.326673
                   31         32         33         34         35
    31  H    0.000000
    32  H    1.737715   0.000000
    33  H    1.950488   3.542004   0.000000
    34  H    3.489000   4.969701   2.477804   0.000000
    35  H    2.500022   3.556588   2.503519   1.773447   0.000000
    36  H    3.878065   4.940716   3.059804   1.775062   1.767666
    37  H    4.313508   5.892735   2.391550   2.563282   3.777958
    38  H    4.297748   5.575267   2.515490   3.780609   4.356199
    39  H    4.753608   6.022334   3.052375   3.045634   3.808170
    40  H    4.746190   5.438391   3.695214   4.160078   3.988555
    41  H    5.899253   5.874095   5.499925   6.296632   5.573297
    42  H    5.526899   4.800607   5.905588   7.169805   5.963744
    43  H    3.531555   2.040859   4.952432   6.660892   5.238876
    44  H    5.854756   4.466687   7.005425   8.862875   7.493604
    45  H    5.152051   4.207227   5.892927   7.964940   6.848276
    46  H    5.999415   4.876776   6.767742   8.494442   7.209426
    47  H    5.548244   3.909215   7.013473   8.263467   6.611451
    48  H    4.465706   3.036774   5.861077   6.743001   5.033940
    49  H    5.630900   4.307251   6.711777   7.780976   6.195593
                   36         37         38         39         40
    36  H    0.000000
    37  H    3.214163   0.000000
    38  H    3.804173   1.772871   0.000000
    39  H    2.614491   1.761470   1.771189   0.000000
    40  H    2.917417   3.659825   2.824635   2.137510   0.000000
    41  H    4.862434   6.027348   4.870353   4.586449   2.464477
    42  H    5.974087   7.250216   6.063914   6.217830   4.271316
    43  H    6.283957   7.169684   6.382269   7.001353   5.909212
    44  H    8.282579   9.019229   7.887914   8.641628   7.222746
    45  H    7.441494   7.702569   6.407479   7.344138   6.045547
    46  H    7.631991   8.476070   7.194895   7.790298   6.108142
    47  H    7.539474   9.121906   8.357320   8.650274   7.173432
    48  H    5.939401   7.876251   7.333389   7.358249   5.970249
    49  H    6.732948   8.522920   7.662640   7.741292   6.001402
                   41         42         43         44         45
    41  H    0.000000
    42  H    2.469402   0.000000
    43  H    5.529668   3.731312   0.000000
    44  H    6.095054   3.790286   2.428585   0.000000
    45  H    5.156113   3.302596   2.505436   1.768591   0.000000
    46  H    4.590168   2.275349   3.056444   1.770874   1.768636
    47  H    6.124149   3.883568   2.454860   2.566055   3.780454
    48  H    5.281775   3.560014   2.492704   3.785000   4.354293
    49  H    4.612875   2.448302   3.057373   3.182432   3.825096
                   46         47         48         49
    46  H    0.000000
    47  H    3.113065   0.000000
    48  H    3.822820   1.775311   0.000000
    49  H    2.640974   1.770866   1.767923   0.000000
 Stoichiometry    C21H25NO2
 Framework group  C1[X(C21H25NO2)]
 Deg. of freedom   141
 Full point group                 C1      NOp   1
 Largest Abelian subgroup         C1      NOp   1
 Largest concise Abelian subgroup C1      NOp   1
                         Standard orientation:                         
 ---------------------------------------------------------------------
 Center     Atomic      Atomic             Coordinates (Angstroms)
 Number     Number       Type             X           Y           Z
 ---------------------------------------------------------------------
      1          6           0        5.543311    0.251853    0.282240
      2          6           0        4.240630    0.391969   -0.052332
      3          6           0        3.725414    1.644702   -0.538529
      4          7           0        3.306489    2.656650   -0.928710
      5          6           0        3.308022   -0.706009    0.063502
      6          6           0        2.004780   -1.013040   -0.146779
      7          6           0        0.729397   -0.398465   -0.624971
      8          6           0        0.222931   -1.129140   -1.886485
      9          6           0       -0.311265   -0.383036    0.544039
     10          6           0       -1.661570    0.239953    0.207790
     11          6           0       -2.792632   -0.581473   -0.053069
     12          6           0       -2.735208   -2.111187    0.026086
     13          6           0       -3.096016   -2.594326    1.447708
     14          6           0       -3.610437   -2.823983   -1.021792
     15          6           0       -4.024946    0.025810   -0.330432
     16          6           0       -4.160114    1.411296   -0.361133
     17          6           0       -3.052860    2.212300   -0.105399
     18          6           0       -1.799515    1.651852    0.180179
     19          6           0       -0.647355    2.613139    0.486673
     20          6           0       -0.390404    3.608074   -0.662995
     21          6           0       -0.881491    3.359231    1.817234
     22          6           0        2.370245   -2.378588    0.345284
     23          8           0        1.916360   -3.454910    0.562434
     24          8           0        3.752968   -1.968434    0.541964
     25          1           0        5.908110   -0.701370    0.647291
     26          1           0        6.237793    1.079031    0.192518
     27          1           0        0.945763    0.638337   -0.903647
     28          1           0       -0.724681   -0.697589   -2.220114
     29          1           0        0.948378   -1.034367   -2.700306
     30          1           0        0.067389   -2.195802   -1.695970
     31          1           0       -0.441514   -1.408106    0.896146
     32          1           0        0.142089    0.154560    1.383113
     33          1           0       -1.710226   -2.431124   -0.175399
     34          1           0       -3.010628   -3.684625    1.520833
     35          1           0       -2.439050   -2.150753    2.203217
     36          1           0       -4.125472   -2.314945    1.699565
     37          1           0       -3.406532   -3.900122   -1.002505
     38          1           0       -3.405955   -2.457657   -2.033217
     39          1           0       -4.680483   -2.696412   -0.826699
     40          1           0       -4.895789   -0.591334   -0.524642
     41          1           0       -5.124140    1.861899   -0.580765
     42          1           0       -3.164051    3.292479   -0.123119
     43          1           0        0.273062    2.038484    0.609302
     44          1           0        0.498459    4.211255   -0.451966
     45          1           0       -0.222927    3.087263   -1.611344
     46          1           0       -1.235555    4.290764   -0.802490
     47          1           0       -0.025632    4.002590    2.051317
     48          1           0       -1.020617    2.658716    2.647753
     49          1           0       -1.773338    3.993434    1.765998
 ---------------------------------------------------------------------
 Rotational constants (GHZ):           0.3138203           0.1715515           0.1229148
 Standard basis: 6-31+G(d,p) (6D, 7F)
 There are   581 symmetry adapted cartesian basis functions of A   symmetry.
 There are   581 symmetry adapted basis functions of A   symmetry.
   581 basis functions,   943 primitive gaussians,   581 cartesian basis functions
    87 alpha electrons       87 beta electrons
       nuclear repulsion energy      2029.0962464262 Hartrees.
 NAtoms=   49 NActive=   49 NUniq=   49 SFac= 1.00D+00 NAtFMM=   60 NAOKFM=F Big=F
 Integral buffers will be    131072 words long.
 Regular integral format.
 Two-electron integral symmetry is turned on.
 One-electron integrals computed using PRISM.
 NBasis=   581 RedAO= T EigKep=  1.73D-06  NBF=   581
 NBsUse=   577 1.00D-06 EigRej=  9.09D-07 NBFU=   577
 ExpMin= 4.38D-02 ExpMax= 5.48D+03 ExpMxC= 8.25D+02 IAcc=3 IRadAn=         5 AccDes= 0.00D+00
 Harris functional with IExCor=  402 and IRadAn=       5 diagonalized for initial guess.
 HarFok:  IExCor=  402 AccDes= 0.00D+00 IRadAn=         5 IDoV= 1 UseB2=F ITyADJ=14
 ICtDFT=  3500011 ScaDFX=  1.000000  1.000000  1.000000  1.000000
 FoFCou: FMM=F IPFlag=           0 FMFlag=      100000 FMFlg1=           0
         NFxFlg=           0 DoJE=T BraDBF=F KetDBF=T FulRan=T
         wScrn=  0.000000 ICntrl=       500 IOpCl=  0 I1Cent=   200000004 NGrid=           0
         NMat0=    1 NMatS0=      1 NMatT0=    0 NMatD0=    1 NMtDS0=    0 NMtDT0=    0
 Petite list used in FoFCou.
 Requested convergence on RMS density matrix=1.00D-08 within 128 cycles.
 Requested convergence on MAX density matrix=1.00D-06.
 Requested convergence on             energy=1.00D-06.
 No special actions if energy rises.
 SCF Done:  E(RB3LYP) =  -1020.48775444     A.U. after   17 cycles
            NFock= 17  Conv=0.42D-08     -V/T= 2.0097
 DoSCS=F DFT=T ScalE2(SS,OS)=  1.000000  1.000000
 ExpMin= 4.38D-02 ExpMax= 5.48D+03 ExpMxC= 8.25D+02 IAcc=3 IRadAn=         5 AccDes= 0.00D+00
 HarFok:  IExCor=  205 AccDes= 0.00D+00 IRadAn=         5 IDoV=-2 UseB2=F ITyADJ=14
 ICtDFT= 12500011 ScaDFX=  1.000000  1.000000  1.000000  1.000000
 GSVD:  LWork=        -768 too small for GESVD, short by        3240 words or        3240 for optimal perf.
 Range of M.O.s used for correlation:    25   577
 NBasis=   581 NAE=    87 NBE=    87 NFC=    24 NFV=     0
 NROrb=    553 NOA=    63 NOB=    63 NVA=   490 NVB=   490

 **** Warning!!: The largest alpha MO coefficient is  0.15683110D+03

 Orbital symmetries:
       Occupied  (A) (A) (A) (A) (A) (A) (A) (A) (A) (A) (A) (A)
                 (A) (A) (A) (A) (A) (A) (A) (A) (A) (A) (A) (A)
                 (A) (A) (A) (A) (A) (A) (A) (A) (A) (A) (A) (A)
                 (A) (A) (A) (A) (A) (A) (A) (A) (A) (A) (A) (A)
                 (A) (A) (A) (A) (A) (A) (A) (A) (A) (A) (A) (A)
                 (A) (A) (A) (A) (A) (A) (A) (A) (A) (A) (A) (A)
                 (A) (A) (A) (A) (A) (A) (A) (A) (A) (A) (A) (A)
                 (A) (A) (A)
       Virtual   (A) (A) (A) (A) (A) (A) (A) (A) (A) (A) (A) (A)
                 (A) (A) (A) (A) (A) (A) (A) (A) (A) (A) (A) (A)
                 (A) (A) (A) (A) (A) (A) (A) (A) (A) (A) (A) (A)
                 (A) (A) (A) (A) (A) (A) (A) (A) (A) (A) (A) (A)
                 (A) (A) (A) (A) (A) (A) (A) (A) (A) (A) (A) (A)
                 (A) (A) (A) (A) (A) (A) (A) (A) (A) (A) (A) (A)
                 (A) (A) (A) (A) (A) (A) (A) (A) (A) (A) (A) (A)
                 (A) (A) (A) (A) (A) (A) (A) (A) (A) (A) (A) (A)
                 (A) (A) (A) (A) (A) (A) (A) (A) (A) (A) (A) (A)
                 (A) (A) (A) (A) (A) (A) (A) (A) (A) (A) (A) (A)
                 (A) (A) (A) (A) (A) (A) (A) (A) (A) (A) (A) (A)
                 (A) (A) (A) (A) (A) (A) (A) (A) (A) (A) (A) (A)
                 (A) (A) (A) (A) (A) (A) (A) (A) (A) (A) (A) (A)
                 (A) (A) (A) (A) (A) (A) (A) (A) (A) (A) (A) (A)
                 (A) (A) (A) (A) (A) (A) (A) (A) (A) (A) (A) (A)
                 (A) (A) (A) (A) (A) (A) (A) (A) (A) (A) (A) (A)
                 (A) (A) (A) (A) (A) (A) (A) (A) (A) (A) (A) (A)
                 (A) (A) (A) (A) (A) (A) (A) (A) (A) (A) (A) (A)
                 (A) (A) (A) (A) (A) (A) (A) (A) (A) (A) (A) (A)
                 (A) (A) (A) (A) (A) (A) (A) (A) (A) (A) (A) (A)
                 (A) (A) (A) (A) (A) (A) (A) (A) (A) (A) (A) (A)
                 (A) (A) (A) (A) (A) (A) (A) (A) (A) (A) (A) (A)
                 (A) (A) (A) (A) (A) (A) (A) (A) (A) (A) (A) (A)
                 (A) (A) (A) (A) (A) (A) (A) (A) (A) (A) (A) (A)
                 (A) (A) (A) (A) (A) (A) (A) (A) (A) (A) (A) (A)
                 (A) (A) (A) (A) (A) (A) (A) (A) (A) (A) (A) (A)
                 (A) (A) (A) (A) (A) (A) (A) (A) (A) (A) (A) (A)
                 (A) (A) (A) (A) (A) (A) (A) (A) (A) (A) (A) (A)
                 (A) (A) (A) (A) (A) (A) (A) (A) (A) (A) (A) (A)
                 (A) (A) (A) (A) (A) (A) (A) (A) (A) (A) (A) (A)
                 (A) (A) (A) (A) (A) (A) (A) (A) (A) (A) (A) (A)
                 (A) (A) (A) (A) (A) (A) (A) (A) (A) (A) (A) (A)
                 (A) (A) (A) (A) (A) (A) (A) (A) (A) (A) (A) (A)
                 (A) (A) (A) (A) (A) (A) (A) (A) (A) (A) (A) (A)
                 (A) (A) (A) (A) (A) (A) (A) (A) (A) (A) (A) (A)
                 (A) (A) (A) (A) (A) (A) (A) (A) (A) (A) (A) (A)
                 (A) (A) (A) (A) (A) (A) (A) (A) (A) (A) (A) (A)
                 (A) (A) (A) (A) (A) (A) (A) (A) (A) (A) (A) (A)
                 (A) (A) (A) (A) (A) (A) (A) (A) (A) (A) (A) (A)
                 (A) (A) (A) (A) (A) (A) (A) (A) (A) (A) (A) (A)
                 (A) (A) (A) (A) (A) (A) (A) (A) (A) (A)
    24 initial guesses have been made.
 Convergence on wavefunction:    0.001000000000000
 Iteration     1 Dimension    24 NMult     0 NNew     24
 CISAX will form    24 AO SS matrices at one time.
 New state      1 was old state      6
 New state      3 was old state      1
 New state      4 was old state      3
 New state      5 was old state      4
 New state      6 was old state     18
 New state      7 was old state      5
 New state      9 was old state      7
 New state     10 was old state     12
 New state     12 was old state     10
 Vector   6 SDiff=6.30D+00 TDiff=6.88D+01 assumed to be singlet.
 Vector  12 SDiff=3.43D+00 TDiff=4.82D+01 assumed to be singlet.
 Iteration     2 Dimension    36 NMult    24 NNew     12
 New state      6 was old state      7
 Iteration     3 Dimension    48 NMult    36 NNew     12
 Iteration     4 Dimension    60 NMult    48 NNew     12
 Iteration     5 Dimension    72 NMult    60 NNew     12
 Iteration     6 Dimension    80 NMult    72 NNew      8
 ***********************************************************************
 Excited states from <AA,BB:AA,BB> singles matrix:
 ***********************************************************************
 
 Ground to excited state transition densities written to RWF  633
 Ground to excited state transition electric dipole moments (Au):
       state          X           Y           Z        Dip. S.      Osc.
         1        -0.0000      0.0000      0.0000      0.0000      0.0000
         2        -0.0000     -0.0000     -0.0000      0.0000      0.0000
         3         0.3556     -0.0059      0.0106      0.1266      0.0089
         4         0.7329      0.0773      0.0220      0.5436      0.0383
         5         0.0000     -0.0000     -0.0000      0.0000      0.0000
         6        -1.1970     -0.4470     -0.1006      1.6427      0.1396
 Ground to excited state transition velocity dipole moments (Au):
       state          X           Y           Z        Dip. S.      Osc.
         1         0.0000     -0.0000     -0.0000      0.0000      0.0000
         2        -0.0000     -0.0000     -0.0000      0.0000      0.0000
         3        -0.0358      0.0022     -0.0009      0.0013      0.0081
         4        -0.0751     -0.0063     -0.0025      0.0057      0.0359
         5         0.0000      0.0000      0.0000      0.0000      0.0000
         6         0.1475      0.0484      0.0141      0.0243      0.1271
 Ground to excited state transition magnetic dipole moments (Au):
       state          X           Y           Z
         1        -0.0000      0.0000      0.0000
         2        -0.0000      0.0000      0.0000
         3         0.0112      0.0307     -0.1311
         4        -0.0151      0.1041     -0.0951
         5        -0.0000     -0.0000     -0.0000
         6         0.0838     -0.1871      0.1910
 Ground to excited state transition velocity quadrupole moments (Au):
       state          XX          YY          ZZ          XY          XZ          YZ
         1         0.0000      0.0000      0.0000      0.0000     -0.0000      0.0000
         2         0.0000      0.0000      0.0000      0.0000     -0.0000     -0.0000
         3        -0.2490      0.0385      0.0165     -0.0534     -0.0045      0.0119
         4        -0.4360      0.0568      0.0272     -0.0650     -0.0106      0.0083
         5         0.0000     -0.0000      0.0000      0.0000      0.0000      0.0000
         6         1.5272     -0.1849     -0.0586      0.2745      0.0610     -0.0345
 <0|del|b> * <b|rxdel|0> + <0|del|b> * <b|delr+rdel|0>
 Rotatory Strengths (R) in cgs (10**-40 erg-esu-cm/Gauss)
       state          XX          YY          ZZ    R(velocity)    E-M Angle
         1        -0.0000     -0.0000     -0.0000     -0.0000       90.00
         2        -0.0000      0.0000     -0.0000     -0.0000       90.00
         3         0.8019     -2.5563      0.2776     -0.4923       92.60
         4        -1.0513      1.9645      3.9230      1.6121       86.13
         5        -0.0000     -0.0000      0.0000     -0.0000       90.00
         6       -15.1640     16.9102     31.4473     11.0645       82.13
 1/2[<0|r|b>*<b|rxdel|0> + (<0|rxdel|b>*<b|r|0>)*]
 Rotatory Strengths (R) in cgs (10**-40 erg-esu-cm/Gauss)
       state          XX          YY          ZZ     R(length)
         1        -0.0000     -0.0000     -0.0000     -0.0000
         2        -0.0000      0.0000      0.0000     -0.0000
         3        -2.8249      0.1289      0.9864     -0.5699
         4         7.8207     -5.6928      1.4813      1.2030
         5         0.0000     -0.0000     -0.0000     -0.0000
         6        70.9279    -59.1516     13.5816      8.4526
  1/2[<0|del|b>*<b|r|0> + (<0|r|b>*<b|del|0>)*] (Au)
       state          X           Y           Z        Dip. S.   Osc.(frdel)
         1        -0.0000     -0.0000     -0.0000      0.0000      0.0000
         2         0.0000      0.0000      0.0000     -0.0000     -0.0000
         3        -0.0127     -0.0000     -0.0000      0.0127      0.0085
         4        -0.0551     -0.0005     -0.0001      0.0556      0.0371
         5         0.0000     -0.0000     -0.0000      0.0000      0.0000
         6        -0.1765     -0.0217     -0.0014      0.1996      0.1331

 Excitation energies and oscillator strengths:
 
 Excited State   1:      Triplet-A      1.8764 eV  660.75 nm  f=0.0000  <S**2>=2.000
      81 -> 88         0.13827
      85 -> 88         0.61745
      86 -> 88        -0.30928
      85 <- 88         0.12483
 This state for optimization and/or second-order correction.
 Total Energy, E(TD-HF/TD-DFT) =  -1020.41879710    
 Copying the excited state density for this state as the 1-particle RhoCI density.
 
 Excited State   2:      Triplet-A      2.8624 eV  433.15 nm  f=0.0000  <S**2>=2.000
      87 -> 88         0.70034
 
 Excited State   3:      Singlet-A      2.8649 eV  432.76 nm  f=0.0089  <S**2>=0.000
      86 -> 88         0.37263
      87 -> 88         0.60031
 
 Excited State   4:      Singlet-A      2.8738 eV  431.43 nm  f=0.0383  <S**2>=0.000
      86 -> 88         0.59874
      87 -> 88        -0.37331
 
 Excited State   5:      Triplet-A      2.9219 eV  424.32 nm  f=0.0000  <S**2>=2.000
      85 -> 88         0.29910
      86 -> 88         0.62773
 
 Excited State   6:      Singlet-A      3.4676 eV  357.55 nm  f=0.1396  <S**2>=0.000
      81 -> 88        -0.16220
      85 -> 88         0.68009
 SavETr:  write IOETrn=   770 NScale= 10 NData=  16 NLR=1 NState=    6 LETran=     118.

 **********************************************************************

            Population analysis using the SCF Density.

 **********************************************************************

 Orbital symmetries:
       Occupied  (A) (A) (A) (A) (A) (A) (A) (A) (A) (A) (A) (A)
                 (A) (A) (A) (A) (A) (A) (A) (A) (A) (A) (A) (A)
                 (A) (A) (A) (A) (A) (A) (A) (A) (A) (A) (A) (A)
                 (A) (A) (A) (A) (A) (A) (A) (A) (A) (A) (A) (A)
                 (A) (A) (A) (A) (A) (A) (A) (A) (A) (A) (A) (A)
                 (A) (A) (A) (A) (A) (A) (A) (A) (A) (A) (A) (A)
                 (A) (A) (A) (A) (A) (A) (A) (A) (A) (A) (A) (A)
                 (A) (A) (A)
       Virtual   (A) (A) (A) (A) (A) (A) (A) (A) (A) (A) (A) (A)
                 (A) (A) (A) (A) (A) (A) (A) (A) (A) (A) (A) (A)
                 (A) (A) (A) (A) (A) (A) (A) (A) (A) (A) (A) (A)
                 (A) (A) (A) (A) (A) (A) (A) (A) (A) (A) (A) (A)
                 (A) (A) (A) (A) (A) (A) (A) (A) (A) (A) (A) (A)
                 (A) (A) (A) (A) (A) (A) (A) (A) (A) (A) (A) (A)
                 (A) (A) (A) (A) (A) (A) (A) (A) (A) (A) (A) (A)
                 (A) (A) (A) (A) (A) (A) (A) (A) (A) (A) (A) (A)
                 (A) (A) (A) (A) (A) (A) (A) (A) (A) (A) (A) (A)
                 (A) (A) (A) (A) (A) (A) (A) (A) (A) (A) (A) (A)
                 (A) (A) (A) (A) (A) (A) (A) (A) (A) (A) (A) (A)
                 (A) (A) (A) (A) (A) (A) (A) (A) (A) (A) (A) (A)
                 (A) (A) (A) (A) (A) (A) (A) (A) (A) (A) (A) (A)
                 (A) (A) (A) (A) (A) (A) (A) (A) (A) (A) (A) (A)
                 (A) (A) (A) (A) (A) (A) (A) (A) (A) (A) (A) (A)
                 (A) (A) (A) (A) (A) (A) (A) (A) (A) (A) (A) (A)
                 (A) (A) (A) (A) (A) (A) (A) (A) (A) (A) (A) (A)
                 (A) (A) (A) (A) (A) (A) (A) (A) (A) (A) (A) (A)
                 (A) (A) (A) (A) (A) (A) (A) (A) (A) (A) (A) (A)
                 (A) (A) (A) (A) (A) (A) (A) (A) (A) (A) (A) (A)
                 (A) (A) (A) (A) (A) (A) (A) (A) (A) (A) (A) (A)
                 (A) (A) (A) (A) (A) (A) (A) (A) (A) (A) (A) (A)
                 (A) (A) (A) (A) (A) (A) (A) (A) (A) (A) (A) (A)
                 (A) (A) (A) (A) (A) (A) (A) (A) (A) (A) (A) (A)
                 (A) (A) (A) (A) (A) (A) (A) (A) (A) (A) (A) (A)
                 (A) (A) (A) (A) (A) (A) (A) (A) (A) (A) (A) (A)
                 (A) (A) (A) (A) (A) (A) (A) (A) (A) (A) (A) (A)
                 (A) (A) (A) (A) (A) (A) (A) (A) (A) (A) (A) (A)
                 (A) (A) (A) (A) (A) (A) (A) (A) (A) (A) (A) (A)
                 (A) (A) (A) (A) (A) (A) (A) (A) (A) (A) (A) (A)
                 (A) (A) (A) (A) (A) (A) (A) (A) (A) (A) (A) (A)
                 (A) (A) (A) (A) (A) (A) (A) (A) (A) (A) (A) (A)
                 (A) (A) (A) (A) (A) (A) (A) (A) (A) (A) (A) (A)
                 (A) (A) (A) (A) (A) (A) (A) (A) (A) (A) (A) (A)
                 (A) (A) (A) (A) (A) (A) (A) (A) (A) (A) (A) (A)
                 (A) (A) (A) (A) (A) (A) (A) (A) (A) (A) (A) (A)
                 (A) (A) (A) (A) (A) (A) (A) (A) (A) (A) (A) (A)
                 (A) (A) (A) (A) (A) (A) (A) (A) (A) (A) (A) (A)
                 (A) (A) (A) (A) (A) (A) (A) (A) (A) (A) (A) (A)
                 (A) (A) (A) (A) (A) (A) (A) (A) (A) (A) (A) (A)
                 (A) (A) (A) (A) (A) (A) (A) (A) (A) (A)
 The electronic state is 1-A.
 Alpha  occ. eigenvalues --  -19.21115 -19.19740 -14.37581 -10.35578 -10.30897
 Alpha  occ. eigenvalues --  -10.28806 -10.26736 -10.26002 -10.24002 -10.22790
 Alpha  occ. eigenvalues --  -10.20301 -10.20278 -10.19960 -10.19938 -10.19857
 Alpha  occ. eigenvalues --  -10.19827 -10.19262 -10.19101 -10.18708 -10.18683
 Alpha  occ. eigenvalues --  -10.18035 -10.17993 -10.17940 -10.17529  -1.13609
 Alpha  occ. eigenvalues --   -1.07875  -0.94360  -0.87100  -0.86793  -0.84258
 Alpha  occ. eigenvalues --   -0.81519  -0.79183  -0.78261  -0.74816  -0.72380
 Alpha  occ. eigenvalues --   -0.70845  -0.69333  -0.68728  -0.68455  -0.66096
 Alpha  occ. eigenvalues --   -0.63658  -0.62874  -0.59863  -0.57598  -0.55240
 Alpha  occ. eigenvalues --   -0.54124  -0.53973  -0.51784  -0.50340  -0.49993
 Alpha  occ. eigenvalues --   -0.49386  -0.49122  -0.47244  -0.45781  -0.45269
 Alpha  occ. eigenvalues --   -0.44356  -0.44287  -0.43783  -0.42978  -0.42581
 Alpha  occ. eigenvalues --   -0.42443  -0.42072  -0.41276  -0.40710  -0.40569
 Alpha  occ. eigenvalues --   -0.39641  -0.39123  -0.38671  -0.38311  -0.38102
 Alpha  occ. eigenvalues --   -0.37511  -0.37311  -0.36918  -0.36737  -0.35591
 Alpha  occ. eigenvalues --   -0.35534  -0.34784  -0.34547  -0.33351  -0.32988
 Alpha  occ. eigenvalues --   -0.32368  -0.31906  -0.31648  -0.31086  -0.26524
 Alpha  occ. eigenvalues --   -0.24144  -0.24005
 Alpha virt. eigenvalues --   -0.11947  -0.04743  -0.01746  -0.01452  -0.01130
 Alpha virt. eigenvalues --   -0.00262   0.00219   0.00935   0.01071   0.01285
 Alpha virt. eigenvalues --    0.02195   0.02601   0.02943   0.03078   0.03321
 Alpha virt. eigenvalues --    0.03668   0.04054   0.04816   0.04987   0.05115
 Alpha virt. eigenvalues --    0.05564   0.05854   0.06015   0.06313   0.06604
 Alpha virt. eigenvalues --    0.06996   0.07137   0.07640   0.07910   0.08705
 Alpha virt. eigenvalues --    0.08859   0.08883   0.09274   0.09594   0.09742
 Alpha virt. eigenvalues --    0.10180   0.10475   0.10696   0.10945   0.11222
 Alpha virt. eigenvalues --    0.11505   0.11696   0.11813   0.12116   0.12469
 Alpha virt. eigenvalues --    0.12693   0.12959   0.13106   0.13854   0.14056
 Alpha virt. eigenvalues --    0.14487   0.14679   0.14931   0.15266   0.15494
 Alpha virt. eigenvalues --    0.16310   0.16595   0.16677   0.17273   0.17506
 Alpha virt. eigenvalues --    0.17793   0.18006   0.18221   0.18721   0.18824
 Alpha virt. eigenvalues --    0.18982   0.19404   0.19452   0.19726   0.19890
 Alpha virt. eigenvalues --    0.20309   0.20418   0.20792   0.20952   0.21099
 Alpha virt. eigenvalues --    0.21523   0.22184   0.22418   0.22613   0.23081
 Alpha virt. eigenvalues --    0.23120   0.23366   0.23742   0.23938   0.23967
 Alpha virt. eigenvalues --    0.24291   0.24752   0.24895   0.25335   0.25738
 Alpha virt. eigenvalues --    0.25945   0.25972   0.26157   0.26619   0.26763
 Alpha virt. eigenvalues --    0.27094   0.27346   0.27525   0.27774   0.27976
 Alpha virt. eigenvalues --    0.28133   0.28353   0.28542   0.29257   0.29653
 Alpha virt. eigenvalues --    0.29736   0.30219   0.30509   0.30949   0.31020
 Alpha virt. eigenvalues --    0.31628   0.31771   0.31915   0.32251   0.32402
 Alpha virt. eigenvalues --    0.33130   0.33577   0.34158   0.34513   0.34664
 Alpha virt. eigenvalues --    0.35090   0.35259   0.35593   0.36144   0.36622
 Alpha virt. eigenvalues --    0.37011   0.37496   0.37994   0.38171   0.39096
 Alpha virt. eigenvalues --    0.39358   0.39876   0.40968   0.41836   0.42324
 Alpha virt. eigenvalues --    0.42663   0.42997   0.43196   0.44475   0.44950
 Alpha virt. eigenvalues --    0.47343   0.48101   0.48611   0.51052   0.51279
 Alpha virt. eigenvalues --    0.52072   0.57818   0.57947   0.60493   0.64980
 Alpha virt. eigenvalues --    0.65053   0.66125   0.66980   0.67137   0.67936
 Alpha virt. eigenvalues --    0.68581   0.69008   0.69429   0.69526   0.70440
 Alpha virt. eigenvalues --    0.70908   0.71290   0.72283   0.72715   0.73209
 Alpha virt. eigenvalues --    0.73551   0.73909   0.74530   0.74794   0.75564
 Alpha virt. eigenvalues --    0.75819   0.76772   0.77113   0.77327   0.78440
 Alpha virt. eigenvalues --    0.78611   0.79620   0.80200   0.80690   0.81058
 Alpha virt. eigenvalues --    0.82091   0.82437   0.82782   0.82954   0.83591
 Alpha virt. eigenvalues --    0.83673   0.85344   0.85778   0.86270   0.86443
 Alpha virt. eigenvalues --    0.87031   0.88620   0.89563   0.90222   0.90727
 Alpha virt. eigenvalues --    0.90967   0.92673   0.92845   0.93001   0.94054
 Alpha virt. eigenvalues --    0.94840   0.96092   0.96492   0.97625   0.98006
 Alpha virt. eigenvalues --    0.99530   0.99733   1.00897   1.01138   1.01838
 Alpha virt. eigenvalues --    1.01939   1.02473   1.02896   1.03655   1.03968
 Alpha virt. eigenvalues --    1.04627   1.04973   1.05202   1.05654   1.07280
 Alpha virt. eigenvalues --    1.07915   1.08555   1.09166   1.10097   1.11296
 Alpha virt. eigenvalues --    1.11819   1.12639   1.14547   1.15072   1.15487
 Alpha virt. eigenvalues --    1.15970   1.16783   1.17713   1.18613   1.19357
 Alpha virt. eigenvalues --    1.19752   1.20081   1.21208   1.21368   1.23162
 Alpha virt. eigenvalues --    1.24127   1.24718   1.25359   1.25949   1.26933
 Alpha virt. eigenvalues --    1.27121   1.27651   1.28113   1.28592   1.30240
 Alpha virt. eigenvalues --    1.30350   1.31055   1.31700   1.32113   1.33290
 Alpha virt. eigenvalues --    1.34383   1.34509   1.35792   1.36004   1.38208
 Alpha virt. eigenvalues --    1.38811   1.39568   1.40858   1.41329   1.41889
 Alpha virt. eigenvalues --    1.42657   1.44103   1.44533   1.45651   1.48607
 Alpha virt. eigenvalues --    1.48848   1.49845   1.51314   1.51753   1.52102
 Alpha virt. eigenvalues --    1.53361   1.55205   1.55999   1.56770   1.59826
 Alpha virt. eigenvalues --    1.60265   1.61013   1.63587   1.64244   1.66426
 Alpha virt. eigenvalues --    1.67476   1.69478   1.71233   1.71934   1.73344
 Alpha virt. eigenvalues --    1.73859   1.75289   1.76858   1.77447   1.78125
 Alpha virt. eigenvalues --    1.79731   1.81755   1.83827   1.84163   1.84638
 Alpha virt. eigenvalues --    1.85146   1.85768   1.86280   1.86915   1.87169
 Alpha virt. eigenvalues --    1.87858   1.88169   1.88580   1.88710   1.90988
 Alpha virt. eigenvalues --    1.91644   1.92453   1.93167   1.94439   1.95354
 Alpha virt. eigenvalues --    1.95761   1.96309   1.96983   1.97822   1.98355
 Alpha virt. eigenvalues --    1.99456   2.01549   2.01838   2.03217   2.03811
 Alpha virt. eigenvalues --    2.04410   2.04989   2.05050   2.05879   2.06139
 Alpha virt. eigenvalues --    2.06676   2.07637   2.07942   2.08412   2.09664
 Alpha virt. eigenvalues --    2.10892   2.11031   2.12370   2.12440   2.13530
 Alpha virt. eigenvalues --    2.13861   2.14214   2.14632   2.15032   2.15453
 Alpha virt. eigenvalues --    2.15739   2.16493   2.17029   2.17890   2.18285
 Alpha virt. eigenvalues --    2.19382   2.19606   2.22278   2.22963   2.24241
 Alpha virt. eigenvalues --    2.26181   2.27246   2.28819   2.29312   2.29991
 Alpha virt. eigenvalues --    2.31001   2.32011   2.33981   2.34732   2.36111
 Alpha virt. eigenvalues --    2.36860   2.37294   2.37902   2.38354   2.38649
 Alpha virt. eigenvalues --    2.40335   2.40771   2.41432   2.42762   2.43698
 Alpha virt. eigenvalues --    2.45121   2.47147   2.47571   2.49206   2.49698
 Alpha virt. eigenvalues --    2.50849   2.53168   2.53822   2.54322   2.54726
 Alpha virt. eigenvalues --    2.55086   2.56422   2.57529   2.60152   2.61667
 Alpha virt. eigenvalues --    2.62358   2.62809   2.64302   2.65930   2.66850
 Alpha virt. eigenvalues --    2.67116   2.69287   2.70662   2.71083   2.71720
 Alpha virt. eigenvalues --    2.72717   2.73719   2.74193   2.74469   2.75537
 Alpha virt. eigenvalues --    2.76204   2.76788   2.77423   2.78025   2.78908
 Alpha virt. eigenvalues --    2.79439   2.79792   2.81644   2.82717   2.83251
 Alpha virt. eigenvalues --    2.84154   2.84683   2.88112   2.88850   2.89161
 Alpha virt. eigenvalues --    2.89635   2.90400   2.90584   2.91216   2.91546
 Alpha virt. eigenvalues --    2.92152   2.94073   2.97454   2.97838   2.98705
 Alpha virt. eigenvalues --    3.03936   3.05658   3.07877   3.11140   3.13019
 Alpha virt. eigenvalues --    3.17184   3.22108   3.25740   3.27462   3.27705
 Alpha virt. eigenvalues --    3.28225   3.28672   3.29305   3.29797   3.30555
 Alpha virt. eigenvalues --    3.31333   3.32456   3.39257   3.40183   3.41470
 Alpha virt. eigenvalues --    3.41787   3.44110   3.44962   3.45938   3.46042
 Alpha virt. eigenvalues --    3.50070   3.50389   3.51204   3.51855   3.53026
 Alpha virt. eigenvalues --    3.54251   3.57714   3.59154   3.60312   3.61909
 Alpha virt. eigenvalues --    3.81475   4.23365   4.28221   4.32529   4.32966
 Alpha virt. eigenvalues --    4.37038   4.39041   4.41490   4.43265   4.47616
 Alpha virt. eigenvalues --    4.48294   4.49005   4.52991   4.55097   4.56832
 Alpha virt. eigenvalues --    4.58140   4.59097   4.62543   4.70092   4.72664
 Alpha virt. eigenvalues --    4.75606   4.79169   4.86958   4.88493   4.94730
          Condensed to atoms (all electrons):
               1          2          3          4          5          6
     1  C    7.049906  -0.037906  -1.626143  -0.003596  -0.071064  -0.286960
     2  C   -0.037906  11.707539  -2.087086  -0.002439  -4.536960   1.864412
     3  C   -1.626143  -2.087086  10.988875   0.125282   0.006797  -0.557241
     4  N   -0.003596  -0.002439   0.125282   7.207534   0.077316   0.076211
     5  C   -0.071064  -4.536960   0.006797   0.077316  10.933484  -1.109251
     6  C   -0.286960   1.864412  -0.557241   0.076211  -1.109251  14.582839
     7  C    0.311166  -1.283297   0.491158  -0.056145   0.429503  -8.075817
     8  C   -0.025021   0.012005   0.188640  -0.010651  -0.228871  -1.241009
     9  C   -0.017033   0.009553  -0.132015  -0.008149   0.505047   1.698977
    10  C    0.001296   0.063597   0.029756   0.001093  -0.348919   0.056998
    11  C    0.003471  -0.023107   0.003416  -0.000479  -0.060879  -0.575561
    12  C   -0.000734   0.005116  -0.006377   0.000087  -0.000380   0.248965
    13  C    0.000371  -0.003161  -0.001603   0.000079   0.001361   0.045949
    14  C   -0.000113  -0.000653   0.000764  -0.000069  -0.001920  -0.054996
    15  C    0.000680  -0.010350   0.001773   0.000036  -0.059927  -0.392872
    16  C   -0.000063   0.003139  -0.005533   0.000340   0.012349   0.127449
    17  C    0.001496  -0.009056   0.022357  -0.001520  -0.041277  -0.519860
    18  C    0.004828  -0.032462  -0.006334  -0.007814  -0.008629  -0.548028
    19  C   -0.006726  -0.004282  -0.007934  -0.003438  -0.003458   0.431258
    20  C    0.005186   0.035856  -0.006075   0.012968  -0.043336  -0.121733
    21  C   -0.001440  -0.034919   0.004458  -0.005794   0.028930   0.019585
    22  C   -0.181743  -0.740498  -0.424452   0.027619   0.342553   0.320190
    23  O   -0.005126   0.044275   0.004975  -0.000187  -0.015775  -0.097997
    24  O    0.075688   0.025357  -0.068250   0.001374   0.113767  -0.219432
    25  H    0.500042  -0.138588  -0.002200  -0.000055   0.008807  -0.000883
    26  H    0.409110  -0.131644   0.047332   0.000713   0.033627  -0.006603
    27  H   -0.002838   0.008257  -0.012133   0.007063  -0.017360   0.181734
    28  H    0.000167   0.001247  -0.002385   0.000147  -0.006418  -0.077199
    29  H   -0.000044   0.003122   0.003128  -0.000358  -0.000314   0.066091
    30  H   -0.000443  -0.007451   0.000565   0.000012  -0.001953   0.030079
    31  H   -0.000185   0.001647  -0.001544   0.000097   0.005777   0.143325
    32  H    0.001115   0.034399   0.002206  -0.000396  -0.018009  -0.013823
    33  H   -0.000021   0.000650   0.000228  -0.000001   0.000987  -0.026573
    34  H   -0.000000  -0.000024  -0.000001   0.000000  -0.000201  -0.001417
    35  H    0.000004   0.000057  -0.000029   0.000000   0.000018   0.005192
    36  H    0.000000   0.000002  -0.000000   0.000000   0.000007  -0.000588
    37  H    0.000000  -0.000007  -0.000002   0.000000  -0.000141  -0.001397
    38  H   -0.000000   0.000002   0.000002  -0.000000  -0.000032  -0.001087
    39  H   -0.000000   0.000000   0.000000  -0.000000   0.000017  -0.000171
    40  H   -0.000000  -0.000000   0.000002  -0.000000   0.000009   0.000066
    41  H   -0.000000  -0.000000  -0.000000   0.000000   0.000010   0.000030
    42  H    0.000000   0.000033  -0.000084   0.000011   0.000024   0.000927
    43  H    0.002469   0.002176  -0.005007   0.000082   0.009170  -0.062101
    44  H    0.000132  -0.002110   0.004503  -0.003921   0.000841  -0.012872
    45  H   -0.000033   0.000185  -0.001164   0.001746  -0.001629  -0.011622
    46  H    0.000031   0.000303  -0.000147   0.000235  -0.000023   0.000055
    47  H    0.000067   0.000763  -0.000227  -0.000019  -0.000878  -0.000068
    48  H   -0.000023  -0.000094  -0.000151  -0.000082  -0.000006   0.002098
    49  H    0.000010  -0.000191   0.000229  -0.000017   0.000233  -0.001844
               7          8          9         10         11         12
     1  C    0.311166  -0.025021  -0.017033   0.001296   0.003471  -0.000734
     2  C   -1.283297   0.012005   0.009553   0.063597  -0.023107   0.005116
     3  C    0.491158   0.188640  -0.132015   0.029756   0.003416  -0.006377
     4  N   -0.056145  -0.010651  -0.008149   0.001093  -0.000479   0.000087
     5  C    0.429503  -0.228871   0.505047  -0.348919  -0.060879  -0.000380
     6  C   -8.075817  -1.241009   1.698977   0.056998  -0.575561   0.248965
     7  C   17.723880   0.651683  -3.159871   0.089465   0.671378  -0.117866
     8  C    0.651683   6.934629  -0.976924   0.118480   0.324756  -0.239022
     9  C   -3.159871  -0.976924  13.122114  -0.534413  -0.280985  -0.104392
    10  C    0.089465   0.118480  -0.534413   7.356150   1.485270  -0.059127
    11  C    0.671378   0.324756  -0.280985   1.485270  16.014026  -2.496781
    12  C   -0.117866  -0.239022  -0.104392  -0.059127  -2.496781   9.325957
    13  C   -0.027751  -0.051156   0.115845  -0.032228  -0.141805  -0.094530
    14  C    0.051990   0.021841  -0.129424  -0.051071   0.243304  -0.816662
    15  C    0.652812   0.138614  -3.722435  -1.427966  -6.583083   0.943463
    16  C   -0.110354  -0.079375   0.906825   0.557540  -1.173401   0.444316
    17  C    0.288351   0.307525  -1.913819  -1.373233  -0.060592  -0.380494
    18  C    0.709003   0.129061  -0.441599   1.191719  -0.666509  -0.492332
    19  C   -0.595751  -0.194760   0.058947  -0.605406  -0.475278  -0.156674
    20  C    0.330858   0.042126  -0.393479   0.016401   0.012335  -0.040500
    21  C   -0.230097  -0.016142   0.155206  -0.083178   0.014292   0.050865
    22  C   -2.091105  -0.582387   0.780006  -0.212060  -0.167678   0.077138
    23  O    0.158116  -0.035280  -0.029856  -0.010104   0.002023   0.000757
    24  O   -0.125198   0.008893  -0.014652   0.004781  -0.000223   0.001634
    25  H    0.002741  -0.000081   0.000258  -0.000021  -0.000002  -0.000000
    26  H    0.001949   0.000069  -0.000045   0.000005  -0.000000  -0.000000
    27  H    0.060571  -0.021182   0.096003   0.007475  -0.025550  -0.006244
    28  H   -0.029109   0.456278  -0.032240   0.008152  -0.003437   0.005897
    29  H   -0.175790   0.449477   0.023312   0.008370  -0.003038   0.005728
    30  H   -0.121510   0.466446  -0.005910  -0.008200   0.024669  -0.037386
    31  H   -0.269633  -0.052066   0.625572  -0.052158  -0.047284  -0.046098
    32  H    0.062183   0.009014   0.282683  -0.028894   0.029819  -0.009618
    33  H    0.034936   0.003594  -0.081163   0.011760   0.020298   0.285427
    34  H    0.001701  -0.000874  -0.006692   0.003541  -0.054175  -0.032686
    35  H   -0.009252  -0.001438   0.034090  -0.004065   0.031415  -0.144325
    36  H    0.001702  -0.000365  -0.005119   0.003854  -0.022618  -0.062666
    37  H    0.000436   0.001021  -0.006706   0.001789  -0.011366  -0.057512
    38  H    0.001907   0.000287  -0.018275  -0.013778  -0.153233  -0.088186
    39  H    0.001524  -0.000048  -0.002312   0.007568   0.042575  -0.159753
    40  H   -0.000165   0.000343   0.002331   0.033592   0.057547  -0.129457
    41  H    0.000086   0.000093   0.009332   0.041269   0.050473  -0.005303
    42  H   -0.001822  -0.000597   0.012219   0.059424   0.050576   0.008406
    43  H    0.049443   0.001454   0.001875   0.010791   0.000966  -0.003469
    44  H    0.015206   0.002078  -0.015705   0.002479  -0.002890  -0.000342
    45  H    0.016546   0.002218  -0.016230   0.011179   0.002589  -0.000754
    46  H    0.001773  -0.000158   0.003717   0.009655  -0.003797  -0.000316
    47  H    0.000007   0.000195  -0.014656   0.001971  -0.000388  -0.000035
    48  H   -0.011194  -0.000056   0.012874  -0.012889   0.001928   0.000851
    49  H    0.000449   0.000141   0.006610   0.007978  -0.003387   0.000165
              13         14         15         16         17         18
     1  C    0.000371  -0.000113   0.000680  -0.000063   0.001496   0.004828
     2  C   -0.003161  -0.000653  -0.010350   0.003139  -0.009056  -0.032462
     3  C   -0.001603   0.000764   0.001773  -0.005533   0.022357  -0.006334
     4  N    0.000079  -0.000069   0.000036   0.000340  -0.001520  -0.007814
     5  C    0.001361  -0.001920  -0.059927   0.012349  -0.041277  -0.008629
     6  C    0.045949  -0.054996  -0.392872   0.127449  -0.519860  -0.548028
     7  C   -0.027751   0.051990   0.652812  -0.110354   0.288351   0.709003
     8  C   -0.051156   0.021841   0.138614  -0.079375   0.307525   0.129061
     9  C    0.115845  -0.129424  -3.722435   0.906825  -1.913819  -0.441599
    10  C   -0.032228  -0.051071  -1.427966   0.557540  -1.373233   1.191719
    11  C   -0.141805   0.243304  -6.583083  -1.173401  -0.060592  -0.666509
    12  C   -0.094530  -0.816662   0.943463   0.444316  -0.380494  -0.492332
    13  C    5.920507  -0.440486  -0.071122   0.031799  -0.029456   0.014340
    14  C   -0.440486   6.303089   0.034832  -0.067744   0.103417   0.026864
    15  C   -0.071122   0.034832  14.879628  -0.494688   1.310232   0.490095
    16  C    0.031799  -0.067744  -0.494688   7.211899  -0.555581  -0.975247
    17  C   -0.029456   0.103417   1.310232  -0.555581  11.512140  -3.889080
    18  C    0.014340   0.026864   0.490095  -0.975247  -3.889080  12.885637
    19  C    0.007652   0.001504  -0.068136   0.151656   1.020723  -2.224106
    20  C    0.002149  -0.000124   0.153800  -0.113180   0.160689   0.192438
    21  C   -0.005790   0.002538  -0.046472   0.032454   0.026501  -0.336044
    22  C    0.014134  -0.004667  -0.062268   0.018698  -0.044947  -0.079658
    23  O   -0.001107   0.000594  -0.000086   0.000028   0.000175   0.000085
    24  O   -0.000174   0.000002   0.000448  -0.000037   0.000115  -0.000428
    25  H    0.000000   0.000000  -0.000000   0.000000   0.000001   0.000005
    26  H   -0.000000  -0.000000   0.000000   0.000000   0.000002   0.000011
    27  H    0.000846   0.000002  -0.008709   0.004672  -0.016904   0.018237
    28  H   -0.000848  -0.012557   0.027785  -0.002545   0.003061   0.020242
    29  H   -0.000685   0.001880  -0.003905  -0.000266   0.002021  -0.006117
    30  H    0.004191   0.000169  -0.006225   0.000590  -0.000718   0.010081
    31  H    0.000093   0.007400  -0.068147   0.005283  -0.015682   0.017411
    32  H    0.001029  -0.001418   0.022820  -0.001586  -0.020030  -0.006454
    33  H   -0.016078  -0.003663   0.001606  -0.013023   0.020390   0.002261
    34  H    0.450835  -0.018887   0.012040   0.000026   0.000349  -0.001740
    35  H    0.473275   0.006901  -0.036214   0.000829  -0.005665   0.007818
    36  H    0.474675  -0.058725   0.015687   0.003353   0.002520  -0.005535
    37  H   -0.004145   0.436133   0.006614  -0.007510   0.001290  -0.000108
    38  H   -0.009526   0.506283   0.111970   0.023719   0.005934  -0.006187
    39  H   -0.021997   0.487484  -0.016920   0.002866  -0.000132   0.000952
    40  H   -0.000679   0.001557   0.273378   0.020172  -0.008286   0.040114
    41  H   -0.000922   0.001649  -0.079924   0.329297  -0.061654   0.036046
    42  H    0.000154  -0.000310  -0.049547   0.010334   0.207050   0.164811
    43  H    0.000398   0.000106   0.015362  -0.015170  -0.068614   0.039386
    44  H   -0.000002   0.000005   0.002702  -0.003865   0.038893  -0.079242
    45  H    0.000027   0.000002   0.000604   0.008667   0.039168  -0.001871
    46  H    0.000018   0.000005  -0.002529  -0.004283  -0.053252   0.068603
    47  H    0.000011   0.000001   0.001417  -0.003420   0.032792  -0.078213
    48  H   -0.000034  -0.000049  -0.003847   0.007790   0.006414  -0.024393
    49  H   -0.000014   0.000031  -0.002182  -0.002464  -0.036757   0.046278
              19         20         21         22         23         24
     1  C   -0.006726   0.005186  -0.001440  -0.181743  -0.005126   0.075688
     2  C   -0.004282   0.035856  -0.034919  -0.740498   0.044275   0.025357
     3  C   -0.007934  -0.006075   0.004458  -0.424452   0.004975  -0.068250
     4  N   -0.003438   0.012968  -0.005794   0.027619  -0.000187   0.001374
     5  C   -0.003458  -0.043336   0.028930   0.342553  -0.015775   0.113767
     6  C    0.431258  -0.121733   0.019585   0.320190  -0.097997  -0.219432
     7  C   -0.595751   0.330858  -0.230097  -2.091105   0.158116  -0.125198
     8  C   -0.194760   0.042126  -0.016142  -0.582387  -0.035280   0.008893
     9  C    0.058947  -0.393479   0.155206   0.780006  -0.029856  -0.014652
    10  C   -0.605406   0.016401  -0.083178  -0.212060  -0.010104   0.004781
    11  C   -0.475278   0.012335   0.014292  -0.167678   0.002023  -0.000223
    12  C   -0.156674  -0.040500   0.050865   0.077138   0.000757   0.001634
    13  C    0.007652   0.002149  -0.005790   0.014134  -0.001107  -0.000174
    14  C    0.001504  -0.000124   0.002538  -0.004667   0.000594   0.000002
    15  C   -0.068136   0.153800  -0.046472  -0.062268  -0.000086   0.000448
    16  C    0.151656  -0.113180   0.032454   0.018698   0.000028  -0.000037
    17  C    1.020723   0.160689   0.026501  -0.044947   0.000175   0.000115
    18  C   -2.224106   0.192438  -0.336044  -0.079658   0.000085  -0.000428
    19  C    9.337389  -0.532487  -0.228644   0.065970  -0.000295   0.001903
    20  C   -0.532487   6.188943  -0.635927  -0.025195   0.000160  -0.000556
    21  C   -0.228644  -0.635927   6.451714   0.015374  -0.000097   0.000736
    22  C    0.065970  -0.025195   0.015374   7.985621   0.279670   0.020341
    23  O   -0.000295   0.000160  -0.000097   0.279670   8.170833  -0.040047
    24  O    0.001903  -0.000556   0.000736   0.020341  -0.040047   8.608486
    25  H    0.000014   0.000001   0.000007  -0.017732   0.000042   0.001787
    26  H   -0.000025   0.000007   0.000005  -0.001412  -0.000004   0.000141
    27  H   -0.016472  -0.015151   0.000080   0.017384  -0.000232   0.000083
    28  H    0.002068  -0.000047  -0.000205  -0.000468   0.000166   0.000021
    29  H    0.000091  -0.002439   0.000430  -0.015218   0.000037   0.000158
    30  H   -0.003571   0.000196   0.000021   0.002098  -0.000923   0.000476
    31  H    0.006524  -0.002707   0.000703   0.044071  -0.001433   0.000639
    32  H    0.005503   0.014085  -0.013493  -0.045002   0.000440  -0.000368
    33  H   -0.002257  -0.000097  -0.000119  -0.003829   0.000763  -0.000014
    34  H    0.000266  -0.000000   0.000025   0.001237  -0.000029   0.000000
    35  H   -0.000586  -0.000114  -0.000213  -0.000134  -0.000036   0.000000
    36  H    0.000186   0.000035  -0.000131   0.000065   0.000004   0.000000
    37  H   -0.000058   0.000015  -0.000003  -0.000070  -0.000009   0.000000
    38  H   -0.000467   0.000014   0.000026  -0.000400  -0.000000  -0.000000
    39  H    0.000145  -0.000006   0.000001   0.000073   0.000001  -0.000000
    40  H    0.007838  -0.000011  -0.000172  -0.000008   0.000000   0.000000
    41  H   -0.010045   0.000791  -0.000934  -0.000003   0.000000  -0.000000
    42  H   -0.155971  -0.012725   0.004381   0.000038  -0.000000   0.000000
    43  H    0.236976   0.018575   0.002375  -0.004903   0.000002  -0.000009
    44  H   -0.024164   0.450081  -0.014877  -0.000552   0.000000  -0.000000
    45  H   -0.160294   0.481482  -0.014436  -0.000412  -0.000000  -0.000001
    46  H   -0.130459   0.487937  -0.037536   0.000017   0.000000   0.000000
    47  H   -0.034615  -0.008305   0.457177   0.000079  -0.000000   0.000000
    48  H   -0.137769  -0.005736   0.522422   0.000281  -0.000000   0.000000
    49  H   -0.119952  -0.042110   0.493020  -0.000047   0.000000  -0.000000
              25         26         27         28         29         30
     1  C    0.500042   0.409110  -0.002838   0.000167  -0.000044  -0.000443
     2  C   -0.138588  -0.131644   0.008257   0.001247   0.003122  -0.007451
     3  C   -0.002200   0.047332  -0.012133  -0.002385   0.003128   0.000565
     4  N   -0.000055   0.000713   0.007063   0.000147  -0.000358   0.000012
     5  C    0.008807   0.033627  -0.017360  -0.006418  -0.000314  -0.001953
     6  C   -0.000883  -0.006603   0.181734  -0.077199   0.066091   0.030079
     7  C    0.002741   0.001949   0.060571  -0.029109  -0.175790  -0.121510
     8  C   -0.000081   0.000069  -0.021182   0.456278   0.449477   0.466446
     9  C    0.000258  -0.000045   0.096003  -0.032240   0.023312  -0.005910
    10  C   -0.000021   0.000005   0.007475   0.008152   0.008370  -0.008200
    11  C   -0.000002  -0.000000  -0.025550  -0.003437  -0.003038   0.024669
    12  C   -0.000000  -0.000000  -0.006244   0.005897   0.005728  -0.037386
    13  C    0.000000  -0.000000   0.000846  -0.000848  -0.000685   0.004191
    14  C    0.000000  -0.000000   0.000002  -0.012557   0.001880   0.000169
    15  C   -0.000000   0.000000  -0.008709   0.027785  -0.003905  -0.006225
    16  C    0.000000   0.000000   0.004672  -0.002545  -0.000266   0.000590
    17  C    0.000001   0.000002  -0.016904   0.003061   0.002021  -0.000718
    18  C    0.000005   0.000011   0.018237   0.020242  -0.006117   0.010081
    19  C    0.000014  -0.000025  -0.016472   0.002068   0.000091  -0.003571
    20  C    0.000001   0.000007  -0.015151  -0.000047  -0.002439   0.000196
    21  C    0.000007   0.000005   0.000080  -0.000205   0.000430   0.000021
    22  C   -0.017732  -0.001412   0.017384  -0.000468  -0.015218   0.002098
    23  O    0.000042  -0.000004  -0.000232   0.000166   0.000037  -0.000923
    24  O    0.001787   0.000141   0.000083   0.000021   0.000158   0.000476
    25  H    0.480568  -0.027480  -0.000001  -0.000000   0.000000   0.000000
    26  H   -0.027480   0.498306   0.000001   0.000000   0.000000   0.000000
    27  H   -0.000001   0.000001   0.596641  -0.002241  -0.005336   0.005178
    28  H   -0.000000   0.000000  -0.002241   0.529886  -0.025317  -0.026997
    29  H    0.000000   0.000000  -0.005336  -0.025317   0.554501  -0.028374
    30  H    0.000000   0.000000   0.005178  -0.026997  -0.028374   0.539464
    31  H    0.000000  -0.000000   0.005542   0.000093   0.000045   0.002767
    32  H    0.000000   0.000000  -0.007096   0.000064  -0.000138  -0.000052
    33  H   -0.000000   0.000000   0.000006  -0.000793   0.000086   0.002008
    34  H    0.000000  -0.000000  -0.000000  -0.000001  -0.000000  -0.000006
    35  H   -0.000000  -0.000000   0.000000   0.000001  -0.000000   0.000004
    36  H    0.000000   0.000000   0.000000  -0.000001   0.000000  -0.000000
    37  H    0.000000  -0.000000   0.000000  -0.000006  -0.000000  -0.000010
    38  H   -0.000000   0.000000  -0.000000   0.000274   0.000002  -0.000025
    39  H   -0.000000   0.000000  -0.000000  -0.000003   0.000000  -0.000001
    40  H   -0.000000  -0.000000   0.000000  -0.000012   0.000000   0.000000
    41  H    0.000000   0.000000  -0.000000   0.000000   0.000000  -0.000000
    42  H    0.000000  -0.000000   0.000005  -0.000002  -0.000000   0.000000
    43  H    0.000000  -0.000000   0.004710   0.000016   0.000000   0.000001
    44  H   -0.000000   0.000000  -0.000018   0.000000   0.000000   0.000000
    45  H   -0.000000   0.000000   0.000746   0.000025  -0.000012   0.000000
    46  H   -0.000000  -0.000000   0.000046   0.000000   0.000000   0.000000
    47  H    0.000000  -0.000000  -0.000001  -0.000000   0.000000  -0.000000
    48  H    0.000000  -0.000000  -0.000003  -0.000000  -0.000000   0.000000
    49  H    0.000000  -0.000000   0.000001   0.000000  -0.000000  -0.000000
              31         32         33         34         35         36
     1  C   -0.000185   0.001115  -0.000021  -0.000000   0.000004   0.000000
     2  C    0.001647   0.034399   0.000650  -0.000024   0.000057   0.000002
     3  C   -0.001544   0.002206   0.000228  -0.000001  -0.000029  -0.000000
     4  N    0.000097  -0.000396  -0.000001   0.000000   0.000000   0.000000
     5  C    0.005777  -0.018009   0.000987  -0.000201   0.000018   0.000007
     6  C    0.143325  -0.013823  -0.026573  -0.001417   0.005192  -0.000588
     7  C   -0.269633   0.062183   0.034936   0.001701  -0.009252   0.001702
     8  C   -0.052066   0.009014   0.003594  -0.000874  -0.001438  -0.000365
     9  C    0.625572   0.282683  -0.081163  -0.006692   0.034090  -0.005119
    10  C   -0.052158  -0.028894   0.011760   0.003541  -0.004065   0.003854
    11  C   -0.047284   0.029819   0.020298  -0.054175   0.031415  -0.022618
    12  C   -0.046098  -0.009618   0.285427  -0.032686  -0.144325  -0.062666
    13  C    0.000093   0.001029  -0.016078   0.450835   0.473275   0.474675
    14  C    0.007400  -0.001418  -0.003663  -0.018887   0.006901  -0.058725
    15  C   -0.068147   0.022820   0.001606   0.012040  -0.036214   0.015687
    16  C    0.005283  -0.001586  -0.013023   0.000026   0.000829   0.003353
    17  C   -0.015682  -0.020030   0.020390   0.000349  -0.005665   0.002520
    18  C    0.017411  -0.006454   0.002261  -0.001740   0.007818  -0.005535
    19  C    0.006524   0.005503  -0.002257   0.000266  -0.000586   0.000186
    20  C   -0.002707   0.014085  -0.000097  -0.000000  -0.000114   0.000035
    21  C    0.000703  -0.013493  -0.000119   0.000025  -0.000213  -0.000131
    22  C    0.044071  -0.045002  -0.003829   0.001237  -0.000134   0.000065
    23  O   -0.001433   0.000440   0.000763  -0.000029  -0.000036   0.000004
    24  O    0.000639  -0.000368  -0.000014   0.000000   0.000000   0.000000
    25  H    0.000000   0.000000  -0.000000   0.000000  -0.000000   0.000000
    26  H   -0.000000   0.000000   0.000000  -0.000000  -0.000000   0.000000
    27  H    0.005542  -0.007096   0.000006  -0.000000   0.000000   0.000000
    28  H    0.000093   0.000064  -0.000793  -0.000001   0.000001  -0.000001
    29  H    0.000045  -0.000138   0.000086  -0.000000  -0.000000   0.000000
    30  H    0.002767  -0.000052   0.002008  -0.000006   0.000004  -0.000000
    31  H    0.573431  -0.035509   0.004214   0.000002   0.000986  -0.000011
    32  H   -0.035509   0.588563   0.000111  -0.000003  -0.000212   0.000005
    33  H    0.004214   0.000111   0.649779  -0.004533  -0.004860   0.005802
    34  H    0.000002  -0.000003  -0.004533   0.560463  -0.027154  -0.029257
    35  H    0.000986  -0.000212  -0.004860  -0.027154   0.558059  -0.027847
    36  H   -0.000011   0.000005   0.005802  -0.029257  -0.027847   0.549800
    37  H    0.000008   0.000000  -0.006231   0.002394   0.000048  -0.000084
    38  H   -0.000005   0.000000  -0.003848   0.000126  -0.000159   0.000027
    39  H   -0.000004   0.000000   0.005911  -0.000238   0.000037   0.003584
    40  H   -0.000011   0.000003   0.000132  -0.000026   0.000030  -0.000138
    41  H   -0.000000   0.000000   0.000003  -0.000000   0.000000   0.000003
    42  H    0.000002  -0.000009  -0.000000   0.000000   0.000000  -0.000000
    43  H    0.000272   0.000555  -0.000002  -0.000000   0.000000   0.000000
    44  H   -0.000000   0.000013   0.000000   0.000000  -0.000000  -0.000000
    45  H    0.000000   0.000001   0.000000  -0.000000   0.000000  -0.000000
    46  H    0.000000  -0.000005  -0.000000  -0.000000   0.000000  -0.000000
    47  H   -0.000000  -0.000032  -0.000000  -0.000000   0.000000   0.000000
    48  H   -0.000009   0.000301   0.000000   0.000000   0.000000   0.000000
    49  H    0.000001  -0.000016   0.000000   0.000000   0.000000  -0.000000
              37         38         39         40         41         42
     1  C    0.000000  -0.000000  -0.000000  -0.000000  -0.000000   0.000000
     2  C   -0.000007   0.000002   0.000000  -0.000000  -0.000000   0.000033
     3  C   -0.000002   0.000002   0.000000   0.000002  -0.000000  -0.000084
     4  N    0.000000  -0.000000  -0.000000  -0.000000   0.000000   0.000011
     5  C   -0.000141  -0.000032   0.000017   0.000009   0.000010   0.000024
     6  C   -0.001397  -0.001087  -0.000171   0.000066   0.000030   0.000927
     7  C    0.000436   0.001907   0.001524  -0.000165   0.000086  -0.001822
     8  C    0.001021   0.000287  -0.000048   0.000343   0.000093  -0.000597
     9  C   -0.006706  -0.018275  -0.002312   0.002331   0.009332   0.012219
    10  C    0.001789  -0.013778   0.007568   0.033592   0.041269   0.059424
    11  C   -0.011366  -0.153233   0.042575   0.057547   0.050473   0.050576
    12  C   -0.057512  -0.088186  -0.159753  -0.129457  -0.005303   0.008406
    13  C   -0.004145  -0.009526  -0.021997  -0.000679  -0.000922   0.000154
    14  C    0.436133   0.506283   0.487484   0.001557   0.001649  -0.000310
    15  C    0.006614   0.111970  -0.016920   0.273378  -0.079924  -0.049547
    16  C   -0.007510   0.023719   0.002866   0.020172   0.329297   0.010334
    17  C    0.001290   0.005934  -0.000132  -0.008286  -0.061654   0.207050
    18  C   -0.000108  -0.006187   0.000952   0.040114   0.036046   0.164811
    19  C   -0.000058  -0.000467   0.000145   0.007838  -0.010045  -0.155971
    20  C    0.000015   0.000014  -0.000006  -0.000011   0.000791  -0.012725
    21  C   -0.000003   0.000026   0.000001  -0.000172  -0.000934   0.004381
    22  C   -0.000070  -0.000400   0.000073  -0.000008  -0.000003   0.000038
    23  O   -0.000009  -0.000000   0.000001   0.000000   0.000000  -0.000000
    24  O    0.000000  -0.000000  -0.000000   0.000000  -0.000000   0.000000
    25  H    0.000000  -0.000000  -0.000000  -0.000000   0.000000   0.000000
    26  H   -0.000000   0.000000   0.000000  -0.000000   0.000000  -0.000000
    27  H    0.000000  -0.000000  -0.000000   0.000000  -0.000000   0.000005
    28  H   -0.000006   0.000274  -0.000003  -0.000012   0.000000  -0.000002
    29  H   -0.000000   0.000002   0.000000   0.000000   0.000000  -0.000000
    30  H   -0.000010  -0.000025  -0.000001   0.000000  -0.000000   0.000000
    31  H    0.000008  -0.000005  -0.000004  -0.000011  -0.000000   0.000002
    32  H    0.000000   0.000000   0.000000   0.000003   0.000000  -0.000009
    33  H   -0.006231  -0.003848   0.005911   0.000132   0.000003  -0.000000
    34  H    0.002394   0.000126  -0.000238  -0.000026  -0.000000   0.000000
    35  H    0.000048  -0.000159   0.000037   0.000030   0.000000   0.000000
    36  H   -0.000084   0.000027   0.003584  -0.000138   0.000003  -0.000000
    37  H    0.554612  -0.026627  -0.030147   0.000054  -0.000000  -0.000000
    38  H   -0.026627   0.550478  -0.029596  -0.000464  -0.000002   0.000000
    39  H   -0.030147  -0.029596   0.568848  -0.000632   0.000006   0.000000
    40  H    0.000054  -0.000464  -0.000632   0.599434  -0.005458  -0.000198
    41  H   -0.000000  -0.000002   0.000006  -0.005458   0.578428  -0.005421
    42  H   -0.000000   0.000000   0.000000  -0.000198  -0.005421   0.593019
    43  H   -0.000000   0.000000   0.000000  -0.000000   0.000002   0.000161
    44  H   -0.000000   0.000000   0.000000  -0.000000  -0.000000  -0.000016
    45  H    0.000000  -0.000000  -0.000000   0.000000  -0.000000   0.000030
    46  H    0.000000  -0.000000  -0.000000   0.000000   0.000006   0.000399
    47  H    0.000000  -0.000000  -0.000000   0.000000  -0.000000  -0.000027
    48  H   -0.000000  -0.000000   0.000000   0.000000  -0.000000   0.000098
    49  H   -0.000000  -0.000000  -0.000000   0.000000   0.000004   0.000259
              43         44         45         46         47         48
     1  C    0.002469   0.000132  -0.000033   0.000031   0.000067  -0.000023
     2  C    0.002176  -0.002110   0.000185   0.000303   0.000763  -0.000094
     3  C   -0.005007   0.004503  -0.001164  -0.000147  -0.000227  -0.000151
     4  N    0.000082  -0.003921   0.001746   0.000235  -0.000019  -0.000082
     5  C    0.009170   0.000841  -0.001629  -0.000023  -0.000878  -0.000006
     6  C   -0.062101  -0.012872  -0.011622   0.000055  -0.000068   0.002098
     7  C    0.049443   0.015206   0.016546   0.001773   0.000007  -0.011194
     8  C    0.001454   0.002078   0.002218  -0.000158   0.000195  -0.000056
     9  C    0.001875  -0.015705  -0.016230   0.003717  -0.014656   0.012874
    10  C    0.010791   0.002479   0.011179   0.009655   0.001971  -0.012889
    11  C    0.000966  -0.002890   0.002589  -0.003797  -0.000388   0.001928
    12  C   -0.003469  -0.000342  -0.000754  -0.000316  -0.000035   0.000851
    13  C    0.000398  -0.000002   0.000027   0.000018   0.000011  -0.000034
    14  C    0.000106   0.000005   0.000002   0.000005   0.000001  -0.000049
    15  C    0.015362   0.002702   0.000604  -0.002529   0.001417  -0.003847
    16  C   -0.015170  -0.003865   0.008667  -0.004283  -0.003420   0.007790
    17  C   -0.068614   0.038893   0.039168  -0.053252   0.032792   0.006414
    18  C    0.039386  -0.079242  -0.001871   0.068603  -0.078213  -0.024393
    19  C    0.236976  -0.024164  -0.160294  -0.130459  -0.034615  -0.137769
    20  C    0.018575   0.450081   0.481482   0.487937  -0.008305  -0.005736
    21  C    0.002375  -0.014877  -0.014436  -0.037536   0.457177   0.522422
    22  C   -0.004903  -0.000552  -0.000412   0.000017   0.000079   0.000281
    23  O    0.000002   0.000000  -0.000000   0.000000  -0.000000  -0.000000
    24  O   -0.000009  -0.000000  -0.000001   0.000000   0.000000   0.000000
    25  H    0.000000  -0.000000  -0.000000  -0.000000   0.000000   0.000000
    26  H   -0.000000   0.000000   0.000000  -0.000000  -0.000000  -0.000000
    27  H    0.004710  -0.000018   0.000746   0.000046  -0.000001  -0.000003
    28  H    0.000016   0.000000   0.000025   0.000000  -0.000000  -0.000000
    29  H    0.000000   0.000000  -0.000012   0.000000   0.000000  -0.000000
    30  H    0.000001   0.000000   0.000000   0.000000  -0.000000   0.000000
    31  H    0.000272  -0.000000   0.000000   0.000000  -0.000000  -0.000009
    32  H    0.000555   0.000013   0.000001  -0.000005  -0.000032   0.000301
    33  H   -0.000002   0.000000   0.000000  -0.000000  -0.000000   0.000000
    34  H   -0.000000   0.000000  -0.000000  -0.000000  -0.000000   0.000000
    35  H    0.000000  -0.000000   0.000000   0.000000   0.000000   0.000000
    36  H    0.000000  -0.000000  -0.000000  -0.000000   0.000000   0.000000
    37  H   -0.000000  -0.000000   0.000000   0.000000   0.000000  -0.000000
    38  H    0.000000   0.000000  -0.000000  -0.000000  -0.000000  -0.000000
    39  H    0.000000   0.000000  -0.000000  -0.000000  -0.000000   0.000000
    40  H   -0.000000  -0.000000   0.000000   0.000000   0.000000   0.000000
    41  H    0.000002  -0.000000  -0.000000   0.000006  -0.000000  -0.000000
    42  H    0.000161  -0.000016   0.000030   0.000399  -0.000027   0.000098
    43  H    0.666360  -0.005176  -0.004220   0.006294  -0.004736  -0.005259
    44  H   -0.005176   0.542772  -0.025795  -0.028952   0.002770   0.000056
    45  H   -0.004220  -0.025795   0.557338  -0.028399   0.000104  -0.000162
    46  H    0.006294  -0.028952  -0.028399   0.570338  -0.000200  -0.000003
    47  H   -0.004736   0.002770   0.000104  -0.000200   0.562024  -0.027988
    48  H   -0.005259   0.000056  -0.000162  -0.000003  -0.027988   0.558991
    49  H    0.005837  -0.000068   0.000013   0.003258  -0.029307  -0.028191
              49
     1  C    0.000010
     2  C   -0.000191
     3  C    0.000229
     4  N   -0.000017
     5  C    0.000233
     6  C   -0.001844
     7  C    0.000449
     8  C    0.000141
     9  C    0.006610
    10  C    0.007978
    11  C   -0.003387
    12  C    0.000165
    13  C   -0.000014
    14  C    0.000031
    15  C   -0.002182
    16  C   -0.002464
    17  C   -0.036757
    18  C    0.046278
    19  C   -0.119952
    20  C   -0.042110
    21  C    0.493020
    22  C   -0.000047
    23  O    0.000000
    24  O   -0.000000
    25  H    0.000000
    26  H   -0.000000
    27  H    0.000001
    28  H    0.000000
    29  H   -0.000000
    30  H   -0.000000
    31  H    0.000001
    32  H   -0.000016
    33  H    0.000000
    34  H    0.000000
    35  H    0.000000
    36  H   -0.000000
    37  H   -0.000000
    38  H   -0.000000
    39  H   -0.000000
    40  H    0.000000
    41  H    0.000004
    42  H    0.000259
    43  H    0.005837
    44  H   -0.000068
    45  H    0.000013
    46  H    0.003258
    47  H   -0.029307
    48  H   -0.028191
    49  H    0.553952
 Mulliken charges:
               1
     1  C   -0.099984
     2  C    1.262592
     3  C   -0.972328
     4  N   -0.434917
     5  C    0.066976
     6  C    0.116574
     7  C   -0.320795
     8  C   -0.513496
     9  C   -0.399298
    10  C   -0.345687
    11  C   -0.049597
    12  C    0.385247
    13  C   -0.604439
    14  C   -0.576805
    15  C    0.119157
    16  C   -0.286754
    17  C   -0.006994
    18  C   -0.198196
    19  C    0.567466
    20  C   -0.605086
    21  C   -0.576664
    22  C    0.694193
    23  O   -0.424523
    24  O   -0.397442
    25  H    0.192768
    26  H    0.175937
    27  H    0.142189
    28  H    0.167241
    29  H    0.148871
    30  H    0.160743
    31  H    0.146577
    32  H    0.147254
    33  H    0.116153
    34  H    0.144939
    35  H    0.143536
    36  H    0.151774
    37  H    0.147725
    38  H    0.150844
    39  H    0.140366
    40  H    0.109113
    41  H    0.122139
    42  H    0.114366
    43  H    0.102848
    44  H    0.158033
    45  H    0.144364
    46  H    0.137370
    47  H    0.143739
    48  H    0.143831
    49  H    0.148079
 Sum of Mulliken charges =  -0.00000
 Mulliken charges with hydrogens summed into heavy atoms:
               1
     1  C    0.268721
     2  C    1.262592
     3  C   -0.972328
     4  N   -0.434917
     5  C    0.066976
     6  C    0.116574
     7  C   -0.178605
     8  C   -0.036641
     9  C   -0.105467
    10  C   -0.345687
    11  C   -0.049597
    12  C    0.501401
    13  C   -0.164191
    14  C   -0.137870
    15  C    0.228270
    16  C   -0.164615
    17  C    0.107373
    18  C   -0.198196
    19  C    0.670314
    20  C   -0.165320
    21  C   -0.141015
    22  C    0.694193
    23  O   -0.424523
    24  O   -0.397442
 Electronic spatial extent (au):  <R**2>=           8863.8086
 Charge=             -0.0000 electrons
 Dipole moment (field-independent basis, Debye):
    X=              1.3302    Y=              0.7182    Z=              0.0881  Tot=              1.5143
 Quadrupole moment (field-independent basis, Debye-Ang):
   XX=           -126.7928   YY=           -162.9760   ZZ=           -149.6459
   XY=              4.0759   XZ=              2.9841   YZ=              6.6509
 Traceless Quadrupole moment (field-independent basis, Debye-Ang):
   XX=             19.6788   YY=            -16.5045   ZZ=             -3.1743
   XY=              4.0759   XZ=              2.9841   YZ=              6.6509
 Octapole moment (field-independent basis, Debye-Ang**2):
  XXX=            138.5043  YYY=              7.3421  ZZZ=              4.2047  XYY=            -60.6366
  XXY=             11.9328  XXZ=              6.4566  XZZ=             10.0624  YZZ=            -13.8893
  YYZ=              1.5481  XYZ=             20.0978
 Hexadecapole moment (field-independent basis, Debye-Ang**3):
 XXXX=          -6387.0931 YYYY=          -4228.8396 ZZZZ=           -864.0879 XXXY=             58.3053
 XXXZ=            130.9080 YYYX=            -48.1960 YYYZ=             63.1335 ZZZX=              9.2181
 ZZZY=             -5.7861 XXYY=          -2033.6046 XXZZ=          -1468.2697 YYZZ=           -845.8641
 XXYZ=             37.8762 YYXZ=             18.7758 ZZXY=            -19.1919
 N-N= 2.029096246426D+03 E-N=-6.423922562940D+03  KE= 1.010704416924D+03
 Unable to Open any file for archive entry.
 1\1\GINC-N1\SP\RB3LYP TD-FC\6-31+G(d,p)\C21H25N1O2\HPCMGAC201\29-Jul-2
 025\0\\# td=(50-50,nstates=3) b3lyp/6-31+g(d,p) geom=connectivity\\Tit
 le Card Required\\0,1\C,0,-5.543311,0.251853,-0.28224\C,0,-4.24063,0.3
 91969,0.052332\C,0,-3.725414,1.644702,0.538529\N,0,-3.306489,2.65665,0
 .92871\C,0,-3.308022,-0.706009,-0.063502\C,0,-2.00478,-1.01304,0.14677
 9\C,0,-0.729397,-0.398465,0.624971\C,0,-0.222931,-1.12914,1.886485\C,0
 ,0.311265,-0.383036,-0.544039\C,0,1.66157,0.239953,-0.20779\C,0,2.7926
 32,-0.581473,0.053069\C,0,2.735208,-2.111187,-0.026086\C,0,3.096016,-2
 .594326,-1.447708\C,0,3.610437,-2.823983,1.021792\C,0,4.024946,0.02581
 ,0.330432\C,0,4.160114,1.411296,0.361133\C,0,3.05286,2.2123,0.105399\C
 ,0,1.799515,1.651852,-0.180179\C,0,0.647355,2.613139,-0.486673\C,0,0.3
 90404,3.608074,0.662995\C,0,0.881491,3.359231,-1.817234\C,0,-2.370245,
 -2.378588,-0.345284\O,0,-1.91636,-3.45491,-0.562434\O,0,-3.752968,-1.9
 68434,-0.541964\H,0,-5.90811,-0.70137,-0.647291\H,0,-6.237793,1.079031
 ,-0.192518\H,0,-0.945763,0.638337,0.903647\H,0,0.724681,-0.697589,2.22
 0114\H,0,-0.948378,-1.034367,2.700306\H,0,-0.067389,-2.195802,1.69597\
 H,0,0.441514,-1.408106,-0.896146\H,0,-0.142089,0.15456,-1.383113\H,0,1
 .710226,-2.431124,0.175399\H,0,3.010628,-3.684625,-1.520833\H,0,2.4390
 5,-2.150753,-2.203217\H,0,4.125472,-2.314945,-1.699565\H,0,3.406532,-3
 .900122,1.002505\H,0,3.405955,-2.457657,2.033217\H,0,4.680483,-2.69641
 2,0.826699\H,0,4.895789,-0.591334,0.524642\H,0,5.12414,1.861899,0.5807
 65\H,0,3.164051,3.292479,0.123119\H,0,-0.273062,2.038484,-0.609302\H,0
 ,-0.498459,4.211255,0.451966\H,0,0.222927,3.087263,1.611344\H,0,1.2355
 55,4.290764,0.80249\H,0,0.025632,4.00259,-2.051317\H,0,1.020617,2.6587
 16,-2.647753\H,0,1.773338,3.993434,-1.765998\\Version=ES64L-G16RevC.02
 \State=1-A\HF=-1020.4877544\RMSD=4.211e-09\PG=C01 [X(C21H25N1O2)]\\@
 The archive entry for this job was punched.


 HICKORY, DICKORY, DOCK
 TWO MICE RAN UP THE CLOCK
 THE CLOCK STRUCK ONE...
 THE OTHER ESCAPED WITH MINOR INJURIES.
 Job cpu time:       0 days  2 hours  3 minutes 16.8 seconds.
 Elapsed time:       0 days  0 hours 15 minutes 36.8 seconds.
 File lengths (MBytes):  RWF=   1740 Int=      0 D2E=      0 Chk=     86 Scr=      2
 Normal termination of Gaussian 16 at Tue Jul 29 07:15:25 2025.
