 Entering Gaussian System, Link 0=g16
 Input=m2865e.gjf
 Output=m2865e.log
 Initial command:
 /hpc/softwares/Gaussian/g16/l1.exe "/hpc/home/hpcmgac201/pbs.12323.admin1.x8z/Gau-1690357.inp" -scrdir="/hpc/home/hpcmgac201/pbs.12323.admin1.x8z/"
 Default linda workers: n1
 Default is to use   8 SMP processors on each worker.
 Entering Link 1 = /hpc/softwares/Gaussian/g16/l1.exe PID=   1690358.
  
 Copyright (c) 1988-2021, Gaussian, Inc.  All Rights Reserved.
  
 This is part of the Gaussian(R) 16 program.  It is based on
 the Gaussian(R) 09 system (copyright 2009, Gaussian, Inc.),
 the Gaussian(R) 03 system (copyright 2003, Gaussian, Inc.),
 the Gaussian(R) 98 system (copyright 1998, Gaussian, Inc.),
 the Gaussian(R) 94 system (copyright 1995, Gaussian, Inc.),
 the Gaussian 92(TM) system (copyright 1992, Gaussian, Inc.),
 the Gaussian 90(TM) system (copyright 1990, Gaussian, Inc.),
 the Gaussian 88(TM) system (copyright 1988, Gaussian, Inc.),
 the Gaussian 86(TM) system (copyright 1986, Carnegie Mellon
 University), and the Gaussian 82(TM) system (copyright 1983,
 Carnegie Mellon University). Gaussian is a federally registered
 trademark of Gaussian, Inc.
  
 This software contains proprietary and confidential information,
 including trade secrets, belonging to Gaussian, Inc.
  
 This software is provided under written license and may be
 used, copied, transmitted, or stored only in accord with that
 written license.
  
 The following legend is applicable only to US Government
 contracts under FAR:
  
                    RESTRICTED RIGHTS LEGEND
  
 Use, reproduction and disclosure by the US Government is
 subject to restrictions as set forth in subparagraphs (a)
 and (c) of the Commercial Computer Software - Restricted
 Rights clause in FAR 52.227-19.
  
 Gaussian, Inc.
 340 Quinnipiac St., Bldg. 40, Wallingford CT 06492
  
  
 ---------------------------------------------------------------
 Warning -- This program may not be used in any manner that
 competes with the business of Gaussian, Inc. or will provide
 assistance to any competitor of Gaussian, Inc.  The licensee
 of this program is prohibited from giving any competitor of
 Gaussian, Inc. access to this program.  By using this program,
 the user acknowledges that Gaussian, Inc. is engaged in the
 business of creating and licensing software in the field of
 computational chemistry and represents and warrants to the
 licensee that it is not a competitor of Gaussian, Inc. and that
 it will not use this program in any manner prohibited above.
 ---------------------------------------------------------------
  

 Cite this work as:
 Gaussian 16, Revision C.02,
 M. J. Frisch, G. W. Trucks, H. B. Schlegel, G. E. Scuseria, 
 M. A. Robb, J. R. Cheeseman, G. Scalmani, V. Barone, 
 G. A. Petersson, H. Nakatsuji, X. Li, M. Caricato, A. V. Marenich, 
 J. Bloino, B. G. Janesko, R. Gomperts, B. Mennucci, H. P. Hratchian, 
 J. V. Ortiz, A. F. Izmaylov, J. L. Sonnenberg, D. Williams-Young, 
 F. Ding, F. Lipparini, F. Egidi, J. Goings, B. Peng, A. Petrone, 
 T. Henderson, D. Ranasinghe, V. G. Zakrzewski, J. Gao, N. Rega, 
 G. Zheng, W. Liang, M. Hada, M. Ehara, K. Toyota, R. Fukuda, 
 J. Hasegawa, M. Ishida, T. Nakajima, Y. Honda, O. Kitao, H. Nakai, 
 T. Vreven, K. Throssell, J. A. Montgomery, Jr., J. E. Peralta, 
 F. Ogliaro, M. J. Bearpark, J. J. Heyd, E. N. Brothers, K. N. Kudin, 
 V. N. Staroverov, T. A. Keith, R. Kobayashi, J. Normand, 
 K. Raghavachari, A. P. Rendell, J. C. Burant, S. S. Iyengar, 
 J. Tomasi, M. Cossi, J. M. Millam, M. Klene, C. Adamo, R. Cammi, 
 J. W. Ochterski, R. L. Martin, K. Morokuma, O. Farkas, 
 J. B. Foresman, and D. J. Fox, Gaussian, Inc., Wallingford CT, 2019.
 
 ******************************************
 Gaussian 16:  ES64L-G16RevC.02  7-Dec-2021
                29-Jul-2025 
 ******************************************
 SetLPE:    new flags="-opt 'Tsnet.Node.lindarsharg: ssh'  -nodelist 'n1' -env GAUSS_MDEF=2147483648 -env GAUSS_EXEDIR="/hpc/softwares/Gaussian/g16/bsd:/hpc/softwares/Gaussian/g16""
 Will use up to    1 processors via Linda.
 ----------------------------------------------------------
 # td=(50-50,nstates=3) b3lyp/6-31+g(d,p) geom=connectivity
 ----------------------------------------------------------
 1/38=1,57=2,172=1/1;
 2/12=2,17=6,18=5,40=1/2;
 3/5=1,6=6,7=111,11=9,25=1,30=1,74=-5/1,2,3,8;
 4//1;
 5/5=2,38=5/2;
 8/6=1,10=2,108=3/1;
 9/41=3,42=1,48=2,70=2/14;
 6/7=2,8=2,9=2,10=2/1;
 99/5=1,9=1/99;
 -------------------
 Title Card Required
 -------------------
 Symbolic Z-matrix:
 Charge =  0 Multiplicity = 1
 C                    -0.08522   2.83     -1.00358 
 C                    -0.12614   1.53717  -0.62368 
 C                    -1.41516   0.82816  -0.40372 
 C                    -1.57197  -0.11352   0.62767 
 C                    -2.78931  -0.7394    0.87808 
 C                    -3.92851  -0.46927   0.08306 
 N                    -5.13911  -1.11945   0.29975 
 C                    -6.33669  -0.62558  -0.36323 
 C                    -5.31847  -1.89542   1.51745 
 C                    -3.77226   0.47582  -0.9589 
 C                    -2.5482    1.09534  -1.19064 
 C                     1.13313   0.76206  -0.4341 
 C                     1.28098  -0.50601  -1.0193 
 C                     2.45098  -1.24831  -0.92362 
 C                     3.57353  -0.75854  -0.21156 
 N                     4.75995  -1.47331  -0.13937 
 C                     5.80417  -1.03186   0.77358 
 C                     4.78748  -2.85705  -0.58971 
 C                     3.42787   0.49299   0.41998 
 C                     2.23966   1.23487   0.30784 
 C                     2.19825   2.47873   1.03015 
 N                     2.23675   3.46304   1.65083 
 H                     0.85091   3.33274  -1.2203 
 H                    -0.99061   3.42179  -1.09122 
 H                    -0.72736  -0.34845   1.26896 
 H                    -2.84746  -1.43894   1.70263 
 H                    -6.58275   0.41162  -0.08339 
 H                    -6.22816  -0.66823  -1.45223 
 H                    -7.18041  -1.26323  -0.09451 
 H                    -4.58018  -2.7019    1.57959 
 H                    -5.2361   -1.28379   2.43068 
 H                    -6.30663  -2.35807   1.5019 
 H                    -4.60465   0.72333  -1.60595 
 H                    -2.46802   1.79562  -2.01715 
 H                     0.44707  -0.91814  -1.57901 
 H                     2.48855  -2.21466  -1.41071 
 H                     6.12464  -0.01159   0.53713 
 H                     5.48677  -1.05744   1.82822 
 H                     6.67284  -1.68195   0.6608 
 H                     4.10975  -3.50636  -0.01282 
 H                     4.51501  -2.93179  -1.648 
 H                     5.80233  -3.24342  -0.48613 
 H                     4.22656   0.90974   1.01853 
 
                          Input orientation:                          
 ---------------------------------------------------------------------
 Center     Atomic      Atomic             Coordinates (Angstroms)
 Number     Number       Type             X           Y           Z
 ---------------------------------------------------------------------
      1          6           0       -0.085216    2.829996   -1.003585
      2          6           0       -0.126136    1.537174   -0.623681
      3          6           0       -1.415162    0.828157   -0.403722
      4          6           0       -1.571972   -0.113524    0.627669
      5          6           0       -2.789310   -0.739397    0.878075
      6          6           0       -3.928509   -0.469273    0.083060
      7          7           0       -5.139111   -1.119449    0.299753
      8          6           0       -6.336687   -0.625580   -0.363229
      9          6           0       -5.318467   -1.895417    1.517446
     10          6           0       -3.772263    0.475817   -0.958904
     11          6           0       -2.548200    1.095343   -1.190643
     12          6           0        1.133133    0.762059   -0.434099
     13          6           0        1.280978   -0.506013   -1.019305
     14          6           0        2.450982   -1.248307   -0.923616
     15          6           0        3.573533   -0.758537   -0.211563
     16          7           0        4.759954   -1.473309   -0.139369
     17          6           0        5.804166   -1.031858    0.773584
     18          6           0        4.787483   -2.857050   -0.589709
     19          6           0        3.427867    0.492991    0.419977
     20          6           0        2.239658    1.234869    0.307842
     21          6           0        2.198248    2.478734    1.030151
     22          7           0        2.236750    3.463044    1.650826
     23          1           0        0.850908    3.332744   -1.220295
     24          1           0       -0.990606    3.421786   -1.091215
     25          1           0       -0.727359   -0.348452    1.268957
     26          1           0       -2.847457   -1.438939    1.702631
     27          1           0       -6.582746    0.411623   -0.083385
     28          1           0       -6.228162   -0.668228   -1.452230
     29          1           0       -7.180412   -1.263230   -0.094510
     30          1           0       -4.580182   -2.701902    1.579594
     31          1           0       -5.236099   -1.283789    2.430683
     32          1           0       -6.306634   -2.358072    1.501904
     33          1           0       -4.604648    0.723331   -1.605947
     34          1           0       -2.468023    1.795622   -2.017149
     35          1           0        0.447068   -0.918135   -1.579011
     36          1           0        2.488547   -2.214658   -1.410711
     37          1           0        6.124639   -0.011590    0.537127
     38          1           0        5.486773   -1.057444    1.828215
     39          1           0        6.672839   -1.681946    0.660804
     40          1           0        4.109748   -3.506363   -0.012818
     41          1           0        4.515012   -2.931787   -1.647997
     42          1           0        5.802326   -3.243424   -0.486132
     43          1           0        4.226563    0.909739    1.018526
 ---------------------------------------------------------------------
                    Distance matrix (angstroms):
                    1          2          3          4          5
     1  C    0.000000
     2  C    1.348106   0.000000
     3  C    2.477085   1.487506   0.000000
     4  C    3.679095   2.526088   1.405390   0.000000
     5  C    4.857297   3.811895   2.447144   1.391521   0.000000
     6  C    5.180432   4.356989   2.870051   2.444672   1.415200
     7  N    6.545125   5.748069   4.260967   3.720738   2.449584
     8  C    7.171607   6.581511   5.131900   4.893525   3.760010
     9  C    7.488127   6.582356   5.132692   4.243003   2.853386
    10  C    4.374754   3.812230   2.447099   2.775935   2.411936
    11  C    3.018328   2.526471   1.405136   2.391786   2.775608
    12  C    2.466790   1.490806   2.549333   3.035060   4.400197
    13  C    3.604953   2.512191   3.070525   3.317513   4.496862
    14  C    4.803254   3.806626   4.419170   4.458517   5.564687
    15  C    5.185683   4.373520   5.238473   5.253244   6.455498
    16  N    6.537658   5.759465   6.595353   6.521553   7.652791
    17  C    7.263406   6.612167   7.547477   7.434517   8.599086
    18  C    7.500465   6.591966   7.217212   7.032184   8.002914
    19  C    4.453075   3.848438   4.923997   5.040772   6.354677
    20  C    3.109551   2.560489   3.745590   4.055734   5.432625
    21  C    3.077934   3.004073   4.223402   4.593077   5.937611
    22  N    3.583040   3.803365   4.949774   5.324007   6.596888
    23  H    1.084457   2.129468   3.474884   4.600226   5.851212
    24  H    1.085185   2.125478   2.716580   3.973785   4.942558
    25  H    3.959713   2.738455   2.157623   1.086192   2.134776
    26  H    5.759981   4.655595   3.409973   2.130523   1.082882
    27  H    6.993797   6.576215   5.194231   5.088146   4.079143
    28  H    7.083406   6.541025   5.148156   5.129696   4.154647
    29  H    8.241524   7.608225   6.140653   5.770439   4.527924
    30  H    7.581519   6.531670   5.139281   4.081077   2.747868
    31  H    7.432968   6.587768   5.205164   4.248083   2.948513
    32  H    8.479361   7.608522   6.140844   5.312185   3.921841
    33  H    5.022563   4.656636   3.410155   3.858301   3.406669
    34  H    2.788371   2.737331   2.155841   3.382722   3.861589
    35  H    3.829220   2.696249   2.810470   3.097315   4.067353
    36  H    5.677899   4.640283   5.050910   5.005754   5.938915
    37  H    7.000764   6.543572   7.644539   7.697818   8.950108
    38  H    7.360594   6.651961   7.494914   7.222062   8.336514
    39  H    8.294523   7.631428   8.535197   8.392732   9.511460
    40  H    7.663471   6.614615   7.033171   6.648573   7.486441
    41  H    7.401048   6.523886   7.131084   7.083265   8.033725
    42  H    8.474511   7.617066   8.287140   8.088084   9.052481
    43  H    5.134955   4.694306   5.818806   5.901088   7.208457
                    6          7          8          9         10
     6  C    0.000000
     7  N    1.391130   0.000000
     8  C    2.454165   1.455211   0.000000
     9  C    2.454248   1.455016   2.487207   0.000000
    10  C    1.415379   2.448952   2.853800   3.761091   0.000000
    11  C    2.444503   3.720135   4.242502   4.894157   1.391347
    12  C    5.234869   6.589359   7.597945   7.245264   4.941686
    13  C    5.324971   6.582838   7.646800   7.205430   5.148095
    14  C    6.505244   7.689132   8.827511   8.169570   6.457757
    15  C    7.513395   8.735094   9.912272   9.129602   7.486178
    16  N    8.749112   9.915116  11.131226  10.222416   8.790305
    17  C    9.773346  10.953881  12.200726  11.180878   9.847974
    18  C    9.062153  10.116702  11.348036  10.367983   9.193126
    19  C    7.426691   8.718230   9.859570   9.132759   7.330994
    20  C    6.403195   7.745264   8.801437   8.269648   6.190638
    21  C    6.864756   8.204708   9.188220   8.710434   6.604167
    22  N    7.478732   8.787944   9.709639   9.263487   7.200170
    23  H    6.244749   7.616620   8.250116   8.537569   5.440962
    24  H    5.015031   6.306164   6.744755   7.335403   4.053869
    25  H    3.415891   4.582286   5.848538   4.851095   3.861894
    26  H    2.175301   2.705886   4.135705   2.519634   3.406659
    27  H    2.801545   2.138939   1.102111   3.079528   2.944396
    28  H    2.772202   2.111653   1.095226   3.339538   2.753843
    29  H    3.352129   2.083993   1.091183   2.542617   3.922619
    30  H    2.765669   2.110581   3.342302   1.095146   4.146638
    31  H    2.807946   2.139457   3.074163   1.102214   4.090028
    32  H    3.352038   2.083858   2.545811   1.091222   4.528746
    33  H    2.175365   2.704289   2.522671   4.137990   1.082955
    34  H    3.416672   4.582618   4.854300   5.851680   2.136073
    35  H    4.702088   5.897091   6.898047   6.616987   4.486690
    36  H    6.815888   7.893436   9.028131   8.344189   6.829387
    37  H   10.073799  11.320590  12.508888  11.638492  10.021195
    38  H    9.593698  10.735430  12.032587  10.842139   9.790233
    39  H   10.686110  11.830846  13.092453  12.023761  10.787935
    40  H    8.593409   9.557011  10.842034   9.686490   8.881381
    41  H    8.964016  10.014010  11.168196  10.382264   8.986965
    42  H   10.134547  11.173358  12.418690  11.379960  10.282462
    43  H    8.323579   9.609895  10.763303   9.961196   8.251044
                   11         12         13         14         15
    11  C    0.000000
    12  C    3.773016   0.000000
    13  C    4.154071   1.404397   0.000000
    14  C    5.527732   2.453146   1.388908   0.000000
    15  C    6.470787   2.883971   2.443772   1.416692   0.000000
    16  N    7.817433   4.270546   3.716614   2.448882   1.386977
    17  C    8.839977   5.147347   4.893894   3.764463   2.453761
    18  C    8.354327   5.145526   4.243525   2.856359   2.453656
    19  C    6.218545   2.463260   2.771042   2.406588   1.409391
    20  C    5.018816   1.413656   2.389782   2.779804   2.454113
    21  C    5.419822   2.495089   3.735019   4.215675   3.730038
    22  N    6.047785   3.586112   4.878167   5.373125   4.803876
    23  H    4.069494   2.702994   3.867999   4.861510   5.016852
    24  H    2.801486   3.466441   4.537937   5.803653   6.251420
    25  H    3.383731   2.755915   3.048670   3.964715   4.567032
    26  H    3.857872   5.025446   5.032222   5.916669   6.734701
    27  H    4.239228   7.731791   7.972212   9.223318  10.224270
    28  H    4.089099   7.567759   7.523358   8.714555   9.880316
    29  H    5.312416   8.563419   8.545393   9.667026  10.766418
    30  H    5.120765   6.978249   6.777123   7.603701   8.571346
    31  H    5.098929   7.277334   7.414826   8.387121   9.212327
    32  H    5.770763   8.296593   8.207221   9.154811  10.154417
    33  H    2.130692   5.856352   6.041194   7.357639   8.427508
    34  H    1.086246   4.067263   4.510901   5.887098   6.803254
    35  H    3.629952   2.145824   1.085597   2.134064   3.416163
    36  H    6.031033   3.413468   2.128589   1.082824   2.176106
    37  H    8.912274   5.143631   5.111554   4.142342   2.761631
    38  H    8.849225   5.232861   5.108929   4.101832   2.812566
    39  H    9.806567   6.153074   5.768687   4.530177   3.349538
    40  H    8.178707   5.220837   4.244650   2.946163   2.806702
    41  H    8.143458   5.153169   4.091285   2.760263   2.769971
    42  H    9.436764   6.152070   5.312276   3.924715   3.349264
    43  H    7.128274   3.420707   3.851439   3.403199   2.173180
                   16         17         18         19         20
    16  N    0.000000
    17  C    1.455590   0.000000
    18  C    1.455439   2.494702   0.000000
    19  C    2.440012   2.845523   3.753771   0.000000
    20  C    3.726408   4.249786   4.903143   1.405275   0.000000
    21  C    4.852706   5.039120   6.148063   2.414011   1.438974
    22  N    5.825713   5.805183   7.174247   3.428551   2.601611
    23  H    6.288655   6.896381   7.362595   4.170780   2.943622
    24  H    7.611630   8.335547   8.547608   5.512209   4.144222
    25  H    5.775750   6.585838   6.337285   4.323736   3.497690
    26  H    7.827314   8.710880   8.096800   6.690086   5.913833
    27  H   11.498389  12.500145  11.841566  10.023591   8.869363
    28  H   11.095515  12.241870  11.264072   9.904165   8.855710
    29  H   11.942298  13.015621  12.083708  10.764971   9.753979
    30  H    9.576138  10.548620   9.616813   8.699477   7.976574
    31  H   10.322895  11.166777  10.586317   9.069961   8.169274
    32  H   11.222564  12.204949  11.300587  10.200963   9.347412
    33  H    9.729946  10.820641  10.102673   8.287263   7.125222
    34  H    8.152032   9.176707   8.736550   6.511371   5.280368
    35  H    4.580587   5.852020   4.855647   3.856474   3.377724
    36  H    2.706510   4.142884   2.524246   3.400750   3.861943
    37  H    2.111074   1.095245   3.339819   2.746071   4.086479
    38  H    2.138363   1.101653   3.094179   2.937018   4.255583
    39  H    2.083971   1.090838   2.549357   3.913846   5.318410
    40  H    2.138245   3.100428   1.101697   4.080086   5.106794
    41  H    2.112608   3.337020   1.095354   4.145782   5.134546
    42  H    2.083289   2.545174   1.090834   4.518837   5.777379
    43  H    2.702618   2.513688   4.133975   1.081598   2.135081
                   21         22         23         24         25
    21  C    0.000000
    22  N    1.164296   0.000000
    23  H    2.758472   3.190748   0.000000
    24  H    3.944405   4.235129   1.848179   0.000000
    25  H    4.075437   4.843477   4.715772   4.455828   0.000000
    26  H    6.423358   7.062668   6.707485   5.905939   2.423231
    27  H    9.089487   9.492216   8.067510   6.430306   6.057400
    28  H    9.331129   9.917212   8.134790   6.655114   6.145401
    29  H   10.160040  10.680206   9.321613   7.826653   6.658660
    30  H    8.549151   9.191420   8.587961   7.584051   4.525425
    31  H    8.449117   8.887298   8.467212   7.250546   4.749021
    32  H    9.795420  10.339100   9.540763   8.269896   5.934741
    33  H    7.503989   8.057129   6.059774   4.539593   4.944407
    34  H    5.614870   6.194290   3.743397   2.384224   4.292488
    35  H    4.627427   5.729707   4.285060   4.597800   3.132848
    36  H    5.298114   6.455440   5.787209   6.631447   4.583164
    37  H    4.675610   5.331893   6.487322   8.066367   6.899198
    38  H    4.894472   5.570362   7.075197   8.398989   6.279401
    39  H    6.121245   6.865126   7.910786   9.372622   7.543937
    40  H    6.368909   7.405975   7.671468   8.670398   5.917174
    41  H    6.466344   7.547620   7.270002   8.425540   6.531822
    42  H    6.930482   7.890287   8.264473   9.535988   7.355133
    43  H    2.564360   3.298261   4.719991   6.162811   5.117334
                   26         27         28         29         30
    26  H    0.000000
    27  H    4.535065   0.000000
    28  H    4.687890   1.779198   0.000000
    29  H    4.694155   1.778331   1.761877   0.000000
    30  H    2.147685   4.058300   4.005449   3.410806   0.000000
    31  H    2.501948   3.317894   4.054642   3.187064   1.779220
    32  H    3.584829   3.203215   3.404209   2.123842   1.762070
    33  H    4.325485   2.515597   2.143796   3.586841   4.677659
    34  H    4.943998   4.752456   4.530821   5.937990   6.133963
    35  H    4.679135   7.309134   6.681109   7.778257   6.199343
    36  H    6.226361   9.536640   8.852920   9.804406   7.690661
    37  H    9.159379  12.729563  12.529182  13.378713  11.086826
    38  H    8.343902  12.307951  12.171792  12.813930  10.203413
    39  H    9.580214  13.440513  13.112146  13.880144  11.336444
    40  H    7.457862  11.387933  10.816621  11.511126   8.871179
    41  H    8.225646  11.695582  10.980793  11.915551   9.653639
    42  H    9.103054  12.919427  12.340892  13.138722  10.599856
    43  H    7.485055  10.876741  10.857987  11.665321   9.535067
                   31         32         33         34         35
    31  H    0.000000
    32  H    1.778415   0.000000
    33  H    4.552103   4.695800   0.000000
    34  H    6.076860   6.661219   2.425708   0.000000
    35  H    6.964893   7.561610   5.311777   4.006769   0.000000
    36  H    8.677153   9.266019   7.680059   6.404506   2.424239
    37  H   11.587511  12.687526  10.965878   9.144626   6.126555
    38  H   10.742168  11.869396  10.807470   9.284697   6.085000
    39  H   12.046319  13.024259  11.751818  10.140033   6.660361
    40  H    9.912386  10.588388   9.816775   8.683056   4.750485
    41  H   10.697462  11.285347   9.824961   8.440820   4.539573
    42  H   11.584248  12.302969  11.193491   9.804829   5.939709
    43  H    9.815688  11.039044   9.214819   7.403890   4.936892
                   36         37         38         39         40
    36  H    0.000000
    37  H    4.676403   0.000000
    38  H    4.562800   1.779773   0.000000
    39  H    4.699282   1.762359   1.777527   0.000000
    40  H    2.500180   4.071322   3.358989   3.217406   0.000000
    41  H    2.162669   3.986630   4.067128   3.398365   1.779940
    42  H    3.590869   3.405245   3.199107   2.124022   1.777072
    43  H    4.322470   2.164090   2.472556   3.581768   4.536438
                   41         42         43
    41  H    0.000000
    42  H    1.761881   0.000000
    43  H    4.685176   4.689967   0.000000
 Stoichiometry    C19H21N3
 Framework group  C1[X(C19H21N3)]
 Deg. of freedom   123
 Full point group                 C1      NOp   1
 Largest Abelian subgroup         C1      NOp   1
 Largest concise Abelian subgroup C1      NOp   1
                         Standard orientation:                         
 ---------------------------------------------------------------------
 Center     Atomic      Atomic             Coordinates (Angstroms)
 Number     Number       Type             X           Y           Z
 ---------------------------------------------------------------------
      1          6           0       -0.085216    2.829996   -1.003585
      2          6           0       -0.126136    1.537174   -0.623681
      3          6           0       -1.415162    0.828157   -0.403722
      4          6           0       -1.571972   -0.113524    0.627669
      5          6           0       -2.789310   -0.739397    0.878075
      6          6           0       -3.928509   -0.469273    0.083060
      7          7           0       -5.139111   -1.119449    0.299753
      8          6           0       -6.336687   -0.625580   -0.363229
      9          6           0       -5.318467   -1.895417    1.517446
     10          6           0       -3.772263    0.475817   -0.958904
     11          6           0       -2.548200    1.095343   -1.190643
     12          6           0        1.133133    0.762059   -0.434099
     13          6           0        1.280978   -0.506013   -1.019305
     14          6           0        2.450982   -1.248307   -0.923616
     15          6           0        3.573533   -0.758537   -0.211563
     16          7           0        4.759954   -1.473309   -0.139369
     17          6           0        5.804166   -1.031858    0.773584
     18          6           0        4.787483   -2.857050   -0.589709
     19          6           0        3.427867    0.492991    0.419977
     20          6           0        2.239658    1.234869    0.307842
     21          6           0        2.198248    2.478734    1.030151
     22          7           0        2.236750    3.463044    1.650826
     23          1           0        0.850908    3.332744   -1.220295
     24          1           0       -0.990606    3.421786   -1.091215
     25          1           0       -0.727359   -0.348452    1.268957
     26          1           0       -2.847457   -1.438939    1.702631
     27          1           0       -6.582746    0.411623   -0.083385
     28          1           0       -6.228162   -0.668228   -1.452230
     29          1           0       -7.180412   -1.263230   -0.094510
     30          1           0       -4.580182   -2.701902    1.579594
     31          1           0       -5.236099   -1.283789    2.430683
     32          1           0       -6.306634   -2.358072    1.501904
     33          1           0       -4.604648    0.723331   -1.605947
     34          1           0       -2.468023    1.795622   -2.017149
     35          1           0        0.447068   -0.918135   -1.579011
     36          1           0        2.488547   -2.214658   -1.410711
     37          1           0        6.124639   -0.011590    0.537127
     38          1           0        5.486773   -1.057444    1.828215
     39          1           0        6.672839   -1.681946    0.660804
     40          1           0        4.109748   -3.506363   -0.012818
     41          1           0        4.515012   -2.931787   -1.647997
     42          1           0        5.802326   -3.243424   -0.486132
     43          1           0        4.226563    0.909739    1.018526
 ---------------------------------------------------------------------
 Rotational constants (GHZ):           0.5192263           0.1247666           0.1103239
 Standard basis: 6-31+G(d,p) (6D, 7F)
 There are   523 symmetry adapted cartesian basis functions of A   symmetry.
 There are   523 symmetry adapted basis functions of A   symmetry.
   523 basis functions,   851 primitive gaussians,   523 cartesian basis functions
    78 alpha electrons       78 beta electrons
       nuclear repulsion energy      1628.2178759448 Hartrees.
 NAtoms=   43 NActive=   43 NUniq=   43 SFac= 1.00D+00 NAtFMM=   60 NAOKFM=F Big=F
 Integral buffers will be    131072 words long.
 Regular integral format.
 Two-electron integral symmetry is turned on.
 One-electron integrals computed using PRISM.
 NBasis=   523 RedAO= T EigKep=  1.23D-06  NBF=   523
 NBsUse=   519 1.00D-06 EigRej=  9.20D-07 NBFU=   519
 ExpMin= 4.38D-02 ExpMax= 4.17D+03 ExpMxC= 6.27D+02 IAcc=3 IRadAn=         5 AccDes= 0.00D+00
 Harris functional with IExCor=  402 and IRadAn=       5 diagonalized for initial guess.
 HarFok:  IExCor=  402 AccDes= 0.00D+00 IRadAn=         5 IDoV= 1 UseB2=F ITyADJ=14
 ICtDFT=  3500011 ScaDFX=  1.000000  1.000000  1.000000  1.000000
 FoFCou: FMM=F IPFlag=           0 FMFlag=      100000 FMFlg1=           0
         NFxFlg=           0 DoJE=T BraDBF=F KetDBF=T FulRan=T
         wScrn=  0.000000 ICntrl=       500 IOpCl=  0 I1Cent=   200000004 NGrid=           0
         NMat0=    1 NMatS0=      1 NMatT0=    0 NMatD0=    1 NMtDS0=    0 NMtDT0=    0
 Petite list used in FoFCou.
 Requested convergence on RMS density matrix=1.00D-08 within 128 cycles.
 Requested convergence on MAX density matrix=1.00D-06.
 Requested convergence on             energy=1.00D-06.
 No special actions if energy rises.
 SCF Done:  E(RB3LYP) =  -900.938357468     A.U. after   17 cycles
            NFock= 17  Conv=0.31D-08     -V/T= 2.0098
 DoSCS=F DFT=T ScalE2(SS,OS)=  1.000000  1.000000
 ExpMin= 4.38D-02 ExpMax= 4.17D+03 ExpMxC= 6.27D+02 IAcc=3 IRadAn=         5 AccDes= 0.00D+00
 HarFok:  IExCor=  205 AccDes= 0.00D+00 IRadAn=         5 IDoV=-2 UseB2=F ITyADJ=14
 ICtDFT= 12500011 ScaDFX=  1.000000  1.000000  1.000000  1.000000
 GSVD:  LWork=        -660 too small for GESVD, short by        2750 words or        2750 for optimal perf.
 Range of M.O.s used for correlation:    23   519
 NBasis=   523 NAE=    78 NBE=    78 NFC=    22 NFV=     0
 NROrb=    497 NOA=    56 NOB=    56 NVA=   441 NVB=   441

 **** Warning!!: The largest alpha MO coefficient is  0.16383414D+03

 Orbital symmetries:
       Occupied  (A) (A) (A) (A) (A) (A) (A) (A) (A) (A) (A) (A)
                 (A) (A) (A) (A) (A) (A) (A) (A) (A) (A) (A) (A)
                 (A) (A) (A) (A) (A) (A) (A) (A) (A) (A) (A) (A)
                 (A) (A) (A) (A) (A) (A) (A) (A) (A) (A) (A) (A)
                 (A) (A) (A) (A) (A) (A) (A) (A) (A) (A) (A) (A)
                 (A) (A) (A) (A) (A) (A) (A) (A) (A) (A) (A) (A)
                 (A) (A) (A) (A) (A) (A)
       Virtual   (A) (A) (A) (A) (A) (A) (A) (A) (A) (A) (A) (A)
                 (A) (A) (A) (A) (A) (A) (A) (A) (A) (A) (A) (A)
                 (A) (A) (A) (A) (A) (A) (A) (A) (A) (A) (A) (A)
                 (A) (A) (A) (A) (A) (A) (A) (A) (A) (A) (A) (A)
                 (A) (A) (A) (A) (A) (A) (A) (A) (A) (A) (A) (A)
                 (A) (A) (A) (A) (A) (A) (A) (A) (A) (A) (A) (A)
                 (A) (A) (A) (A) (A) (A) (A) (A) (A) (A) (A) (A)
                 (A) (A) (A) (A) (A) (A) (A) (A) (A) (A) (A) (A)
                 (A) (A) (A) (A) (A) (A) (A) (A) (A) (A) (A) (A)
                 (A) (A) (A) (A) (A) (A) (A) (A) (A) (A) (A) (A)
                 (A) (A) (A) (A) (A) (A) (A) (A) (A) (A) (A) (A)
                 (A) (A) (A) (A) (A) (A) (A) (A) (A) (A) (A) (A)
                 (A) (A) (A) (A) (A) (A) (A) (A) (A) (A) (A) (A)
                 (A) (A) (A) (A) (A) (A) (A) (A) (A) (A) (A) (A)
                 (A) (A) (A) (A) (A) (A) (A) (A) (A) (A) (A) (A)
                 (A) (A) (A) (A) (A) (A) (A) (A) (A) (A) (A) (A)
                 (A) (A) (A) (A) (A) (A) (A) (A) (A) (A) (A) (A)
                 (A) (A) (A) (A) (A) (A) (A) (A) (A) (A) (A) (A)
                 (A) (A) (A) (A) (A) (A) (A) (A) (A) (A) (A) (A)
                 (A) (A) (A) (A) (A) (A) (A) (A) (A) (A) (A) (A)
                 (A) (A) (A) (A) (A) (A) (A) (A) (A) (A) (A) (A)
                 (A) (A) (A) (A) (A) (A) (A) (A) (A) (A) (A) (A)
                 (A) (A) (A) (A) (A) (A) (A) (A) (A) (A) (A) (A)
                 (A) (A) (A) (A) (A) (A) (A) (A) (A) (A) (A) (A)
                 (A) (A) (A) (A) (A) (A) (A) (A) (A) (A) (A) (A)
                 (A) (A) (A) (A) (A) (A) (A) (A) (A) (A) (A) (A)
                 (A) (A) (A) (A) (A) (A) (A) (A) (A) (A) (A) (A)
                 (A) (A) (A) (A) (A) (A) (A) (A) (A) (A) (A) (A)
                 (A) (A) (A) (A) (A) (A) (A) (A) (A) (A) (A) (A)
                 (A) (A) (A) (A) (A) (A) (A) (A) (A) (A) (A) (A)
                 (A) (A) (A) (A) (A) (A) (A) (A) (A) (A) (A) (A)
                 (A) (A) (A) (A) (A) (A) (A) (A) (A) (A) (A) (A)
                 (A) (A) (A) (A) (A) (A) (A) (A) (A) (A) (A) (A)
                 (A) (A) (A) (A) (A) (A) (A) (A) (A) (A) (A) (A)
                 (A) (A) (A) (A) (A) (A) (A) (A) (A) (A) (A) (A)
                 (A) (A) (A) (A) (A) (A) (A) (A) (A) (A) (A) (A)
                 (A) (A) (A) (A) (A) (A) (A) (A) (A)
    24 initial guesses have been made.
 Convergence on wavefunction:    0.001000000000000
 Iteration     1 Dimension    24 NMult     0 NNew     24
 CISAX will form    24 AO SS matrices at one time.
 New state      1 was old state      2
 New state      2 was old state      6
 New state      3 was old state      1
 New state      5 was old state      8
 New state      6 was old state     10
 New state      7 was old state      5
 New state      8 was old state     14
 New state      9 was old state      3
 New state     10 was old state     16
 New state     11 was old state     15
 New state     12 was old state      7
 Vector   5 SDiff=9.01D-02 TDiff=7.78D+00 assumed to be singlet.
 Vector   6 SDiff=1.39D+01 TDiff=1.91D+01 assumed to be singlet.
 Vector  11 SDiff=8.34D-02 TDiff=6.25D+00 assumed to be singlet.
 Vector  12 SDiff=1.30D+01 TDiff=1.03D+01 assumed to be triplet.
 Iteration     2 Dimension    36 NMult    24 NNew     12
 New state      5 was old state      9
 New state      6 was old state      7
 Iteration     3 Dimension    48 NMult    36 NNew     12
 New state      3 was old state      4
 New state      4 was old state      3
 Iteration     4 Dimension    60 NMult    48 NNew     12
 Iteration     5 Dimension    72 NMult    60 NNew     12
 Iteration     6 Dimension    84 NMult    72 NNew     12
 Iteration     7 Dimension    88 NMult    84 NNew      4
 ***********************************************************************
 Excited states from <AA,BB:AA,BB> singles matrix:
 ***********************************************************************
 
 Ground to excited state transition densities written to RWF  633
 Ground to excited state transition electric dipole moments (Au):
       state          X           Y           Z        Dip. S.      Osc.
         1        -0.0000      0.0000     -0.0000      0.0000      0.0000
         2        -0.0000     -0.0000      0.0000      0.0000      0.0000
         3         0.0000      0.0000     -0.0000      0.0000      0.0000
         4         0.4417     -0.1827      0.3142      0.3272      0.0269
         5        -1.1839     -0.3736     -0.2782      1.6185      0.1510
         6        -0.4053     -0.6205      0.2507      0.6122      0.0587
 Ground to excited state transition velocity dipole moments (Au):
       state          X           Y           Z        Dip. S.      Osc.
         1         0.0000      0.0000      0.0000      0.0000      0.0000
         2        -0.0000      0.0000     -0.0000      0.0000      0.0000
         3        -0.0000     -0.0000      0.0000      0.0000      0.0000
         4        -0.0520      0.0215     -0.0385      0.0047      0.0252
         5         0.1648      0.0538      0.0433      0.0319      0.1521
         6         0.0547      0.0867     -0.0324      0.0116      0.0535
 Ground to excited state transition magnetic dipole moments (Au):
       state          X           Y           Z
         1        -0.0000     -0.0000     -0.0000
         2        -0.0000     -0.0000     -0.0000
         3        -0.0000      0.0000      0.0000
         4         0.0353      0.1323     -0.0597
         5         0.0332     -0.2728     -0.1735
         6         0.0352      0.0072      0.0867
 Ground to excited state transition velocity quadrupole moments (Au):
       state          XX          YY          ZZ          XY          XZ          YZ
         1        -0.0000     -0.0000     -0.0000     -0.0000      0.0000     -0.0000
         2         0.0000     -0.0000      0.0000     -0.0000      0.0000     -0.0000
         3         0.0000      0.0000      0.0000      0.0000      0.0000      0.0000
         4        -0.4322      0.1082      0.0065     -0.1127     -0.0592     -0.1312
         5         0.1704      0.1376     -0.0108      0.0368      0.2930      0.0318
         6        -1.7152      0.3935      0.0517      0.0282     -0.1387     -0.1817
 <0|del|b> * <b|rxdel|0> + <0|del|b> * <b|delr+rdel|0>
 Rotatory Strengths (R) in cgs (10**-40 erg-esu-cm/Gauss)
       state          XX          YY          ZZ    R(velocity)    E-M Angle
         1        -0.0000     -0.0000      0.0000     -0.0000       90.00
         2        -0.0000     -0.0000     -0.0000     -0.0000       90.00
         3         0.0000      0.0000      0.0000      0.0000       90.00
         4        30.8687      8.4670    -20.3444      6.3304       71.06
         5       -91.8531      4.0639      3.3057    -28.1612      106.73
         6        21.9456    -24.3610      1.1478     -0.4225       91.46
 1/2[<0|r|b>*<b|rxdel|0> + (<0|rxdel|b>*<b|r|0>)*]
 Rotatory Strengths (R) in cgs (10**-40 erg-esu-cm/Gauss)
       state          XX          YY          ZZ     R(length)
         1        -0.0000      0.0000     -0.0000      0.0000
         2        -0.0000     -0.0000      0.0000     -0.0000
         3         0.0000     -0.0000      0.0000      0.0000
         4       -11.0200     17.0943     13.2729      6.4491
         5        27.7736    -72.0778    -34.1275    -26.1439
         6        10.0933      3.1709    -15.3761     -0.7039
  1/2[<0|del|b>*<b|r|0> + (<0|r|b>*<b|del|0>)*] (Au)
       state          X           Y           Z        Dip. S.   Osc.(frdel)
         1        -0.0000      0.0000     -0.0000      0.0000      0.0000
         2         0.0000     -0.0000     -0.0000      0.0000      0.0000
         3        -0.0000     -0.0000     -0.0000      0.0000      0.0000
         4        -0.0230     -0.0039     -0.0121      0.0390      0.0260
         5        -0.1951     -0.0201     -0.0120      0.2272      0.1515
         6        -0.0222     -0.0538     -0.0081      0.0841      0.0560

 Excitation energies and oscillator strengths:
 
 Excited State   1:      Triplet-A      2.6333 eV  470.83 nm  f=0.0000  <S**2>=2.000
      75 -> 80        -0.14448
      77 -> 79        -0.31000
      78 -> 79         0.44464
      78 -> 80         0.34992
      78 -> 81        -0.10733
 This state for optimization and/or second-order correction.
 Total Energy, E(TD-HF/TD-DFT) =  -900.841585103    
 Copying the excited state density for this state as the 1-particle RhoCI density.
 
 Excited State   2:      Triplet-A      2.9833 eV  415.59 nm  f=0.0000  <S**2>=2.000
      77 -> 79         0.46034
      78 -> 79        -0.12720
      78 -> 80         0.41609
      78 -> 81        -0.20327
      78 -> 84         0.10026
 
 Excited State   3:      Triplet-A      3.2782 eV  378.21 nm  f=0.0000  <S**2>=2.000
      74 -> 79         0.24217
      74 -> 80        -0.10543
      77 -> 79         0.11921
      77 -> 80         0.35193
      77 -> 81         0.11440
      77 -> 83         0.14330
      77 -> 84        -0.10224
      78 -> 79         0.32863
      78 -> 80        -0.19822
      78 -> 81        -0.25071
 
 Excited State   4:      Singlet-A      3.3515 eV  369.94 nm  f=0.0269  <S**2>=0.000
      78 -> 79         0.69810
 
 Excited State   5:      Singlet-A      3.8084 eV  325.56 nm  f=0.1510  <S**2>=0.000
      77 -> 79         0.64653
      78 -> 80         0.24371
 
 Excited State   6:      Singlet-A      3.9141 eV  316.76 nm  f=0.0587  <S**2>=0.000
      77 -> 79        -0.23761
      78 -> 80         0.63015
      78 -> 81         0.13754
 SavETr:  write IOETrn=   770 NScale= 10 NData=  16 NLR=1 NState=    6 LETran=     118.

 **********************************************************************

            Population analysis using the SCF Density.

 **********************************************************************

 Orbital symmetries:
       Occupied  (A) (A) (A) (A) (A) (A) (A) (A) (A) (A) (A) (A)
                 (A) (A) (A) (A) (A) (A) (A) (A) (A) (A) (A) (A)
                 (A) (A) (A) (A) (A) (A) (A) (A) (A) (A) (A) (A)
                 (A) (A) (A) (A) (A) (A) (A) (A) (A) (A) (A) (A)
                 (A) (A) (A) (A) (A) (A) (A) (A) (A) (A) (A) (A)
                 (A) (A) (A) (A) (A) (A) (A) (A) (A) (A) (A) (A)
                 (A) (A) (A) (A) (A) (A)
       Virtual   (A) (A) (A) (A) (A) (A) (A) (A) (A) (A) (A) (A)
                 (A) (A) (A) (A) (A) (A) (A) (A) (A) (A) (A) (A)
                 (A) (A) (A) (A) (A) (A) (A) (A) (A) (A) (A) (A)
                 (A) (A) (A) (A) (A) (A) (A) (A) (A) (A) (A) (A)
                 (A) (A) (A) (A) (A) (A) (A) (A) (A) (A) (A) (A)
                 (A) (A) (A) (A) (A) (A) (A) (A) (A) (A) (A) (A)
                 (A) (A) (A) (A) (A) (A) (A) (A) (A) (A) (A) (A)
                 (A) (A) (A) (A) (A) (A) (A) (A) (A) (A) (A) (A)
                 (A) (A) (A) (A) (A) (A) (A) (A) (A) (A) (A) (A)
                 (A) (A) (A) (A) (A) (A) (A) (A) (A) (A) (A) (A)
                 (A) (A) (A) (A) (A) (A) (A) (A) (A) (A) (A) (A)
                 (A) (A) (A) (A) (A) (A) (A) (A) (A) (A) (A) (A)
                 (A) (A) (A) (A) (A) (A) (A) (A) (A) (A) (A) (A)
                 (A) (A) (A) (A) (A) (A) (A) (A) (A) (A) (A) (A)
                 (A) (A) (A) (A) (A) (A) (A) (A) (A) (A) (A) (A)
                 (A) (A) (A) (A) (A) (A) (A) (A) (A) (A) (A) (A)
                 (A) (A) (A) (A) (A) (A) (A) (A) (A) (A) (A) (A)
                 (A) (A) (A) (A) (A) (A) (A) (A) (A) (A) (A) (A)
                 (A) (A) (A) (A) (A) (A) (A) (A) (A) (A) (A) (A)
                 (A) (A) (A) (A) (A) (A) (A) (A) (A) (A) (A) (A)
                 (A) (A) (A) (A) (A) (A) (A) (A) (A) (A) (A) (A)
                 (A) (A) (A) (A) (A) (A) (A) (A) (A) (A) (A) (A)
                 (A) (A) (A) (A) (A) (A) (A) (A) (A) (A) (A) (A)
                 (A) (A) (A) (A) (A) (A) (A) (A) (A) (A) (A) (A)
                 (A) (A) (A) (A) (A) (A) (A) (A) (A) (A) (A) (A)
                 (A) (A) (A) (A) (A) (A) (A) (A) (A) (A) (A) (A)
                 (A) (A) (A) (A) (A) (A) (A) (A) (A) (A) (A) (A)
                 (A) (A) (A) (A) (A) (A) (A) (A) (A) (A) (A) (A)
                 (A) (A) (A) (A) (A) (A) (A) (A) (A) (A) (A) (A)
                 (A) (A) (A) (A) (A) (A) (A) (A) (A) (A) (A) (A)
                 (A) (A) (A) (A) (A) (A) (A) (A) (A) (A) (A) (A)
                 (A) (A) (A) (A) (A) (A) (A) (A) (A) (A) (A) (A)
                 (A) (A) (A) (A) (A) (A) (A) (A) (A) (A) (A) (A)
                 (A) (A) (A) (A) (A) (A) (A) (A) (A) (A) (A) (A)
                 (A) (A) (A) (A) (A) (A) (A) (A) (A) (A) (A) (A)
                 (A) (A) (A) (A) (A) (A) (A) (A) (A) (A) (A) (A)
                 (A) (A) (A) (A) (A) (A) (A) (A) (A)
 The electronic state is 1-A.
 Alpha  occ. eigenvalues --  -14.37370 -14.36348 -14.33075 -10.24773 -10.23435
 Alpha  occ. eigenvalues --  -10.23378 -10.23325 -10.23187 -10.22471 -10.22470
 Alpha  occ. eigenvalues --  -10.22412 -10.21006 -10.20672 -10.20401 -10.20339
 Alpha  occ. eigenvalues --  -10.20278 -10.19071 -10.19039 -10.18991 -10.18724
 Alpha  occ. eigenvalues --  -10.18695 -10.17785  -0.96540  -0.95420  -0.90171
 Alpha  occ. eigenvalues --   -0.87016  -0.84951  -0.80251  -0.77775  -0.75758
 Alpha  occ. eigenvalues --   -0.75140  -0.73947  -0.73005  -0.72554  -0.67681
 Alpha  occ. eigenvalues --   -0.66624  -0.64598  -0.61021  -0.60119  -0.59219
 Alpha  occ. eigenvalues --   -0.56384  -0.54247  -0.52738  -0.50555  -0.49893
 Alpha  occ. eigenvalues --   -0.49156  -0.48191  -0.47932  -0.47076  -0.45356
 Alpha  occ. eigenvalues --   -0.45082  -0.44374  -0.44239  -0.42828  -0.42277
 Alpha  occ. eigenvalues --   -0.42177  -0.41866  -0.41391  -0.41258  -0.39951
 Alpha  occ. eigenvalues --   -0.39697  -0.39254  -0.38702  -0.37936  -0.36832
 Alpha  occ. eigenvalues --   -0.36687  -0.35111  -0.35054  -0.34434  -0.33528
 Alpha  occ. eigenvalues --   -0.32256  -0.31009  -0.29610  -0.26163  -0.25671
 Alpha  occ. eigenvalues --   -0.25166  -0.20889  -0.19113
 Alpha virt. eigenvalues --   -0.04947  -0.03140  -0.01104  -0.00863  -0.00633
 Alpha virt. eigenvalues --   -0.00168   0.01168   0.01431   0.01492   0.02394
 Alpha virt. eigenvalues --    0.03006   0.03044   0.03353   0.03634   0.03819
 Alpha virt. eigenvalues --    0.04091   0.04273   0.04697   0.05048   0.05549
 Alpha virt. eigenvalues --    0.05612   0.05999   0.06288   0.06931   0.07067
 Alpha virt. eigenvalues --    0.07311   0.07862   0.07964   0.08584   0.09109
 Alpha virt. eigenvalues --    0.09491   0.09613   0.09754   0.10245   0.10557
 Alpha virt. eigenvalues --    0.10870   0.11474   0.12107   0.12220   0.12318
 Alpha virt. eigenvalues --    0.13241   0.13473   0.14065   0.14199   0.14308
 Alpha virt. eigenvalues --    0.14774   0.14938   0.15311   0.15447   0.15967
 Alpha virt. eigenvalues --    0.16375   0.16464   0.16798   0.17225   0.17579
 Alpha virt. eigenvalues --    0.17830   0.18148   0.18888   0.19043   0.19320
 Alpha virt. eigenvalues --    0.19772   0.20154   0.20353   0.20750   0.20871
 Alpha virt. eigenvalues --    0.21029   0.21484   0.21516   0.21581   0.22119
 Alpha virt. eigenvalues --    0.22520   0.22663   0.22767   0.23385   0.23650
 Alpha virt. eigenvalues --    0.23792   0.24241   0.24542   0.24678   0.24893
 Alpha virt. eigenvalues --    0.25238   0.25431   0.26045   0.26175   0.26517
 Alpha virt. eigenvalues --    0.26906   0.27044   0.27368   0.27764   0.27831
 Alpha virt. eigenvalues --    0.28386   0.28528   0.28785   0.28936   0.29138
 Alpha virt. eigenvalues --    0.29652   0.29794   0.29870   0.30326   0.30381
 Alpha virt. eigenvalues --    0.30886   0.30961   0.31067   0.31503   0.32157
 Alpha virt. eigenvalues --    0.32536   0.32830   0.33056   0.33475   0.33814
 Alpha virt. eigenvalues --    0.34249   0.34717   0.34895   0.35603   0.36142
 Alpha virt. eigenvalues --    0.36583   0.37034   0.37321   0.37739   0.38637
 Alpha virt. eigenvalues --    0.38889   0.39412   0.39935   0.41078   0.42686
 Alpha virt. eigenvalues --    0.43563   0.43759   0.44967   0.46544   0.46703
 Alpha virt. eigenvalues --    0.48511   0.49705   0.55473   0.57463   0.60583
 Alpha virt. eigenvalues --    0.62237   0.64593   0.65093   0.65653   0.65887
 Alpha virt. eigenvalues --    0.66585   0.67411   0.67568   0.68935   0.69530
 Alpha virt. eigenvalues --    0.69953   0.70493   0.71573   0.72486   0.72993
 Alpha virt. eigenvalues --    0.73698   0.73940   0.74582   0.74863   0.75782
 Alpha virt. eigenvalues --    0.76079   0.76724   0.77217   0.77625   0.78004
 Alpha virt. eigenvalues --    0.78518   0.79120   0.79278   0.80218   0.80832
 Alpha virt. eigenvalues --    0.81665   0.82287   0.83527   0.84072   0.85081
 Alpha virt. eigenvalues --    0.85657   0.86464   0.87375   0.88560   0.89225
 Alpha virt. eigenvalues --    0.90077   0.90573   0.91047   0.91663   0.92365
 Alpha virt. eigenvalues --    0.92806   0.93123   0.93408   0.93772   0.94665
 Alpha virt. eigenvalues --    0.95100   0.95907   0.96352   0.96995   0.97576
 Alpha virt. eigenvalues --    0.97985   0.99927   1.01387   1.01831   1.02479
 Alpha virt. eigenvalues --    1.03190   1.04078   1.04582   1.05231   1.05778
 Alpha virt. eigenvalues --    1.05900   1.06704   1.07182   1.07369   1.08659
 Alpha virt. eigenvalues --    1.10061   1.10854   1.11346   1.11798   1.11878
 Alpha virt. eigenvalues --    1.12450   1.12982   1.14150   1.14755   1.16085
 Alpha virt. eigenvalues --    1.17640   1.18307   1.20155   1.20519   1.20914
 Alpha virt. eigenvalues --    1.21986   1.22079   1.23621   1.24751   1.25499
 Alpha virt. eigenvalues --    1.25604   1.27552   1.28184   1.28595   1.28850
 Alpha virt. eigenvalues --    1.29668   1.30251   1.31682   1.32142   1.34339
 Alpha virt. eigenvalues --    1.36315   1.37176   1.38335   1.38838   1.40431
 Alpha virt. eigenvalues --    1.40995   1.41468   1.42376   1.43891   1.44534
 Alpha virt. eigenvalues --    1.45788   1.46626   1.47551   1.48905   1.49665
 Alpha virt. eigenvalues --    1.51975   1.52796   1.56165   1.56980   1.57628
 Alpha virt. eigenvalues --    1.58162   1.59543   1.61134   1.64417   1.67155
 Alpha virt. eigenvalues --    1.70375   1.72695   1.74573   1.74930   1.75268
 Alpha virt. eigenvalues --    1.76262   1.79078   1.80710   1.81903   1.83394
 Alpha virt. eigenvalues --    1.83995   1.84565   1.84867   1.85563   1.86769
 Alpha virt. eigenvalues --    1.87322   1.88609   1.88914   1.89401   1.91564
 Alpha virt. eigenvalues --    1.92173   1.93013   1.95005   1.96002   1.96410
 Alpha virt. eigenvalues --    1.96947   1.97338   1.98492   1.98877   1.99121
 Alpha virt. eigenvalues --    2.00437   2.00687   2.01777   2.01982   2.02373
 Alpha virt. eigenvalues --    2.03074   2.03557   2.04542   2.04913   2.05403
 Alpha virt. eigenvalues --    2.06858   2.07936   2.08510   2.09219   2.09402
 Alpha virt. eigenvalues --    2.09557   2.10333   2.11260   2.11526   2.12590
 Alpha virt. eigenvalues --    2.14135   2.14851   2.16263   2.16519   2.18358
 Alpha virt. eigenvalues --    2.20791   2.21394   2.21552   2.22272   2.22998
 Alpha virt. eigenvalues --    2.26984   2.27296   2.28389   2.28784   2.30460
 Alpha virt. eigenvalues --    2.32329   2.34198   2.34962   2.35014   2.35302
 Alpha virt. eigenvalues --    2.35917   2.36876   2.40058   2.41802   2.42865
 Alpha virt. eigenvalues --    2.44266   2.45889   2.46396   2.46577   2.48270
 Alpha virt. eigenvalues --    2.49219   2.50986   2.54313   2.54474   2.54956
 Alpha virt. eigenvalues --    2.55200   2.55458   2.56290   2.56873   2.57205
 Alpha virt. eigenvalues --    2.57859   2.60003   2.60774   2.60859   2.61332
 Alpha virt. eigenvalues --    2.62667   2.63041   2.65102   2.65551   2.67238
 Alpha virt. eigenvalues --    2.68482   2.69958   2.70911   2.71706   2.71891
 Alpha virt. eigenvalues --    2.72857   2.73604   2.74526   2.74632   2.75442
 Alpha virt. eigenvalues --    2.78872   2.79659   2.80733   2.81138   2.81873
 Alpha virt. eigenvalues --    2.83257   2.83689   2.84817   2.85620   2.86766
 Alpha virt. eigenvalues --    2.87894   2.88469   2.92209   2.93091   2.98292
 Alpha virt. eigenvalues --    2.99439   3.05607   3.08550   3.09402   3.12015
 Alpha virt. eigenvalues --    3.12769   3.12878   3.13461   3.20799   3.21338
 Alpha virt. eigenvalues --    3.23587   3.24067   3.24700   3.25350   3.30826
 Alpha virt. eigenvalues --    3.30958   3.33412   3.35857   3.38118   3.39956
 Alpha virt. eigenvalues --    3.40994   3.41749   3.42912   3.43062   3.43625
 Alpha virt. eigenvalues --    3.48380   3.49132   3.49819   3.51769   3.52155
 Alpha virt. eigenvalues --    3.55010   3.61953   3.76532   3.82764   4.25287
 Alpha virt. eigenvalues --    4.26970   4.32628   4.33059   4.35491   4.39803
 Alpha virt. eigenvalues --    4.41644   4.44366   4.47100   4.48596   4.50522
 Alpha virt. eigenvalues --    4.51195   4.52337   4.53758   4.55091   4.57414
 Alpha virt. eigenvalues --    4.57722   4.59193   4.64222   4.67447   4.87312
 Alpha virt. eigenvalues --    4.94437
          Condensed to atoms (all electrons):
               1          2          3          4          5          6
     1  C   17.116983   0.009192  -4.304394  -0.806143  -0.649583  -0.208956
     2  C    0.009192  25.986087 -12.086796   2.549184  -1.490577  -0.710779
     3  C   -4.304394 -12.086796  30.044759  -1.011779  -0.570537  -0.289064
     4  C   -0.806143   2.549184  -1.011779   9.286998   1.090102  -0.869352
     5  C   -0.649583  -1.490577  -0.570537   1.090102   9.565600   0.881167
     6  C   -0.208956  -0.710779  -0.289064  -0.869352   0.881167   7.312806
     7  N   -0.009919   0.031055  -0.116641  -0.022035  -0.186179   0.420406
     8  C    0.004131  -0.004566  -0.029015  -0.047466  -0.084526  -0.214514
     9  C    0.002941  -0.004593  -0.039299   0.059935   0.087992  -0.173140
    10  C   -0.383338  -1.957752  -0.073150  -2.519394  -2.274705   0.214059
    11  C   -0.124825   0.780028  -1.785293  -0.883566  -0.996386  -0.542552
    12  C   -4.497981  -8.002475  -4.711237  -1.060113   0.709042   0.099250
    13  C    1.551345   6.963682  -4.942769   1.194448  -0.341652  -0.015847
    14  C   -0.489038  -1.382790  -4.107457  -0.157483   0.371090   0.023171
    15  C   -0.281112  -0.211881   0.111688   0.078168  -0.022304   0.006115
    16  N    0.007300   0.014581  -0.018166   0.000783  -0.002168  -0.000320
    17  C    0.001611  -0.003723   0.016082  -0.004186  -0.001273  -0.000006
    18  C   -0.007997  -0.030683  -0.011110  -0.001921   0.004186   0.000006
    19  C   -0.065525   0.204167   2.929460  -0.139939  -0.069592   0.003798
    20  C   -2.883919  -4.277880   7.110225  -0.393068   0.065839   0.032022
    21  C    1.026360  -0.216107  -0.469857  -0.265756  -0.019095  -0.040308
    22  N   -0.043347   0.165701   0.005669  -0.004006  -0.005242   0.000899
    23  H    0.599773  -0.227860  -0.011718  -0.010841   0.000191   0.000191
    24  H    0.622976  -0.207163  -0.071201  -0.029086  -0.005061  -0.001280
    25  H    0.004068   0.069622   0.010772   0.364871  -0.111793   0.006278
    26  H    0.001824   0.011307   0.083664  -0.048604   0.158818   0.036874
    27  H    0.000647  -0.001081   0.005761  -0.005814  -0.030856  -0.127146
    28  H   -0.000434   0.001743  -0.002627  -0.006111  -0.038993  -0.048594
    29  H   -0.000015  -0.000152  -0.001470   0.005175   0.034452   0.059848
    30  H   -0.000220  -0.000071   0.000426   0.002170   0.033750  -0.024187
    31  H    0.000326  -0.000842   0.003223   0.051867   0.140909  -0.150546
    32  H   -0.000003  -0.000076  -0.001394  -0.013844  -0.072420   0.058310
    33  H    0.002769  -0.000019   0.089926   0.025215   0.057335   0.052273
    34  H    0.016334  -0.021828  -0.100398  -0.040245  -0.004242   0.022242
    35  H   -0.027243  -0.035508  -0.005335   0.044158   0.024090  -0.001259
    36  H    0.002790   0.002888   0.006338  -0.000629  -0.002627   0.000081
    37  H    0.000469  -0.000594  -0.000427  -0.000018  -0.000015  -0.000000
    38  H   -0.000354   0.000393   0.000622  -0.000012   0.000036   0.000002
    39  H    0.000009  -0.000022  -0.000014   0.000001   0.000000  -0.000000
    40  H   -0.000246  -0.001217   0.001324  -0.000198   0.000323   0.000014
    41  H    0.000324   0.000483  -0.001025   0.000071  -0.000039  -0.000006
    42  H    0.000004  -0.000102  -0.000009  -0.000016  -0.000005  -0.000000
    43  H   -0.001916   0.010684   0.001835  -0.000962  -0.000114  -0.000021
               7          8          9         10         11         12
     1  C   -0.009919   0.004131   0.002941  -0.383338  -0.124825  -4.497981
     2  C    0.031055  -0.004566  -0.004593  -1.957752   0.780028  -8.002475
     3  C   -0.116641  -0.029015  -0.039299  -0.073150  -1.785293  -4.711237
     4  C   -0.022035  -0.047466   0.059935  -2.519394  -0.883566  -1.060113
     5  C   -0.186179  -0.084526   0.087992  -2.274705  -0.996386   0.709042
     6  C    0.420406  -0.214514  -0.173140   0.214059  -0.542552   0.099250
     7  N    7.167992   0.186427   0.191195  -0.186254   0.013892   0.022755
     8  C    0.186427   5.151390  -0.073851   0.137374   0.025223   0.006582
     9  C    0.191195  -0.073851   5.151659  -0.133344   0.002660  -0.010065
    10  C   -0.186254   0.137374  -0.133344  11.910192  -0.026168   1.434143
    11  C    0.013892   0.025223   0.002660  -0.026168   8.318167   1.299635
    12  C    0.022755   0.006582  -0.010065   1.434143   1.299635  35.110937
    13  C    0.002072  -0.002316   0.000114  -0.688460   0.008631  -3.986769
    14  C    0.002766   0.001105  -0.002732   0.015070   0.446199   3.899361
    15  C   -0.000129   0.000040  -0.000483   0.006899   0.015550   1.108557
    16  N   -0.000000  -0.000000  -0.000003  -0.000201  -0.000364  -0.070339
    17  C   -0.000001   0.000000  -0.000000   0.000323   0.000574  -0.098402
    18  C    0.000003  -0.000001   0.000004   0.000049   0.000805   0.099695
    19  C   -0.000845  -0.000044   0.000087   0.050039  -0.164220 -10.405399
    20  C   -0.004645   0.000067  -0.000852   0.336286  -0.396148  -2.762487
    21  C    0.000518   0.000198  -0.000497   0.055954   0.055333  -3.180965
    22  N    0.000003   0.000003  -0.000004  -0.000720   0.005238   0.135852
    23  H    0.000003   0.000005   0.000002   0.000940   0.003116   0.047493
    24  H   -0.000002   0.000030  -0.000017   0.023955   0.036257  -0.046392
    25  H   -0.000640   0.000372   0.000426  -0.000580  -0.006205  -0.066999
    26  H   -0.029449   0.000537  -0.004896   0.082570   0.001792   0.005498
    27  H   -0.069642   0.426992   0.003283   0.097856   0.049367  -0.000394
    28  H   -0.048965   0.409271   0.006023   0.054605   0.023629   0.000297
    29  H   -0.056150   0.409375  -0.007158  -0.071492  -0.018566   0.000013
    30  H   -0.050787   0.007282   0.407956  -0.022892  -0.005066   0.000967
    31  H   -0.068118   0.001974   0.431159  -0.048423  -0.011889  -0.000834
    32  H   -0.055414  -0.007408   0.408593   0.031762   0.005792   0.000030
    33  H   -0.029976  -0.005712  -0.000304   0.095058   0.016265  -0.004282
    34  H   -0.000602   0.000705   0.000368   0.045199   0.365369  -0.000740
    35  H    0.000013  -0.000060   0.000122  -0.006832  -0.007667   0.010631
    36  H   -0.000000   0.000001  -0.000001   0.000418   0.000764   0.051935
    37  H   -0.000000  -0.000000  -0.000000  -0.000000   0.000006   0.010480
    38  H   -0.000000   0.000000   0.000000   0.000000   0.000003  -0.009190
    39  H    0.000000  -0.000000   0.000000   0.000000  -0.000000  -0.000402
    40  H    0.000000   0.000000   0.000000   0.000005  -0.000032   0.008269
    41  H    0.000000  -0.000000  -0.000000  -0.000003  -0.000019   0.000962
    42  H   -0.000000  -0.000000  -0.000000  -0.000000   0.000002  -0.002297
    43  H    0.000000  -0.000000   0.000000   0.000007   0.000201   0.149090
              13         14         15         16         17         18
     1  C    1.551345  -0.489038  -0.281112   0.007300   0.001611  -0.007997
     2  C    6.963682  -1.382790  -0.211881   0.014581  -0.003723  -0.030683
     3  C   -4.942769  -4.107457   0.111688  -0.018166   0.016082  -0.011110
     4  C    1.194448  -0.157483   0.078168   0.000783  -0.004186  -0.001921
     5  C   -0.341652   0.371090  -0.022304  -0.002168  -0.001273   0.004186
     6  C   -0.015847   0.023171   0.006115  -0.000320  -0.000006   0.000006
     7  N    0.002072   0.002766  -0.000129  -0.000000  -0.000001   0.000003
     8  C   -0.002316   0.001105   0.000040  -0.000000   0.000000  -0.000001
     9  C    0.000114  -0.002732  -0.000483  -0.000003  -0.000000   0.000004
    10  C   -0.688460   0.015070   0.006899  -0.000201   0.000323   0.000049
    11  C    0.008631   0.446199   0.015550  -0.000364   0.000574   0.000805
    12  C   -3.986769   3.899361   1.108557  -0.070339  -0.098402   0.099695
    13  C   16.378319  -5.529806  -1.015897  -0.014033   0.028899  -0.145849
    14  C   -5.529806  22.139880   0.458785   0.026582  -0.182851   0.324207
    15  C   -1.015897   0.458785  10.126317   0.482430  -0.284595  -0.124278
    16  N   -0.014033   0.026582   0.482430   7.155480   0.188726   0.199843
    17  C    0.028899  -0.182851  -0.284595   0.188726   5.143919  -0.077952
    18  C   -0.145849   0.324207  -0.124278   0.199843  -0.077952   5.163524
    19  C    0.799970  -7.697219  -1.223919  -0.399904   0.305432  -0.300770
    20  C   -3.655286  -2.652881  -1.651186  -0.054758   0.034440  -0.025999
    21  C   -0.597987   0.365887  -1.581968  -0.005077  -0.007411  -0.020585
    22  N    0.038794  -0.013303   0.100440  -0.000019   0.000723   0.000290
    23  H    0.023634   0.019877  -0.005855   0.000017  -0.000046  -0.000006
    24  H   -0.005244  -0.002055  -0.000920   0.000000   0.000003  -0.000003
    25  H    0.037744  -0.036854   0.007198  -0.000056  -0.000022   0.000050
    26  H    0.000093  -0.001101   0.000131   0.000000   0.000000   0.000001
    27  H   -0.000084  -0.000019  -0.000000  -0.000000  -0.000000  -0.000000
    28  H    0.000148   0.000039   0.000001  -0.000000  -0.000000   0.000000
    29  H   -0.000003   0.000001  -0.000000   0.000000   0.000000   0.000000
    30  H    0.000078   0.000416   0.000013  -0.000000   0.000000   0.000000
    31  H   -0.000094  -0.000076  -0.000002   0.000000   0.000000  -0.000000
    32  H   -0.000015  -0.000002  -0.000000  -0.000000  -0.000000   0.000000
    33  H    0.000119  -0.000252  -0.000009   0.000000  -0.000000   0.000000
    34  H    0.015494   0.007895  -0.000125   0.000000  -0.000000   0.000002
    35  H    0.305118   0.006206  -0.033765  -0.000355   0.000279   0.000252
    36  H    0.135529  -0.105025   0.090324  -0.030846   0.002750  -0.014857
    37  H   -0.006060  -0.031604  -0.049347  -0.048259   0.407839   0.007944
    38  H   -0.006089  -0.046210  -0.159778  -0.067015   0.429186  -0.002411
    39  H    0.005035   0.035857   0.068660  -0.054833   0.407123  -0.004417
    40  H    0.056973   0.110996  -0.140213  -0.066913   0.002653   0.423037
    41  H    0.008628   0.082080  -0.052453  -0.048481   0.005008   0.418360
    42  H   -0.020609  -0.069549   0.059915  -0.055864  -0.008340   0.410343
    43  H   -0.015867   0.086448   0.049513  -0.030891  -0.003320   0.001654
              19         20         21         22         23         24
     1  C   -0.065525  -2.883919   1.026360  -0.043347   0.599773   0.622976
     2  C    0.204167  -4.277880  -0.216107   0.165701  -0.227860  -0.207163
     3  C    2.929460   7.110225  -0.469857   0.005669  -0.011718  -0.071201
     4  C   -0.139939  -0.393068  -0.265756  -0.004006  -0.010841  -0.029086
     5  C   -0.069592   0.065839  -0.019095  -0.005242   0.000191  -0.005061
     6  C    0.003798   0.032022  -0.040308   0.000899   0.000191  -0.001280
     7  N   -0.000845  -0.004645   0.000518   0.000003   0.000003  -0.000002
     8  C   -0.000044   0.000067   0.000198   0.000003   0.000005   0.000030
     9  C    0.000087  -0.000852  -0.000497  -0.000004   0.000002  -0.000017
    10  C    0.050039   0.336286   0.055954  -0.000720   0.000940   0.023955
    11  C   -0.164220  -0.396148   0.055333   0.005238   0.003116   0.036257
    12  C  -10.405399  -2.762487  -3.180965   0.135852   0.047493  -0.046392
    13  C    0.799970  -3.655286  -0.597987   0.038794   0.023634  -0.005244
    14  C   -7.697219  -2.652881   0.365887  -0.013303   0.019877  -0.002055
    15  C   -1.223919  -1.651186  -1.581968   0.100440  -0.005855  -0.000920
    16  N   -0.399904  -0.054758  -0.005077  -0.000019   0.000017   0.000000
    17  C    0.305432   0.034440  -0.007411   0.000723  -0.000046   0.000003
    18  C   -0.300770  -0.025999  -0.020585   0.000290  -0.000006  -0.000003
    19  C   18.474846   2.770181   0.840199  -0.149227  -0.024270   0.007855
    20  C    2.770181  16.349340  -2.221475   0.455127  -0.044797  -0.000375
    21  C    0.840199  -2.221475  12.787338  -0.463860  -0.023984   0.029349
    22  N   -0.149227   0.455127  -0.463860   7.299646   0.002685  -0.001176
    23  H   -0.024270  -0.044797  -0.023984   0.002685   0.544851  -0.033164
    24  H    0.007855  -0.000375   0.029349  -0.001176  -0.033164   0.550560
    25  H    0.011278   0.010475  -0.005366  -0.000461  -0.000016   0.000009
    26  H    0.000093   0.000200  -0.000567   0.000005  -0.000000   0.000000
    27  H    0.000001   0.000027   0.000001  -0.000000  -0.000000   0.000000
    28  H   -0.000001  -0.000020  -0.000001   0.000000   0.000000  -0.000000
    29  H    0.000000  -0.000000   0.000000  -0.000000  -0.000000   0.000000
    30  H   -0.000016  -0.000117  -0.000002   0.000000   0.000000  -0.000000
    31  H    0.000008   0.000048   0.000004  -0.000000  -0.000000   0.000000
    32  H    0.000000   0.000002   0.000000  -0.000000  -0.000000  -0.000000
    33  H    0.000007  -0.000210   0.000017  -0.000000  -0.000000   0.000005
    34  H   -0.000944  -0.006865   0.000938   0.000022  -0.000029   0.001141
    35  H   -0.008364   0.027229   0.011169  -0.000049   0.000017  -0.000023
    36  H    0.128081   0.033650  -0.000535   0.000009   0.000000  -0.000000
    37  H    0.026773   0.036873  -0.003211   0.000055   0.000000  -0.000000
    38  H    0.173473   0.031577   0.004086  -0.000026  -0.000000   0.000000
    39  H   -0.087644  -0.014729  -0.000528   0.000000   0.000000  -0.000000
    40  H   -0.035637  -0.010606   0.000216  -0.000001  -0.000000   0.000000
    41  H   -0.056536  -0.007400  -0.000270   0.000001   0.000000  -0.000000
    42  H    0.034165   0.006933   0.000075  -0.000000   0.000000  -0.000000
    43  H    0.090431  -0.001966  -0.038903   0.000510   0.000000  -0.000000
              25         26         27         28         29         30
     1  C    0.004068   0.001824   0.000647  -0.000434  -0.000015  -0.000220
     2  C    0.069622   0.011307  -0.001081   0.001743  -0.000152  -0.000071
     3  C    0.010772   0.083664   0.005761  -0.002627  -0.001470   0.000426
     4  C    0.364871  -0.048604  -0.005814  -0.006111   0.005175   0.002170
     5  C   -0.111793   0.158818  -0.030856  -0.038993   0.034452   0.033750
     6  C    0.006278   0.036874  -0.127146  -0.048594   0.059848  -0.024187
     7  N   -0.000640  -0.029449  -0.069642  -0.048965  -0.056150  -0.050787
     8  C    0.000372   0.000537   0.426992   0.409271   0.409375   0.007282
     9  C    0.000426  -0.004896   0.003283   0.006023  -0.007158   0.407956
    10  C   -0.000580   0.082570   0.097856   0.054605  -0.071492  -0.022892
    11  C   -0.006205   0.001792   0.049367   0.023629  -0.018566  -0.005066
    12  C   -0.066999   0.005498  -0.000394   0.000297   0.000013   0.000967
    13  C    0.037744   0.000093  -0.000084   0.000148  -0.000003   0.000078
    14  C   -0.036854  -0.001101  -0.000019   0.000039   0.000001   0.000416
    15  C    0.007198   0.000131  -0.000000   0.000001  -0.000000   0.000013
    16  N   -0.000056   0.000000  -0.000000  -0.000000   0.000000  -0.000000
    17  C   -0.000022   0.000000  -0.000000  -0.000000   0.000000   0.000000
    18  C    0.000050   0.000001  -0.000000   0.000000   0.000000   0.000000
    19  C    0.011278   0.000093   0.000001  -0.000001   0.000000  -0.000016
    20  C    0.010475   0.000200   0.000027  -0.000020  -0.000000  -0.000117
    21  C   -0.005366  -0.000567   0.000001  -0.000001   0.000000  -0.000002
    22  N   -0.000461   0.000005  -0.000000   0.000000  -0.000000   0.000000
    23  H   -0.000016  -0.000000  -0.000000   0.000000  -0.000000   0.000000
    24  H    0.000009   0.000000   0.000000  -0.000000   0.000000  -0.000000
    25  H    0.593031  -0.006608   0.000000   0.000000  -0.000000  -0.000005
    26  H   -0.006608   0.602532  -0.000004  -0.000001  -0.000004  -0.001049
    27  H    0.000000  -0.000004   0.577728  -0.045114  -0.032448  -0.000374
    28  H    0.000000  -0.000001  -0.045114   0.571259  -0.022189   0.000007
    29  H   -0.000000  -0.000004  -0.032448  -0.022189   0.563514   0.000530
    30  H   -0.000005  -0.001049  -0.000374   0.000007   0.000530   0.571209
    31  H    0.000001  -0.000933   0.001756  -0.000376  -0.000246  -0.045004
    32  H   -0.000000   0.000265  -0.000277   0.000554   0.005250  -0.021825
    33  H    0.000017  -0.000165  -0.000900  -0.001134   0.000256  -0.000001
    34  H   -0.000186   0.000017  -0.000001   0.000001  -0.000000   0.000000
    35  H   -0.000360  -0.000010  -0.000000   0.000000   0.000000   0.000000
    36  H   -0.000011   0.000000   0.000000  -0.000000  -0.000000  -0.000000
    37  H   -0.000000   0.000000   0.000000   0.000000   0.000000   0.000000
    38  H    0.000000  -0.000000   0.000000  -0.000000   0.000000  -0.000000
    39  H   -0.000000  -0.000000   0.000000   0.000000   0.000000  -0.000000
    40  H    0.000000  -0.000000   0.000000   0.000000  -0.000000   0.000000
    41  H   -0.000000   0.000000  -0.000000   0.000000   0.000000   0.000000
    42  H   -0.000000  -0.000000   0.000000  -0.000000   0.000000  -0.000000
    43  H   -0.000001  -0.000000   0.000000  -0.000000  -0.000000  -0.000000
              31         32         33         34         35         36
     1  C    0.000326  -0.000003   0.002769   0.016334  -0.027243   0.002790
     2  C   -0.000842  -0.000076  -0.000019  -0.021828  -0.035508   0.002888
     3  C    0.003223  -0.001394   0.089926  -0.100398  -0.005335   0.006338
     4  C    0.051867  -0.013844   0.025215  -0.040245   0.044158  -0.000629
     5  C    0.140909  -0.072420   0.057335  -0.004242   0.024090  -0.002627
     6  C   -0.150546   0.058310   0.052273   0.022242  -0.001259   0.000081
     7  N   -0.068118  -0.055414  -0.029976  -0.000602   0.000013  -0.000000
     8  C    0.001974  -0.007408  -0.005712   0.000705  -0.000060   0.000001
     9  C    0.431159   0.408593  -0.000304   0.000368   0.000122  -0.000001
    10  C   -0.048423   0.031762   0.095058   0.045199  -0.006832   0.000418
    11  C   -0.011889   0.005792   0.016265   0.365369  -0.007667   0.000764
    12  C   -0.000834   0.000030  -0.004282  -0.000740   0.010631   0.051935
    13  C   -0.000094  -0.000015   0.000119   0.015494   0.305118   0.135529
    14  C   -0.000076  -0.000002  -0.000252   0.007895   0.006206  -0.105025
    15  C   -0.000002  -0.000000  -0.000009  -0.000125  -0.033765   0.090324
    16  N    0.000000  -0.000000   0.000000   0.000000  -0.000355  -0.030846
    17  C    0.000000  -0.000000  -0.000000  -0.000000   0.000279   0.002750
    18  C   -0.000000   0.000000   0.000000   0.000002   0.000252  -0.014857
    19  C    0.000008   0.000000   0.000007  -0.000944  -0.008364   0.128081
    20  C    0.000048   0.000002  -0.000210  -0.006865   0.027229   0.033650
    21  C    0.000004   0.000000   0.000017   0.000938   0.011169  -0.000535
    22  N   -0.000000  -0.000000  -0.000000   0.000022  -0.000049   0.000009
    23  H   -0.000000  -0.000000  -0.000000  -0.000029   0.000017   0.000000
    24  H    0.000000  -0.000000   0.000005   0.001141  -0.000023  -0.000000
    25  H    0.000001  -0.000000   0.000017  -0.000186  -0.000360  -0.000011
    26  H   -0.000933   0.000265  -0.000165   0.000017  -0.000010   0.000000
    27  H    0.001756  -0.000277  -0.000900  -0.000001  -0.000000   0.000000
    28  H   -0.000376   0.000554  -0.001134   0.000001   0.000000  -0.000000
    29  H   -0.000246   0.005250   0.000256  -0.000000   0.000000  -0.000000
    30  H   -0.045004  -0.021825  -0.000001   0.000000   0.000000  -0.000000
    31  H    0.578290  -0.032960  -0.000004   0.000000  -0.000000   0.000000
    32  H   -0.032960   0.563444  -0.000004  -0.000000  -0.000000  -0.000000
    33  H   -0.000004  -0.000004   0.602874  -0.006428  -0.000000  -0.000000
    34  H    0.000000  -0.000000  -0.006428   0.587085  -0.000030  -0.000000
    35  H   -0.000000  -0.000000  -0.000000  -0.000030   0.570176  -0.006267
    36  H    0.000000  -0.000000  -0.000000  -0.000000  -0.006267   0.593184
    37  H   -0.000000   0.000000   0.000000   0.000000   0.000000  -0.000004
    38  H    0.000000  -0.000000  -0.000000  -0.000000   0.000000  -0.000002
    39  H    0.000000   0.000000   0.000000  -0.000000  -0.000000  -0.000005
    40  H    0.000000  -0.000000  -0.000000  -0.000000  -0.000001  -0.000835
    41  H   -0.000000   0.000000   0.000000   0.000000   0.000001  -0.001418
    42  H    0.000000  -0.000000   0.000000   0.000000  -0.000000   0.000247
    43  H    0.000000   0.000000  -0.000000  -0.000000   0.000017  -0.000160
              37         38         39         40         41         42
     1  C    0.000469  -0.000354   0.000009  -0.000246   0.000324   0.000004
     2  C   -0.000594   0.000393  -0.000022  -0.001217   0.000483  -0.000102
     3  C   -0.000427   0.000622  -0.000014   0.001324  -0.001025  -0.000009
     4  C   -0.000018  -0.000012   0.000001  -0.000198   0.000071  -0.000016
     5  C   -0.000015   0.000036   0.000000   0.000323  -0.000039  -0.000005
     6  C   -0.000000   0.000002  -0.000000   0.000014  -0.000006  -0.000000
     7  N   -0.000000  -0.000000   0.000000   0.000000   0.000000  -0.000000
     8  C   -0.000000   0.000000  -0.000000   0.000000  -0.000000  -0.000000
     9  C   -0.000000   0.000000   0.000000   0.000000  -0.000000  -0.000000
    10  C   -0.000000   0.000000   0.000000   0.000005  -0.000003  -0.000000
    11  C    0.000006   0.000003  -0.000000  -0.000032  -0.000019   0.000002
    12  C    0.010480  -0.009190  -0.000402   0.008269   0.000962  -0.002297
    13  C   -0.006060  -0.006089   0.005035   0.056973   0.008628  -0.020609
    14  C   -0.031604  -0.046210   0.035857   0.110996   0.082080  -0.069549
    15  C   -0.049347  -0.159778   0.068660  -0.140213  -0.052453   0.059915
    16  N   -0.048259  -0.067015  -0.054833  -0.066913  -0.048481  -0.055864
    17  C    0.407839   0.429186   0.407123   0.002653   0.005008  -0.008340
    18  C    0.007944  -0.002411  -0.004417   0.423037   0.418360   0.410343
    19  C    0.026773   0.173473  -0.087644  -0.035637  -0.056536   0.034165
    20  C    0.036873   0.031577  -0.014729  -0.010606  -0.007400   0.006933
    21  C   -0.003211   0.004086  -0.000528   0.000216  -0.000270   0.000075
    22  N    0.000055  -0.000026   0.000000  -0.000001   0.000001  -0.000000
    23  H    0.000000  -0.000000   0.000000  -0.000000   0.000000   0.000000
    24  H   -0.000000   0.000000  -0.000000   0.000000  -0.000000  -0.000000
    25  H   -0.000000   0.000000  -0.000000   0.000000  -0.000000  -0.000000
    26  H    0.000000  -0.000000  -0.000000  -0.000000   0.000000  -0.000000
    27  H    0.000000   0.000000   0.000000   0.000000  -0.000000   0.000000
    28  H    0.000000  -0.000000   0.000000   0.000000   0.000000  -0.000000
    29  H    0.000000   0.000000   0.000000  -0.000000   0.000000   0.000000
    30  H    0.000000  -0.000000  -0.000000   0.000000   0.000000  -0.000000
    31  H   -0.000000   0.000000   0.000000   0.000000  -0.000000   0.000000
    32  H    0.000000  -0.000000   0.000000  -0.000000   0.000000  -0.000000
    33  H    0.000000  -0.000000   0.000000  -0.000000   0.000000   0.000000
    34  H    0.000000  -0.000000  -0.000000  -0.000000   0.000000   0.000000
    35  H    0.000000   0.000000  -0.000000  -0.000001   0.000001  -0.000000
    36  H   -0.000004  -0.000002  -0.000005  -0.000835  -0.001418   0.000247
    37  H    0.563139  -0.044358  -0.021526  -0.000357   0.000022   0.000510
    38  H   -0.044358   0.573918  -0.031750   0.001525  -0.000365  -0.000188
    39  H   -0.021526  -0.031750   0.557961  -0.000193   0.000534   0.005178
    40  H   -0.000357   0.001525  -0.000193   0.576016  -0.044982  -0.031507
    41  H    0.000022  -0.000365   0.000534  -0.044982   0.568796  -0.021961
    42  H    0.000510  -0.000188   0.005178  -0.031507  -0.021961   0.557430
    43  H   -0.001002  -0.000600   0.000255  -0.000002  -0.000005  -0.000003
              43
     1  C   -0.001916
     2  C    0.010684
     3  C    0.001835
     4  C   -0.000962
     5  C   -0.000114
     6  C   -0.000021
     7  N    0.000000
     8  C   -0.000000
     9  C    0.000000
    10  C    0.000007
    11  C    0.000201
    12  C    0.149090
    13  C   -0.015867
    14  C    0.086448
    15  C    0.049513
    16  N   -0.030891
    17  C   -0.003320
    18  C    0.001654
    19  C    0.090431
    20  C   -0.001966
    21  C   -0.038903
    22  N    0.000510
    23  H    0.000000
    24  H   -0.000000
    25  H   -0.000001
    26  H   -0.000000
    27  H    0.000000
    28  H   -0.000000
    29  H   -0.000000
    30  H   -0.000000
    31  H    0.000000
    32  H    0.000000
    33  H   -0.000000
    34  H   -0.000000
    35  H    0.000017
    36  H   -0.000160
    37  H   -0.001002
    38  H   -0.000600
    39  H    0.000255
    40  H   -0.000002
    41  H   -0.000005
    42  H   -0.000003
    43  H    0.572022
 Mulliken charges:
               1
     1  C   -0.185665
     2  C    0.076338
     3  C    0.340406
     4  C   -0.410558
     5  C   -0.244940
     6  C    0.188063
     7  N   -0.102708
     8  C   -0.299603
     9  C   -0.303281
    10  C   -0.199053
    11  C   -0.505531
    12  C    0.706289
    13  C   -0.564127
    14  C    0.084389
    15  C    0.069474
    16  N   -0.106878
    17  C   -0.303445
    18  C   -0.285415
    19  C   -0.020331
    20  C   -0.232874
    21  C   -0.013327
    22  N   -0.530230
    23  H    0.139791
    24  H    0.131022
    25  H    0.119952
    26  H    0.107167
    27  H    0.150736
    28  H    0.146984
    29  H    0.131479
    30  H    0.146813
    31  H    0.150782
    32  H    0.131641
    33  H    0.107265
    34  H    0.119850
    35  H    0.133649
    36  H    0.114232
    37  H    0.152669
    38  H    0.153526
    39  H    0.135451
    40  H    0.151587
    41  H    0.149694
    42  H    0.135650
    43  H    0.133064
 Sum of Mulliken charges =  -0.00000
 Mulliken charges with hydrogens summed into heavy atoms:
               1
     1  C    0.085148
     2  C    0.076338
     3  C    0.340406
     4  C   -0.290606
     5  C   -0.137773
     6  C    0.188063
     7  N   -0.102708
     8  C    0.129597
     9  C    0.125955
    10  C   -0.091788
    11  C   -0.385681
    12  C    0.706289
    13  C   -0.430477
    14  C    0.198621
    15  C    0.069474
    16  N   -0.106878
    17  C    0.138201
    18  C    0.151517
    19  C    0.112733
    20  C   -0.232874
    21  C   -0.013327
    22  N   -0.530230
 Electronic spatial extent (au):  <R**2>=           9900.8928
 Charge=              0.0000 electrons
 Dipole moment (field-independent basis, Debye):
    X=             -0.6808    Y=             -6.4399    Z=             -1.3383  Tot=              6.6126
 Quadrupole moment (field-independent basis, Debye-Ang):
   XX=            -89.6377   YY=           -142.0510   ZZ=           -136.2523
   XY=            -13.0273   XZ=             -2.7916   YZ=            -11.3595
 Traceless Quadrupole moment (field-independent basis, Debye-Ang):
   XX=             33.0093   YY=            -19.4040   ZZ=            -13.6053
   XY=            -13.0273   XZ=             -2.7916   YZ=            -11.3595
 Octapole moment (field-independent basis, Debye-Ang**2):
  XXX=            -22.9890  YYY=            -95.4171  ZZZ=             -3.1913  XYY=            -18.1171
  XXY=           -103.9071  XXZ=             16.9583  XZZ=            -20.1591  YZZ=            -28.6833
  YYZ=            -41.1591  XYZ=              3.1898
 Hexadecapole moment (field-independent basis, Debye-Ang**3):
 XXXX=          -8795.2850 YYYY=          -2472.6371 ZZZZ=           -841.2395 XXXY=           -107.9835
 XXXZ=             60.1548 YYYX=           -233.9424 YYYZ=           -156.7634 ZZZX=            -21.6263
 ZZZY=            -38.1143 XXYY=          -2068.5842 XXZZ=          -1910.3276 YYZZ=           -566.8338
 XXYZ=           -101.8433 YYXZ=           -121.6013 ZZXY=            -41.5002
 N-N= 1.628217875945D+03 E-N=-5.342463458344D+03  KE= 8.921534453488D+02
 Unable to Open any file for archive entry.
 1\1\GINC-N1\SP\RB3LYP TD-FC\6-31+G(d,p)\C19H21N3\HPCMGAC201\29-Jul-202
 5\0\\# td=(50-50,nstates=3) b3lyp/6-31+g(d,p) geom=connectivity\\Title
  Card Required\\0,1\C,0,-0.085216,2.829996,-1.003585\C,0,-0.126136,1.5
 37174,-0.623681\C,0,-1.415162,0.828157,-0.403722\C,0,-1.571972,-0.1135
 24,0.627669\C,0,-2.78931,-0.739397,0.878075\C,0,-3.928509,-0.469273,0.
 08306\N,0,-5.139111,-1.119449,0.299753\C,0,-6.336687,-0.62558,-0.36322
 9\C,0,-5.318467,-1.895417,1.517446\C,0,-3.772263,0.475817,-0.958904\C,
 0,-2.5482,1.095343,-1.190643\C,0,1.133133,0.762059,-0.434099\C,0,1.280
 978,-0.506013,-1.019305\C,0,2.450982,-1.248307,-0.923616\C,0,3.573533,
 -0.758537,-0.211563\N,0,4.759954,-1.473309,-0.139369\C,0,5.804166,-1.0
 31858,0.773584\C,0,4.787483,-2.85705,-0.589709\C,0,3.427867,0.492991,0
 .419977\C,0,2.239658,1.234869,0.307842\C,0,2.198248,2.478734,1.030151\
 N,0,2.23675,3.463044,1.650826\H,0,0.850908,3.332744,-1.220295\H,0,-0.9
 90606,3.421786,-1.091215\H,0,-0.727359,-0.348452,1.268957\H,0,-2.84745
 7,-1.438939,1.702631\H,0,-6.582746,0.411623,-0.083385\H,0,-6.228162,-0
 .668228,-1.45223\H,0,-7.180412,-1.26323,-0.09451\H,0,-4.580182,-2.7019
 02,1.579594\H,0,-5.236099,-1.283789,2.430683\H,0,-6.306634,-2.358072,1
 .501904\H,0,-4.604648,0.723331,-1.605947\H,0,-2.468023,1.795622,-2.017
 149\H,0,0.447068,-0.918135,-1.579011\H,0,2.488547,-2.214658,-1.410711\
 H,0,6.124639,-0.01159,0.537127\H,0,5.486773,-1.057444,1.828215\H,0,6.6
 72839,-1.681946,0.660804\H,0,4.109748,-3.506363,-0.012818\H,0,4.515012
 ,-2.931787,-1.647997\H,0,5.802326,-3.243424,-0.486132\H,0,4.226563,0.9
 09739,1.018526\\Version=ES64L-G16RevC.02\State=1-A\HF=-900.9383575\RMS
 D=3.055e-09\PG=C01 [X(C19H21N3)]\\@
 The archive entry for this job was punched.


 THE WORLD IS NOT A HAMBURGER - YOU CAN'T HAVE IT YOUR WAY.
 Job cpu time:       0 days  1 hours 25 minutes 11.6 seconds.
 Elapsed time:       0 days  0 hours 10 minutes 49.2 seconds.
 File lengths (MBytes):  RWF=   1428 Int=      0 D2E=      0 Chk=     70 Scr=      2
 Normal termination of Gaussian 16 at Tue Jul 29 07:08:43 2025.
