 Entering Gaussian System, Link 0=g16
 Input=M2876E.gjf
 Output=M2876E.log
 Initial command:
 /hpc/softwares/Gaussian/g16/l1.exe "/hpc/home/hpcmgac201/pbs.12320.admin1.x8z/Gau-890182.inp" -scrdir="/hpc/home/hpcmgac201/pbs.12320.admin1.x8z/"
 Default linda workers: n2
 Default is to use   8 SMP processors on each worker.
 Entering Link 1 = /hpc/softwares/Gaussian/g16/l1.exe PID=    890183.
  
 Copyright (c) 1988-2021, Gaussian, Inc.  All Rights Reserved.
  
 This is part of the Gaussian(R) 16 program.  It is based on
 the Gaussian(R) 09 system (copyright 2009, Gaussian, Inc.),
 the Gaussian(R) 03 system (copyright 2003, Gaussian, Inc.),
 the Gaussian(R) 98 system (copyright 1998, Gaussian, Inc.),
 the Gaussian(R) 94 system (copyright 1995, Gaussian, Inc.),
 the Gaussian 92(TM) system (copyright 1992, Gaussian, Inc.),
 the Gaussian 90(TM) system (copyright 1990, Gaussian, Inc.),
 the Gaussian 88(TM) system (copyright 1988, Gaussian, Inc.),
 the Gaussian 86(TM) system (copyright 1986, Carnegie Mellon
 University), and the Gaussian 82(TM) system (copyright 1983,
 Carnegie Mellon University). Gaussian is a federally registered
 trademark of Gaussian, Inc.
  
 This software contains proprietary and confidential information,
 including trade secrets, belonging to Gaussian, Inc.
  
 This software is provided under written license and may be
 used, copied, transmitted, or stored only in accord with that
 written license.
  
 The following legend is applicable only to US Government
 contracts under FAR:
  
                    RESTRICTED RIGHTS LEGEND
  
 Use, reproduction and disclosure by the US Government is
 subject to restrictions as set forth in subparagraphs (a)
 and (c) of the Commercial Computer Software - Restricted
 Rights clause in FAR 52.227-19.
  
 Gaussian, Inc.
 340 Quinnipiac St., Bldg. 40, Wallingford CT 06492
  
  
 ---------------------------------------------------------------
 Warning -- This program may not be used in any manner that
 competes with the business of Gaussian, Inc. or will provide
 assistance to any competitor of Gaussian, Inc.  The licensee
 of this program is prohibited from giving any competitor of
 Gaussian, Inc. access to this program.  By using this program,
 the user acknowledges that Gaussian, Inc. is engaged in the
 business of creating and licensing software in the field of
 computational chemistry and represents and warrants to the
 licensee that it is not a competitor of Gaussian, Inc. and that
 it will not use this program in any manner prohibited above.
 ---------------------------------------------------------------
  

 Cite this work as:
 Gaussian 16, Revision C.02,
 M. J. Frisch, G. W. Trucks, H. B. Schlegel, G. E. Scuseria, 
 M. A. Robb, J. R. Cheeseman, G. Scalmani, V. Barone, 
 G. A. Petersson, H. Nakatsuji, X. Li, M. Caricato, A. V. Marenich, 
 J. Bloino, B. G. Janesko, R. Gomperts, B. Mennucci, H. P. Hratchian, 
 J. V. Ortiz, A. F. Izmaylov, J. L. Sonnenberg, D. Williams-Young, 
 F. Ding, F. Lipparini, F. Egidi, J. Goings, B. Peng, A. Petrone, 
 T. Henderson, D. Ranasinghe, V. G. Zakrzewski, J. Gao, N. Rega, 
 G. Zheng, W. Liang, M. Hada, M. Ehara, K. Toyota, R. Fukuda, 
 J. Hasegawa, M. Ishida, T. Nakajima, Y. Honda, O. Kitao, H. Nakai, 
 T. Vreven, K. Throssell, J. A. Montgomery, Jr., J. E. Peralta, 
 F. Ogliaro, M. J. Bearpark, J. J. Heyd, E. N. Brothers, K. N. Kudin, 
 V. N. Staroverov, T. A. Keith, R. Kobayashi, J. Normand, 
 K. Raghavachari, A. P. Rendell, J. C. Burant, S. S. Iyengar, 
 J. Tomasi, M. Cossi, J. M. Millam, M. Klene, C. Adamo, R. Cammi, 
 J. W. Ochterski, R. L. Martin, K. Morokuma, O. Farkas, 
 J. B. Foresman, and D. J. Fox, Gaussian, Inc., Wallingford CT, 2019.
 
 ******************************************
 Gaussian 16:  ES64L-G16RevC.02  7-Dec-2021
                29-Jul-2025 
 ******************************************
 SetLPE:    new flags="-opt 'Tsnet.Node.lindarsharg: ssh'  -nodelist 'n2.head.cm.mguif.local' -env GAUSS_MDEF=2147483648 -env GAUSS_EXEDIR="/hpc/softwares/Gaussian/g16/bsd:/hpc/softwares/Gaussian/g16""
 Will use up to    1 processors via Linda.
 ----------------------------------------------------------
 # td=(50-50,nstates=3) b3lyp/6-31+g(d,p) geom=connectivity
 ----------------------------------------------------------
 1/38=1,57=2,172=1/1;
 2/12=2,17=6,18=5,40=1/2;
 3/5=1,6=6,7=111,11=9,25=1,30=1,74=-5/1,2,3,8;
 4//1;
 5/5=2,38=5/2;
 8/6=1,10=2,108=3/1;
 9/41=3,42=1,48=2,70=2/14;
 6/7=2,8=2,9=2,10=2/1;
 99/5=1,9=1/99;
 -------------------
 Title Card Required
 -------------------
 Symbolic Z-matrix:
 Charge =  0 Multiplicity = 1
 C                     0.77675   3.25128   1.74638 
 O                     0.47661   1.89552   1.3845 
 C                     1.04691   1.47426   0.20541 
 O                     2.48585   1.1967    0.39127 
 C                     2.72371  -0.06334  -0.00993 
 C                     4.10902  -0.51712   0.0045 
 C                     4.45095  -1.81075  -0.43696 
 C                     5.77661  -2.2335   -0.41612 
 C                     6.78174  -1.37443   0.04349 
 C                     6.45222  -0.08866   0.48209 
 C                     5.12665   0.34081   0.46396 
 C                     1.57346  -0.72533  -0.38589 
 C                     0.46288   0.14215  -0.2467 
 C                    -0.89731  -0.2096   -0.33236 
 C                    -1.2083   -1.61859  -0.28155 
 C                    -2.44143  -2.09843   0.04312 
 O                    -2.62521  -3.44547   0.21675 
 C                    -3.50807  -4.08869  -0.71567 
 C                    -3.494    -1.15757   0.35133 
 O                    -4.65289  -1.70654   0.77525 
 C                    -5.72374  -0.83883   1.15931 
 C                    -3.28125   0.18965   0.17353 
 C                    -2.03472   0.70709  -0.29907 
 C                    -2.01811   2.0399   -0.78667 
 C                    -1.01936   2.56341  -1.63502 
 N                    -0.19185   3.00369  -2.33607 
 C                    -3.12779   2.90208  -0.55796 
 N                    -4.04652   3.59352  -0.35255 
 H                     0.16369   3.47151   2.62075 
 H                     1.83601   3.3617    2.00154 
 H                     0.51585   3.93594   0.93084 
 H                     1.03669   2.2515   -0.56857 
 H                     3.68188  -2.48503  -0.79892 
 H                     6.02843  -3.2321   -0.75968 
 H                     7.81547  -1.7066    0.05781 
 H                     7.22928   0.58087   0.83804 
 H                     4.86742   1.33754   0.80186 
 H                     1.54674  -1.74757  -0.72814 
 H                    -0.41913  -2.35107  -0.39287 
 H                    -3.51449  -5.14447  -0.44005 
 H                    -4.52162  -3.68387  -0.6469 
 H                    -3.12794  -3.97834  -1.73893 
 H                    -6.51688  -1.49509   1.51695 
 H                    -5.40826  -0.16394   1.96209 
 H                    -6.08218  -0.25511   0.3043 
 H                    -4.09821   0.88716   0.30268 
 
                          Input orientation:                          
 ---------------------------------------------------------------------
 Center     Atomic      Atomic             Coordinates (Angstroms)
 Number     Number       Type             X           Y           Z
 ---------------------------------------------------------------------
      1          6           0        0.776751    3.251283    1.746381
      2          8           0        0.476606    1.895522    1.384503
      3          6           0        1.046910    1.474260    0.205411
      4          8           0        2.485850    1.196702    0.391272
      5          6           0        2.723712   -0.063342   -0.009925
      6          6           0        4.109016   -0.517115    0.004501
      7          6           0        4.450954   -1.810746   -0.436955
      8          6           0        5.776614   -2.233500   -0.416116
      9          6           0        6.781741   -1.374425    0.043493
     10          6           0        6.452215   -0.088656    0.482094
     11          6           0        5.126650    0.340807    0.463961
     12          6           0        1.573463   -0.725325   -0.385890
     13          6           0        0.462883    0.142150   -0.246704
     14          6           0       -0.897313   -0.209604   -0.332356
     15          6           0       -1.208299   -1.618594   -0.281547
     16          6           0       -2.441428   -2.098434    0.043122
     17          8           0       -2.625208   -3.445465    0.216748
     18          6           0       -3.508066   -4.088694   -0.715674
     19          6           0       -3.494004   -1.157566    0.351325
     20          8           0       -4.652891   -1.706542    0.775245
     21          6           0       -5.723739   -0.838826    1.159310
     22          6           0       -3.281254    0.189651    0.173525
     23          6           0       -2.034720    0.707088   -0.299067
     24          6           0       -2.018109    2.039898   -0.786669
     25          6           0       -1.019359    2.563407   -1.635020
     26          7           0       -0.191852    3.003688   -2.336071
     27          6           0       -3.127786    2.902081   -0.557960
     28          7           0       -4.046516    3.593517   -0.352554
     29          1           0        0.163688    3.471511    2.620752
     30          1           0        1.836008    3.361699    2.001541
     31          1           0        0.515845    3.935942    0.930840
     32          1           0        1.036695    2.251504   -0.568570
     33          1           0        3.681884   -2.485028   -0.798924
     34          1           0        6.028426   -3.232103   -0.759678
     35          1           0        7.815472   -1.706597    0.057813
     36          1           0        7.229275    0.580869    0.838035
     37          1           0        4.867419    1.337536    0.801859
     38          1           0        1.546736   -1.747574   -0.728138
     39          1           0       -0.419126   -2.351065   -0.392868
     40          1           0       -3.514490   -5.144469   -0.440051
     41          1           0       -4.521624   -3.683870   -0.646898
     42          1           0       -3.127942   -3.978338   -1.738928
     43          1           0       -6.516875   -1.495088    1.516951
     44          1           0       -5.408263   -0.163937    1.962086
     45          1           0       -6.082185   -0.255114    0.304296
     46          1           0       -4.098211    0.887160    0.302677
 ---------------------------------------------------------------------
                    Distance matrix (angstroms):
                    1          2          3          4          5
     1  C    0.000000
     2  O    1.434967   0.000000
     3  C    2.367569   1.375851   0.000000
     4  O    2.996438   2.347748   1.477204   0.000000
     5  C    4.226347   3.291058   2.285225   1.343595   0.000000
     6  C    5.323435   4.573798   3.658201   2.391951   1.457802
     7  C    6.625018   5.731455   4.774035   3.686779   2.493820
     8  C    7.730321   6.955655   6.041844   4.821544   3.767597
     9  C    7.768971   7.228111   6.405428   5.018598   4.264902
    10  C    6.705558   6.360755   5.633523   4.170425   3.760912
    11  C    5.388608   4.988732   4.242151   2.776988   2.482341
    12  C    4.582002   3.347570   2.337749   2.265087   1.379364
    13  C    3.706428   2.394857   1.523159   2.368858   2.282463
    14  C    4.370512   3.044144   2.627659   3.734585   3.638293
    15  C    5.636366   4.238353   3.858606   4.693113   4.237133
    16  C    6.471263   5.125028   4.995897   5.937777   5.551854
    17  O    7.665477   6.285781   6.139078   6.906742   6.332541
    18  C    8.848539   7.489940   7.248632   8.067699   7.452288
    19  C    6.294718   5.114152   5.250495   6.426728   6.323592
    20  O    7.416478   6.297444   6.552095   7.716080   7.598083
    21  C    7.702598   6.780240   7.218170   8.492974   8.563172
    22  C    5.321172   4.300927   4.514891   5.858417   6.013092
    23  C    4.308266   3.248621   3.215508   4.599113   4.829062
    24  C    3.961696   3.310353   3.270858   4.731191   5.245171
    25  C    3.890123   3.435331   2.973701   4.273199   4.852971
    26  N    4.203083   3.939231   3.214469   4.227728   4.828886
    27  C    4.547234   4.216392   4.477666   5.943254   6.582864
    28  N    5.271296   5.134120   5.544868   6.997843   7.702337
    29  H    1.090354   2.027306   3.256219   3.941798   5.096015
    30  H    1.095136   2.092459   2.722349   2.775333   4.070002
    31  H    1.096329   2.090613   2.620717   3.416941   4.664117
    32  H    2.534981   2.062745   1.096932   2.033213   2.918325
    33  H    6.915464   5.850673   4.860837   4.049963   2.721245
    34  H    8.711757   7.855747   6.920748   5.786955   4.639430
    35  H    8.773564   8.282169   7.480178   6.078257   5.350785
    36  H    7.042107   6.901122   6.278535   4.804053   4.629702
    37  H    4.613904   4.464310   3.869203   2.420803   2.686435
    38  H    5.630692   4.345179   3.391394   3.286910   2.176635
    39  H    6.114966   4.689870   4.140086   4.651926   3.906117
    40  H    9.679044   8.295741   8.064153   8.769585   8.057172
    41  H    9.049691   7.761347   7.638148   8.602469   8.124583
    42  H    8.925325   7.566427   7.137273   7.926755   7.249724
    43  H    8.705036   7.773195   8.230918   9.463717   9.474687
    44  H    7.068568   6.261522   6.887587   8.163076   8.368271
    45  H    7.837055   6.986403   7.336519   8.690602   8.813588
    46  H    5.607015   4.807920   5.179422   6.591929   6.894912
                    6          7          8          9         10
     6  C    0.000000
     7  C    1.409002   0.000000
     8  C    2.429769   1.391592   0.000000
     9  C    2.807127   2.419457   1.399832   0.000000
    10  C    2.429455   2.795584   2.421482   1.397913   0.000000
    11  C    1.408088   2.428455   2.797149   2.420360   1.393517
    12  C    2.573866   3.075825   4.465645   5.266105   4.996095
    13  C    3.713761   4.444627   5.823071   6.504781   6.037923
    14  C    5.027063   5.583776   6.974559   7.775985   7.395507
    15  C    5.437731   5.664646   7.013218   8.000376   7.849034
    16  C    6.738722   6.915068   8.231972   9.251542   9.128460
    17  O    7.346431   7.291893   8.512343   9.633790   9.681848
    18  C    8.443623   8.283280   9.472949  10.668820  10.800100
    19  C    7.637825   8.010642   9.364345  10.282642  10.004346
    20  O    8.875798   9.184785  10.510547  11.462834  11.226169
    21  C    9.905562  10.344905  11.691245  12.566580  12.217824
    22  C    7.425913   8.010076   9.394909  10.184651   9.742335
    23  C    6.271867   6.958625   8.347317   9.065320   8.559877
    24  C    6.686249   7.536480   8.897019   9.475449   8.825355
    25  C    6.203054   7.105836   8.407217   8.898376   8.206097
    26  N    6.030903   6.952774   8.169269   8.570951   7.851641
    27  C    8.023626   8.925395  10.280207  10.809670  10.089729
    28  N    9.139884  10.070759  11.421561  11.920086  11.156988
    29  H    6.190276   7.458717   8.560062   8.597906   7.536194
    30  H    4.919343   6.287956   7.258078   7.122155   5.960120
    31  H    5.796438   7.097913   8.219002   8.261285   7.186046
    32  H    4.175263   5.308141   6.527276   6.821110   5.992337
    33  H    2.168090   1.084964   2.144225   3.398856   3.880508
    34  H    3.411637   2.147749   1.085657   2.159522   3.406296
    35  H    3.893010   3.402297   2.158513   1.085884   2.157827
    36  H    3.411212   3.881300   3.406434   2.157489   1.085716
    37  H    2.156545   3.408780   3.881030   3.405067   2.155888
    38  H    2.935314   2.919462   4.269116   5.304708   5.317931
    39  H    4.901566   4.900160   6.196899   7.279885   7.286932
    40  H    8.929047   8.634930   9.736474  10.975401  11.213688
    41  H    9.216323   9.168415  10.402429  11.557519  11.602816
    42  H    8.209334   7.989572   9.169810  10.399962  10.575537
    43  H   10.777453  11.144984  12.466430  13.380539  13.086110
    44  H    9.722935  10.279666  11.620689  12.399293  11.952698
    45  H   10.198975  10.673165  12.044257  12.915164  12.536766
    46  H    8.331835   8.995220  10.381105  11.115543  10.596976
                   11         12         13         14         15
    11  C    0.000000
    12  C    3.805788   0.000000
    13  C    4.721783   1.416077   0.000000
    14  C    6.101246   2.524593   1.407551   0.000000
    15  C    6.672826   2.923528   2.427814   1.443796   0.000000
    16  C    7.962588   4.264836   3.679570   2.468391   1.362448
    17  O    8.630659   5.038965   4.756267   3.709169   2.365034
    18  C    9.776008   6.102700   5.821375   4.691514   3.402762
    19  C    8.750628   5.139021   4.207595   2.847605   2.416096
    20  O    9.996397   6.409252   5.534725   4.191893   3.604131
    21  C   10.936452   7.459871   6.419773   5.090715   4.803468
    22  C    8.414277   4.971761   3.767945   2.469513   2.788186
    23  C    7.211213   3.883083   2.561234   1.461207   2.468213
    24  C    7.449736   4.550436   3.169910   2.553986   3.780940
    25  C    6.864335   4.370219   3.160213   3.066173   4.399627
    26  N    6.574008   4.563451   3.603128   3.851986   5.159431
    27  C    8.702882   5.940490   4.539494   3.835165   4.919079
    28  N    9.766975   7.087854   5.679597   4.937774   5.935202
    29  H    6.251724   5.351709   4.404142   4.837063   6.017878
    30  H    4.724221   4.740519   4.159997   5.066786   6.267664
    31  H    5.865364   4.957796   3.972691   4.558315   5.940995
    32  H    4.630833   3.030347   2.209577   3.138987   4.483307
    33  H    3.415783   2.777155   4.191537   5.134616   4.993223
    34  H    3.882805   5.125461   6.528705   7.568617   7.429819
    35  H    3.403907   6.334228   7.587566   8.849059   9.030579
    36  H    2.149091   5.932314   6.866818   8.248400   8.791118
    37  H    1.083902   4.064024   4.682774   6.075543   6.843013
    38  H    4.312565   1.078351   2.231047   2.914682   2.793975
    39  H    6.223822   2.571671   2.648665   2.195035   1.082451
    40  H   10.274959   6.739364   6.618551   5.586959   4.216092
    41  H   10.512907   6.780206   6.296340   5.030417   3.921348
    42  H    9.573193   5.875033   5.665614   4.599729   3.373037
    43  H   11.834313   8.346670   7.382957   6.054080   5.606320
    44  H   10.652865   7.387330   6.280350   5.061148   4.978917
    45  H   11.225800   7.701065   6.580223   5.224011   5.094807
    46  H    9.242433   5.936507   4.654078   3.442660   3.869330
                   16         17         18         19         20
    16  C    0.000000
    17  O    1.370552   0.000000
    18  C    2.382147   1.436173   0.000000
    19  C    1.445039   2.451000   3.119326   0.000000
    20  O    2.362235   2.728969   3.034487   1.350593   0.000000
    21  C    3.688638   4.157389   4.357340   2.392938   1.430787
    22  C    2.440829   3.694094   4.375655   1.375452   2.416403
    23  C    2.855426   4.225924   5.034266   2.455495   3.719486
    24  C    4.241880   5.609333   6.307508   3.700956   4.839159
    25  C    5.154726   6.489556   7.161655   4.890304   6.102819
    26  N    6.062409   7.350488   7.995301   5.953347   7.194958
    27  C    5.083064   6.414366   7.002887   4.176320   5.034162
    28  N    5.927156   7.203575   7.709614   4.834615   5.452545
    29  H    6.667465   7.835926   9.042689   6.321184   7.308732
    30  H    7.207282   8.332192   9.562988   7.180250   8.324463
    31  H    6.778436   8.053652   9.126755   6.508345   7.653605
    32  H    5.602987   6.817750   7.802218   5.744145   7.059983
    33  H    6.193016   6.460142   7.367093   7.387733   8.517777
    34  H    8.583013   8.711160   9.574986   9.808909  10.898342
    35  H   10.264392  10.585685  11.597206  11.326598  12.488987
    36  H   10.066432  10.663405  11.811406  10.874178  12.100498
    37  H    8.111770   8.908362  10.094336   8.737386   9.995170
    38  H    4.077180   4.602256   5.570639   5.188681   6.379437
    39  H    2.084134   2.536955   3.558807   3.381292   4.438994
    40  H    3.265463   2.027023   1.091178   4.064738   3.819979
    41  H    2.704986   2.097407   1.093578   2.904249   2.439169
    42  H    2.679747   2.088388   1.097142   3.529860   3.715857
    43  H    4.375553   4.543079   4.556790   3.257354   2.017245
    44  H    4.028252   4.643277   5.117115   2.691884   2.087776
    45  H    4.089151   4.704965   4.728928   2.741407   2.090770
    46  H    3.424335   4.576982   5.113163   2.132683   2.694120
                   21         22         23         24         25
    21  C    0.000000
    22  C    2.827591   0.000000
    23  C    4.257414   1.430011   0.000000
    24  C    5.079919   2.437401   1.419301   0.000000
    25  C    6.443187   3.744559   2.502329   1.411121   0.000000
    26  N    7.588437   4.874554   3.580491   2.581618   1.170507
    27  C    4.866454   2.813521   2.465728   1.423745   2.391699
    28  N    4.974382   3.528270   3.518758   2.591645   3.445218
    29  H    7.441547   5.350435   4.582617   4.291884   4.509529
    30  H    8.689277   6.292051   5.227073   4.937154   4.692011
    31  H    7.860217   5.387595   4.294596   3.600798   3.290037
    32  H    7.631460   4.842172   3.448397   3.069881   2.337083
    33  H    9.747328   7.522291   6.566508   7.277707   6.948916
    34  H   12.145932   9.962400   8.985750   9.619847   9.166539
    35  H   13.611633  11.258174  10.147883  10.556926   9.957553
    36  H   13.034543  10.538778   9.334374   9.501712   8.836652
    37  H   10.818362   8.253079   7.017765   7.101213   6.488089
    38  H    7.566247   5.279709   4.363060   5.201585   5.098219
    39  H    5.730187   3.868826   3.459948   4.689604   5.104435
    40  H    5.096793   5.374357   6.037410   7.346729   8.189321
    41  H    3.577952   4.149190   5.058279   6.248891   7.229849
    42  H    4.999448   4.588367   5.022106   6.193359   6.873962
    43  H    1.089794   3.887465   5.313870   6.167794   7.525223
    44  H    1.095194   2.801454   4.153588   4.889344   6.296035
    45  H    1.095560   2.839037   4.203790   4.793120   6.110419
    46  H    2.520950   1.081951   2.156969   2.615780   4.005472
                   26         27         28         29         30
    26  N    0.000000
    27  C    3.433906   0.000000
    28  N    4.375005   1.168050   0.000000
    29  H    4.991529   4.611102   5.155701   0.000000
    30  H    4.801590   5.603708   6.340315   1.786655   0.000000
    31  H    3.470251   4.069575   4.751788   1.787600   1.794153
    32  H    2.280168   4.215005   5.261815   3.524533   2.911512
    33  H    6.891637   8.686231   9.842567   7.717010   6.740481
    34  H    8.947735  11.022936  12.176177   9.526851   8.287275
    35  H    9.593472  11.890079  12.998706   9.588079   8.075871
    36  H    8.427225  10.705398  11.731880   7.839414   6.178518
    37  H    6.182143   8.259553   9.267166   5.476067   3.837437
    38  H    5.308731   6.595408   7.742918   6.353482   5.799957
    39  H    5.700971   5.912668   6.964025   6.582095   6.592002
    40  H    9.001515   8.056700   8.754605   9.855588  10.341378
    41  H    8.143934   6.732417   7.298817   9.155827   9.852602
    42  H    7.597756   6.981035   7.752342   9.238067   9.618111
    43  H    8.665488   5.926742   5.957485   8.397345   9.674392
    44  H    7.464512   4.577300   4.618482   6.685579   8.056744
    45  H    7.230999   4.409063   4.403108   7.633127   8.869034
    46  H    5.167429   2.396315   2.785026   5.496920   6.650146
                   31         32         33         34         35
    31  H    0.000000
    32  H    2.314486   0.000000
    33  H    7.365103   5.429993   0.000000
    34  H    9.199308   7.417806   2.462909   0.000000
    35  H    9.267415   7.874690   4.292610   2.487769   0.000000
    36  H    7.505683   6.566400   4.966220   4.305053   2.486941
    37  H    5.069965   4.169875   4.310452   4.966683   4.302484
    38  H    6.009767   4.034629   2.260023   4.721267   6.317947
    39  H    6.492521   4.830520   4.123240   6.517799   8.272065
    40  H   10.028799   8.685057   7.680444   9.737893  11.850522
    41  H    9.269676   8.132018   8.292037  10.560320  12.514398
    42  H    9.112666   7.584515   7.034722   9.238770  11.320221
    43  H    8.904985   8.685780  10.505139  12.867977  14.407984
    44  H    7.277880   7.333216   9.779643  12.149876  13.448912
    45  H    7.841652   7.597597  10.076044  12.516445  13.975422
    46  H    5.565894   5.384029   8.550734  10.983884  12.195219
                   36         37         38         39         40
    36  H    0.000000
    37  H    2.480366   0.000000
    38  H    6.337649   4.783903   0.000000
    39  H    8.283079   6.555967   2.083560   0.000000
    40  H   12.240976  10.668417   6.102286   4.169725   0.000000
    41  H   12.588751  10.745583   6.370309   4.321040   1.786184
    42  H   11.605992   9.931763   5.277369   3.434760   1.787837
    43  H   13.918591  11.753181   8.374127   6.446910   5.114895
    44  H   12.709272  10.449411   7.623465   5.934714   5.844856
    45  H   13.348360  11.076007   7.841798   6.078592   5.572513
    46  H   11.344266   8.990803   6.314256   4.950308   6.105155
                   41         42         43         44         45
    41  H    0.000000
    42  H    1.794879   0.000000
    43  H    3.667974   5.315275   0.000000
    44  H    4.470219   5.783340   1.788611   0.000000
    45  H    3.885420   5.173462   1.788022   1.791857   0.000000
    46  H    4.687781   5.364946   3.605482   2.361076   2.289311
                   46
    46  H    0.000000
 Stoichiometry    C22H18N2O4
 Framework group  C1[X(C22H18N2O4)]
 Deg. of freedom   132
 Full point group                 C1      NOp   1
 Largest Abelian subgroup         C1      NOp   1
 Largest concise Abelian subgroup C1      NOp   1
                         Standard orientation:                         
 ---------------------------------------------------------------------
 Center     Atomic      Atomic             Coordinates (Angstroms)
 Number     Number       Type             X           Y           Z
 ---------------------------------------------------------------------
      1          6           0        0.776751   -3.251283   -1.746381
      2          8           0        0.476606   -1.895522   -1.384503
      3          6           0        1.046910   -1.474260   -0.205411
      4          8           0        2.485850   -1.196702   -0.391272
      5          6           0        2.723712    0.063342    0.009925
      6          6           0        4.109016    0.517115   -0.004501
      7          6           0        4.450954    1.810746    0.436955
      8          6           0        5.776614    2.233500    0.416116
      9          6           0        6.781741    1.374425   -0.043493
     10          6           0        6.452215    0.088656   -0.482094
     11          6           0        5.126650   -0.340807   -0.463961
     12          6           0        1.573463    0.725325    0.385890
     13          6           0        0.462883   -0.142150    0.246704
     14          6           0       -0.897313    0.209604    0.332356
     15          6           0       -1.208299    1.618594    0.281547
     16          6           0       -2.441428    2.098434   -0.043122
     17          8           0       -2.625208    3.445465   -0.216748
     18          6           0       -3.508066    4.088694    0.715674
     19          6           0       -3.494004    1.157566   -0.351325
     20          8           0       -4.652891    1.706542   -0.775245
     21          6           0       -5.723739    0.838826   -1.159310
     22          6           0       -3.281254   -0.189651   -0.173525
     23          6           0       -2.034720   -0.707088    0.299067
     24          6           0       -2.018109   -2.039898    0.786669
     25          6           0       -1.019359   -2.563407    1.635020
     26          7           0       -0.191852   -3.003688    2.336071
     27          6           0       -3.127786   -2.902081    0.557960
     28          7           0       -4.046516   -3.593517    0.352554
     29          1           0        0.163688   -3.471511   -2.620752
     30          1           0        1.836008   -3.361699   -2.001541
     31          1           0        0.515845   -3.935942   -0.930840
     32          1           0        1.036695   -2.251504    0.568570
     33          1           0        3.681884    2.485028    0.798924
     34          1           0        6.028426    3.232103    0.759678
     35          1           0        7.815472    1.706597   -0.057813
     36          1           0        7.229275   -0.580869   -0.838035
     37          1           0        4.867419   -1.337536   -0.801859
     38          1           0        1.546736    1.747574    0.728138
     39          1           0       -0.419126    2.351065    0.392868
     40          1           0       -3.514490    5.144469    0.440051
     41          1           0       -4.521624    3.683870    0.646898
     42          1           0       -3.127942    3.978338    1.738928
     43          1           0       -6.516875    1.495088   -1.516951
     44          1           0       -5.408263    0.163937   -1.962086
     45          1           0       -6.082185    0.255114   -0.304296
     46          1           0       -4.098211   -0.887160   -0.302677
 ---------------------------------------------------------------------
 Rotational constants (GHZ):           0.2721495           0.1028546           0.0810151
 Standard basis: 6-31+G(d,p) (6D, 7F)
 There are   622 symmetry adapted cartesian basis functions of A   symmetry.
 There are   622 symmetry adapted basis functions of A   symmetry.
   622 basis functions,  1022 primitive gaussians,   622 cartesian basis functions
    98 alpha electrons       98 beta electrons
       nuclear repulsion energy      2436.4850392451 Hartrees.
 NAtoms=   46 NActive=   46 NUniq=   46 SFac= 1.00D+00 NAtFMM=   60 NAOKFM=F Big=F
 Integral buffers will be    131072 words long.
 Regular integral format.
 Two-electron integral symmetry is turned on.
 One-electron integrals computed using PRISM.
 NBasis=   622 RedAO= T EigKep=  1.73D-06  NBF=   622
 NBsUse=   614 1.00D-06 EigRej=  8.66D-07 NBFU=   614
 ExpMin= 4.38D-02 ExpMax= 5.48D+03 ExpMxC= 8.25D+02 IAcc=3 IRadAn=         5 AccDes= 0.00D+00
 Harris functional with IExCor=  402 and IRadAn=       5 diagonalized for initial guess.
 HarFok:  IExCor=  402 AccDes= 0.00D+00 IRadAn=         5 IDoV= 1 UseB2=F ITyADJ=14
 ICtDFT=  3500011 ScaDFX=  1.000000  1.000000  1.000000  1.000000
 FoFCou: FMM=F IPFlag=           0 FMFlag=      100000 FMFlg1=           0
         NFxFlg=           0 DoJE=T BraDBF=F KetDBF=T FulRan=T
         wScrn=  0.000000 ICntrl=       500 IOpCl=  0 I1Cent=   200000004 NGrid=           0
         NMat0=    1 NMatS0=      1 NMatT0=    0 NMatD0=    1 NMtDS0=    0 NMtDT0=    0
 Petite list used in FoFCou.
 Requested convergence on RMS density matrix=1.00D-08 within 128 cycles.
 Requested convergence on MAX density matrix=1.00D-06.
 Requested convergence on             energy=1.00D-06.
 No special actions if energy rises.
 SCF Done:  E(RB3LYP) =  -1259.52797516     A.U. after   17 cycles
            NFock= 17  Conv=0.53D-08     -V/T= 2.0094
 DoSCS=F DFT=T ScalE2(SS,OS)=  1.000000  1.000000
 ExpMin= 4.38D-02 ExpMax= 5.48D+03 ExpMxC= 8.25D+02 IAcc=3 IRadAn=         5 AccDes= 0.00D+00
 HarFok:  IExCor=  205 AccDes= 0.00D+00 IRadAn=         5 IDoV=-2 UseB2=F ITyADJ=14
 ICtDFT= 12500011 ScaDFX=  1.000000  1.000000  1.000000  1.000000
 GSVD:  LWork=       -1008 too small for GESVD, short by        4340 words or        4340 for optimal perf.
 Range of M.O.s used for correlation:    29   614
 NBasis=   622 NAE=    98 NBE=    98 NFC=    28 NFV=     0
 NROrb=    586 NOA=    70 NOB=    70 NVA=   516 NVB=   516

 **** Warning!!: The largest alpha MO coefficient is  0.13905608D+03


 **** Warning!!: The smallest alpha delta epsilon is  0.81714733D-01

 Orbital symmetries:
       Occupied  (A) (A) (A) (A) (A) (A) (A) (A) (A) (A) (A) (A)
                 (A) (A) (A) (A) (A) (A) (A) (A) (A) (A) (A) (A)
                 (A) (A) (A) (A) (A) (A) (A) (A) (A) (A) (A) (A)
                 (A) (A) (A) (A) (A) (A) (A) (A) (A) (A) (A) (A)
                 (A) (A) (A) (A) (A) (A) (A) (A) (A) (A) (A) (A)
                 (A) (A) (A) (A) (A) (A) (A) (A) (A) (A) (A) (A)
                 (A) (A) (A) (A) (A) (A) (A) (A) (A) (A) (A) (A)
                 (A) (A) (A) (A) (A) (A) (A) (A) (A) (A) (A) (A)
                 (A) (A)
       Virtual   (A) (A) (A) (A) (A) (A) (A) (A) (A) (A) (A) (A)
                 (A) (A) (A) (A) (A) (A) (A) (A) (A) (A) (A) (A)
                 (A) (A) (A) (A) (A) (A) (A) (A) (A) (A) (A) (A)
                 (A) (A) (A) (A) (A) (A) (A) (A) (A) (A) (A) (A)
                 (A) (A) (A) (A) (A) (A) (A) (A) (A) (A) (A) (A)
                 (A) (A) (A) (A) (A) (A) (A) (A) (A) (A) (A) (A)
                 (A) (A) (A) (A) (A) (A) (A) (A) (A) (A) (A) (A)
                 (A) (A) (A) (A) (A) (A) (A) (A) (A) (A) (A) (A)
                 (A) (A) (A) (A) (A) (A) (A) (A) (A) (A) (A) (A)
                 (A) (A) (A) (A) (A) (A) (A) (A) (A) (A) (A) (A)
                 (A) (A) (A) (A) (A) (A) (A) (A) (A) (A) (A) (A)
                 (A) (A) (A) (A) (A) (A) (A) (A) (A) (A) (A) (A)
                 (A) (A) (A) (A) (A) (A) (A) (A) (A) (A) (A) (A)
                 (A) (A) (A) (A) (A) (A) (A) (A) (A) (A) (A) (A)
                 (A) (A) (A) (A) (A) (A) (A) (A) (A) (A) (A) (A)
                 (A) (A) (A) (A) (A) (A) (A) (A) (A) (A) (A) (A)
                 (A) (A) (A) (A) (A) (A) (A) (A) (A) (A) (A) (A)
                 (A) (A) (A) (A) (A) (A) (A) (A) (A) (A) (A) (A)
                 (A) (A) (A) (A) (A) (A) (A) (A) (A) (A) (A) (A)
                 (A) (A) (A) (A) (A) (A) (A) (A) (A) (A) (A) (A)
                 (A) (A) (A) (A) (A) (A) (A) (A) (A) (A) (A) (A)
                 (A) (A) (A) (A) (A) (A) (A) (A) (A) (A) (A) (A)
                 (A) (A) (A) (A) (A) (A) (A) (A) (A) (A) (A) (A)
                 (A) (A) (A) (A) (A) (A) (A) (A) (A) (A) (A) (A)
                 (A) (A) (A) (A) (A) (A) (A) (A) (A) (A) (A) (A)
                 (A) (A) (A) (A) (A) (A) (A) (A) (A) (A) (A) (A)
                 (A) (A) (A) (A) (A) (A) (A) (A) (A) (A) (A) (A)
                 (A) (A) (A) (A) (A) (A) (A) (A) (A) (A) (A) (A)
                 (A) (A) (A) (A) (A) (A) (A) (A) (A) (A) (A) (A)
                 (A) (A) (A) (A) (A) (A) (A) (A) (A) (A) (A) (A)
                 (A) (A) (A) (A) (A) (A) (A) (A) (A) (A) (A) (A)
                 (A) (A) (A) (A) (A) (A) (A) (A) (A) (A) (A) (A)
                 (A) (A) (A) (A) (A) (A) (A) (A) (A) (A) (A) (A)
                 (A) (A) (A) (A) (A) (A) (A) (A) (A) (A) (A) (A)
                 (A) (A) (A) (A) (A) (A) (A) (A) (A) (A) (A) (A)
                 (A) (A) (A) (A) (A) (A) (A) (A) (A) (A) (A) (A)
                 (A) (A) (A) (A) (A) (A) (A) (A) (A) (A) (A) (A)
                 (A) (A) (A) (A) (A) (A) (A) (A) (A) (A) (A) (A)
                 (A) (A) (A) (A) (A) (A) (A) (A) (A) (A) (A) (A)
                 (A) (A) (A) (A) (A) (A) (A) (A) (A) (A) (A) (A)
                 (A) (A) (A) (A) (A) (A) (A) (A) (A) (A) (A) (A)
                 (A) (A) (A) (A) (A) (A) (A) (A) (A) (A) (A) (A)
                 (A) (A) (A) (A) (A) (A) (A) (A) (A) (A) (A) (A)
    24 initial guesses have been made.
 Convergence on wavefunction:    0.001000000000000
 Iteration     1 Dimension    24 NMult     0 NNew     24
 CISAX will form    24 AO SS matrices at one time.
 New state      1 was old state      2
 New state      2 was old state      4
 New state      3 was old state      1
 New state      4 was old state      6
 New state      5 was old state      8
 New state      6 was old state      3
 New state      8 was old state     16
 New state      9 was old state     12
 New state     10 was old state     14
 New state     11 was old state      9
 New state     12 was old state     10
 Vector   5 SDiff=1.00D+00 TDiff=2.59D+01 assumed to be singlet.
 Vector  11 SDiff=7.92D-01 TDiff=2.10D+01 assumed to be singlet.
 Iteration     2 Dimension    36 NMult    24 NNew     12
 New state      2 was old state      3
 New state      3 was old state      2
 New state      5 was old state      6
 New state      6 was old state      7
 Iteration     3 Dimension    48 NMult    36 NNew     12
 Iteration     4 Dimension    60 NMult    48 NNew     12
 Iteration     5 Dimension    72 NMult    60 NNew     12
 Iteration     6 Dimension    80 NMult    72 NNew      8
 Iteration     7 Dimension    82 NMult    80 NNew      2
 Iteration     8 Dimension    84 NMult    82 NNew      2
 ***********************************************************************
 Excited states from <AA,BB:AA,BB> singles matrix:
 ***********************************************************************
 
 Ground to excited state transition densities written to RWF  633
 Ground to excited state transition electric dipole moments (Au):
       state          X           Y           Z        Dip. S.      Osc.
         1        -0.0000     -0.0000      0.0000      0.0000      0.0000
         2         2.3685      1.0211     -0.4820      6.8848      0.3535
         3         0.0000      0.0000     -0.0000      0.0000      0.0000
         4         0.0000      0.0000     -0.0000      0.0000      0.0000
         5         2.3364     -0.1669      0.0036      5.4866      0.4037
         6         1.1047     -0.5806      0.1086      1.5693      0.1315
 Ground to excited state transition velocity dipole moments (Au):
       state          X           Y           Z        Dip. S.      Osc.
         1        -0.0000      0.0000      0.0000      0.0000      0.0000
         2        -0.1796     -0.0782      0.0366      0.0397      0.3437
         3        -0.0000     -0.0000     -0.0000      0.0000      0.0000
         4        -0.0000     -0.0000      0.0000      0.0000      0.0000
         5        -0.2485      0.0198      0.0004      0.0621      0.3753
         6        -0.1342      0.0692     -0.0139      0.0230      0.1219
 Ground to excited state transition magnetic dipole moments (Au):
       state          X           Y           Z
         1        -0.0000     -0.0000      0.0000
         2        -0.0732     -0.0424      0.7525
         3         0.0000     -0.0000      0.0000
         4         0.0000     -0.0000      0.0000
         5         0.0283     -0.1609      0.0374
         6         0.1698     -0.1723     -0.7633
 Ground to excited state transition velocity quadrupole moments (Au):
       state          XX          YY          ZZ          XY          XZ          YZ
         1        -0.0000      0.0000     -0.0000      0.0000      0.0000     -0.0000
         2        -0.7047      0.4132      0.1081      0.1380     -0.0636     -0.2329
         3         0.0000     -0.0000      0.0000      0.0000     -0.0000     -0.0000
         4         0.0000      0.0000      0.0000      0.0000      0.0000     -0.0000
         5        -0.5046      0.0989      0.0274     -0.4677      0.1183     -0.0847
         6        -0.9396     -0.1563     -0.0331     -0.6510      0.0967      0.1158
 <0|del|b> * <b|rxdel|0> + <0|del|b> * <b|delr+rdel|0>
 Rotatory Strengths (R) in cgs (10**-40 erg-esu-cm/Gauss)
       state          XX          YY          ZZ    R(velocity)    E-M Angle
         1         0.0000      0.0000      0.0000      0.0000       90.00
         2       142.1656    355.7821    -93.6347    134.7710       73.03
         3        -0.0000      0.0000      0.0000      0.0000       90.00
         4         0.0000     -0.0000     -0.0000      0.0000       90.00
         5       -18.3095     45.5596    -92.6736    -21.8078      104.15
         6         3.0397   -103.4285    -35.1076    -45.1655      101.44
 1/2[<0|r|b>*<b|rxdel|0> + (<0|rxdel|b>*<b|r|0>)*]
 Rotatory Strengths (R) in cgs (10**-40 erg-esu-cm/Gauss)
       state          XX          YY          ZZ     R(length)
         1        -0.0000     -0.0000     -0.0000     -0.0000
         2       122.6308     30.5857    256.4854    136.5673
         3        -0.0000      0.0000      0.0000      0.0000
         4        -0.0000      0.0000      0.0000     -0.0000
         5       -46.7587    -18.9942     -0.0955    -21.9495
         6      -132.6667    -70.7567     58.6435    -48.2600
  1/2[<0|del|b>*<b|r|0> + (<0|r|b>*<b|del|0>)*] (Au)
       state          X           Y           Z        Dip. S.   Osc.(frdel)
         1         0.0000     -0.0000      0.0000     -0.0000     -0.0000
         2        -0.4253     -0.0798     -0.0177      0.5228      0.3485
         3        -0.0000     -0.0000      0.0000      0.0000      0.0000
         4        -0.0000     -0.0000     -0.0000      0.0000      0.0000
         5        -0.5805     -0.0033      0.0000      0.5838      0.3892
         6        -0.1482     -0.0402     -0.0015      0.1899      0.1266

 Excitation energies and oscillator strengths:
 
 Excited State   1:      Triplet-A      0.9158 eV 1353.83 nm  f=0.0000  <S**2>=2.000
      98 -> 99         0.71655
      98 <- 99         0.16848
 This state for optimization and/or second-order correction.
 Total Energy, E(TD-HF/TD-DFT) =  -1259.49431993    
 Copying the excited state density for this state as the 1-particle RhoCI density.
 
 Excited State   2:      Singlet-A      2.0955 eV  591.67 nm  f=0.3535  <S**2>=0.000
      98 -> 99         0.70837
      98 <- 99        -0.11779
 
 Excited State   3:      Triplet-A      2.2284 eV  556.37 nm  f=0.0000  <S**2>=2.000
      97 -> 99         0.66587
      98 ->100         0.19004
 
 Excited State   4:      Triplet-A      2.8336 eV  437.55 nm  f=0.0000  <S**2>=2.000
      96 -> 99         0.34699
      97 -> 99        -0.17357
      97 ->100         0.15781
      98 ->100         0.51688
      98 ->102        -0.14194
 
 Excited State   5:      Singlet-A      3.0030 eV  412.87 nm  f=0.4037  <S**2>=0.000
      97 -> 99         0.65665
      98 ->100        -0.21218
 
 Excited State   6:      Singlet-A      3.4192 eV  362.61 nm  f=0.1315  <S**2>=0.000
      97 -> 99         0.20318
      98 ->100         0.65743
      98 ->102        -0.10241
 SavETr:  write IOETrn=   770 NScale= 10 NData=  16 NLR=1 NState=    6 LETran=     118.

 **********************************************************************

            Population analysis using the SCF Density.

 **********************************************************************

 Orbital symmetries:
       Occupied  (A) (A) (A) (A) (A) (A) (A) (A) (A) (A) (A) (A)
                 (A) (A) (A) (A) (A) (A) (A) (A) (A) (A) (A) (A)
                 (A) (A) (A) (A) (A) (A) (A) (A) (A) (A) (A) (A)
                 (A) (A) (A) (A) (A) (A) (A) (A) (A) (A) (A) (A)
                 (A) (A) (A) (A) (A) (A) (A) (A) (A) (A) (A) (A)
                 (A) (A) (A) (A) (A) (A) (A) (A) (A) (A) (A) (A)
                 (A) (A) (A) (A) (A) (A) (A) (A) (A) (A) (A) (A)
                 (A) (A) (A) (A) (A) (A) (A) (A) (A) (A) (A) (A)
                 (A) (A)
       Virtual   (A) (A) (A) (A) (A) (A) (A) (A) (A) (A) (A) (A)
                 (A) (A) (A) (A) (A) (A) (A) (A) (A) (A) (A) (A)
                 (A) (A) (A) (A) (A) (A) (A) (A) (A) (A) (A) (A)
                 (A) (A) (A) (A) (A) (A) (A) (A) (A) (A) (A) (A)
                 (A) (A) (A) (A) (A) (A) (A) (A) (A) (A) (A) (A)
                 (A) (A) (A) (A) (A) (A) (A) (A) (A) (A) (A) (A)
                 (A) (A) (A) (A) (A) (A) (A) (A) (A) (A) (A) (A)
                 (A) (A) (A) (A) (A) (A) (A) (A) (A) (A) (A) (A)
                 (A) (A) (A) (A) (A) (A) (A) (A) (A) (A) (A) (A)
                 (A) (A) (A) (A) (A) (A) (A) (A) (A) (A) (A) (A)
                 (A) (A) (A) (A) (A) (A) (A) (A) (A) (A) (A) (A)
                 (A) (A) (A) (A) (A) (A) (A) (A) (A) (A) (A) (A)
                 (A) (A) (A) (A) (A) (A) (A) (A) (A) (A) (A) (A)
                 (A) (A) (A) (A) (A) (A) (A) (A) (A) (A) (A) (A)
                 (A) (A) (A) (A) (A) (A) (A) (A) (A) (A) (A) (A)
                 (A) (A) (A) (A) (A) (A) (A) (A) (A) (A) (A) (A)
                 (A) (A) (A) (A) (A) (A) (A) (A) (A) (A) (A) (A)
                 (A) (A) (A) (A) (A) (A) (A) (A) (A) (A) (A) (A)
                 (A) (A) (A) (A) (A) (A) (A) (A) (A) (A) (A) (A)
                 (A) (A) (A) (A) (A) (A) (A) (A) (A) (A) (A) (A)
                 (A) (A) (A) (A) (A) (A) (A) (A) (A) (A) (A) (A)
                 (A) (A) (A) (A) (A) (A) (A) (A) (A) (A) (A) (A)
                 (A) (A) (A) (A) (A) (A) (A) (A) (A) (A) (A) (A)
                 (A) (A) (A) (A) (A) (A) (A) (A) (A) (A) (A) (A)
                 (A) (A) (A) (A) (A) (A) (A) (A) (A) (A) (A) (A)
                 (A) (A) (A) (A) (A) (A) (A) (A) (A) (A) (A) (A)
                 (A) (A) (A) (A) (A) (A) (A) (A) (A) (A) (A) (A)
                 (A) (A) (A) (A) (A) (A) (A) (A) (A) (A) (A) (A)
                 (A) (A) (A) (A) (A) (A) (A) (A) (A) (A) (A) (A)
                 (A) (A) (A) (A) (A) (A) (A) (A) (A) (A) (A) (A)
                 (A) (A) (A) (A) (A) (A) (A) (A) (A) (A) (A) (A)
                 (A) (A) (A) (A) (A) (A) (A) (A) (A) (A) (A) (A)
                 (A) (A) (A) (A) (A) (A) (A) (A) (A) (A) (A) (A)
                 (A) (A) (A) (A) (A) (A) (A) (A) (A) (A) (A) (A)
                 (A) (A) (A) (A) (A) (A) (A) (A) (A) (A) (A) (A)
                 (A) (A) (A) (A) (A) (A) (A) (A) (A) (A) (A) (A)
                 (A) (A) (A) (A) (A) (A) (A) (A) (A) (A) (A) (A)
                 (A) (A) (A) (A) (A) (A) (A) (A) (A) (A) (A) (A)
                 (A) (A) (A) (A) (A) (A) (A) (A) (A) (A) (A) (A)
                 (A) (A) (A) (A) (A) (A) (A) (A) (A) (A) (A) (A)
                 (A) (A) (A) (A) (A) (A) (A) (A) (A) (A) (A) (A)
                 (A) (A) (A) (A) (A) (A) (A) (A) (A) (A) (A) (A)
                 (A) (A) (A) (A) (A) (A) (A) (A) (A) (A) (A) (A)
 The electronic state is 1-A.
 Alpha  occ. eigenvalues --  -19.22131 -19.21642 -19.19435 -19.18673 -14.33759
 Alpha  occ. eigenvalues --  -14.33253 -10.32172 -10.30260 -10.28382 -10.26488
 Alpha  occ. eigenvalues --  -10.26062 -10.25330 -10.25126 -10.24704 -10.24478
 Alpha  occ. eigenvalues --  -10.24263 -10.23924 -10.23518 -10.23475 -10.23043
 Alpha  occ. eigenvalues --  -10.22936 -10.22668 -10.22552 -10.22435 -10.22299
 Alpha  occ. eigenvalues --  -10.22135 -10.21582 -10.20768  -1.12884  -1.10251
 Alpha  occ. eigenvalues --   -1.06640  -1.06600  -0.91526  -0.89814  -0.89212
 Alpha  occ. eigenvalues --   -0.88820  -0.84523  -0.81823  -0.81442  -0.78137
 Alpha  occ. eigenvalues --   -0.77569  -0.75879  -0.75343  -0.73458  -0.70180
 Alpha  occ. eigenvalues --   -0.69494  -0.65755  -0.64974  -0.63426  -0.63299
 Alpha  occ. eigenvalues --   -0.60118  -0.59499  -0.57633  -0.56515  -0.55564
 Alpha  occ. eigenvalues --   -0.53840  -0.53298  -0.52605  -0.51028  -0.50457
 Alpha  occ. eigenvalues --   -0.49557  -0.48724  -0.48163  -0.47139  -0.46987
 Alpha  occ. eigenvalues --   -0.46775  -0.46282  -0.45609  -0.45299  -0.44817
 Alpha  occ. eigenvalues --   -0.44379  -0.43582  -0.42873  -0.41536  -0.41018
 Alpha  occ. eigenvalues --   -0.39730  -0.39296  -0.39228  -0.38542  -0.38350
 Alpha  occ. eigenvalues --   -0.37486  -0.37231  -0.36861  -0.36125  -0.35972
 Alpha  occ. eigenvalues --   -0.35340  -0.34947  -0.33929  -0.33439  -0.32507
 Alpha  occ. eigenvalues --   -0.31188  -0.30640  -0.29853  -0.29193  -0.28519
 Alpha  occ. eigenvalues --   -0.27263  -0.24482  -0.20176
 Alpha virt. eigenvalues --   -0.12004  -0.06072  -0.03927  -0.02632  -0.01246
 Alpha virt. eigenvalues --   -0.00680  -0.00136   0.00253   0.00399   0.00805
 Alpha virt. eigenvalues --    0.01239   0.02053   0.02194   0.02493   0.02732
 Alpha virt. eigenvalues --    0.03129   0.03482   0.03713   0.04044   0.04227
 Alpha virt. eigenvalues --    0.04343   0.04725   0.05211   0.05370   0.05670
 Alpha virt. eigenvalues --    0.05698   0.06299   0.06602   0.07094   0.07300
 Alpha virt. eigenvalues --    0.07751   0.07882   0.08164   0.08640   0.08781
 Alpha virt. eigenvalues --    0.09053   0.09382   0.09663   0.10119   0.10589
 Alpha virt. eigenvalues --    0.10784   0.11056   0.11433   0.11496   0.11714
 Alpha virt. eigenvalues --    0.12257   0.12393   0.12810   0.13062   0.13334
 Alpha virt. eigenvalues --    0.13607   0.13773   0.14165   0.14210   0.14519
 Alpha virt. eigenvalues --    0.14705   0.15128   0.15383   0.15434   0.15678
 Alpha virt. eigenvalues --    0.16066   0.16393   0.16530   0.16696   0.16766
 Alpha virt. eigenvalues --    0.17087   0.17629   0.17817   0.18430   0.18606
 Alpha virt. eigenvalues --    0.18836   0.19133   0.19409   0.19773   0.19952
 Alpha virt. eigenvalues --    0.20181   0.20546   0.20704   0.20723   0.20960
 Alpha virt. eigenvalues --    0.21755   0.22160   0.22288   0.22730   0.23222
 Alpha virt. eigenvalues --    0.23391   0.23486   0.23858   0.24076   0.24311
 Alpha virt. eigenvalues --    0.24531   0.24930   0.25363   0.25405   0.25914
 Alpha virt. eigenvalues --    0.26134   0.26156   0.26227   0.26644   0.26818
 Alpha virt. eigenvalues --    0.27170   0.27396   0.27516   0.27791   0.28045
 Alpha virt. eigenvalues --    0.28230   0.28601   0.28662   0.29110   0.29249
 Alpha virt. eigenvalues --    0.29595   0.29660   0.29940   0.30471   0.30927
 Alpha virt. eigenvalues --    0.31033   0.31256   0.31689   0.32078   0.32344
 Alpha virt. eigenvalues --    0.32484   0.32945   0.33027   0.33424   0.33703
 Alpha virt. eigenvalues --    0.33937   0.34246   0.34786   0.34883   0.35120
 Alpha virt. eigenvalues --    0.35330   0.35708   0.36182   0.36224   0.36326
 Alpha virt. eigenvalues --    0.37146   0.37843   0.38317   0.38654   0.39692
 Alpha virt. eigenvalues --    0.39948   0.40080   0.40645   0.40838   0.42062
 Alpha virt. eigenvalues --    0.43045   0.43854   0.44018   0.44846   0.46537
 Alpha virt. eigenvalues --    0.46888   0.47098   0.47492   0.48180   0.49050
 Alpha virt. eigenvalues --    0.49740   0.51011   0.52244   0.56307   0.58550
 Alpha virt. eigenvalues --    0.59489   0.60850   0.63551   0.64448   0.65361
 Alpha virt. eigenvalues --    0.65724   0.66585   0.66934   0.67284   0.67447
 Alpha virt. eigenvalues --    0.68277   0.69012   0.69339   0.70125   0.70603
 Alpha virt. eigenvalues --    0.71204   0.71325   0.71562   0.71990   0.72520
 Alpha virt. eigenvalues --    0.72890   0.73227   0.73893   0.74039   0.74955
 Alpha virt. eigenvalues --    0.75408   0.75937   0.76590   0.77226   0.77509
 Alpha virt. eigenvalues --    0.77869   0.78336   0.79602   0.79983   0.80346
 Alpha virt. eigenvalues --    0.81926   0.82182   0.83768   0.84504   0.84619
 Alpha virt. eigenvalues --    0.85398   0.85738   0.86417   0.86843   0.87276
 Alpha virt. eigenvalues --    0.87845   0.88318   0.88405   0.89706   0.90405
 Alpha virt. eigenvalues --    0.90812   0.91520   0.91808   0.92885   0.93585
 Alpha virt. eigenvalues --    0.94048   0.95707   0.95746   0.96715   0.97433
 Alpha virt. eigenvalues --    0.98250   0.98419   0.99028   0.99254   1.00126
 Alpha virt. eigenvalues --    1.01215   1.01691   1.02141   1.03088   1.04618
 Alpha virt. eigenvalues --    1.05175   1.05545   1.06133   1.06790   1.07272
 Alpha virt. eigenvalues --    1.07478   1.08484   1.08938   1.09771   1.10603
 Alpha virt. eigenvalues --    1.10814   1.11568   1.12094   1.12861   1.14032
 Alpha virt. eigenvalues --    1.14417   1.15598   1.16238   1.16379   1.16563
 Alpha virt. eigenvalues --    1.17876   1.18351   1.19236   1.19694   1.20606
 Alpha virt. eigenvalues --    1.21521   1.22191   1.22576   1.23127   1.23360
 Alpha virt. eigenvalues --    1.25184   1.25750   1.26234   1.26996   1.27634
 Alpha virt. eigenvalues --    1.28179   1.28814   1.29527   1.30179   1.30822
 Alpha virt. eigenvalues --    1.31004   1.31626   1.32593   1.32729   1.33591
 Alpha virt. eigenvalues --    1.34375   1.36106   1.36777   1.37313   1.37750
 Alpha virt. eigenvalues --    1.38634   1.39394   1.40232   1.40797   1.41934
 Alpha virt. eigenvalues --    1.42897   1.43171   1.44979   1.45363   1.46754
 Alpha virt. eigenvalues --    1.47319   1.47622   1.48240   1.49054   1.50013
 Alpha virt. eigenvalues --    1.50990   1.51801   1.53350   1.53737   1.54339
 Alpha virt. eigenvalues --    1.55111   1.56443   1.58677   1.59484   1.60072
 Alpha virt. eigenvalues --    1.61267   1.61666   1.66309   1.67669   1.68511
 Alpha virt. eigenvalues --    1.69844   1.70958   1.71840   1.72804   1.73614
 Alpha virt. eigenvalues --    1.75428   1.76325   1.77148   1.78224   1.79374
 Alpha virt. eigenvalues --    1.80274   1.80339   1.81700   1.82813   1.83442
 Alpha virt. eigenvalues --    1.85024   1.85361   1.86444   1.86872   1.87171
 Alpha virt. eigenvalues --    1.87596   1.88046   1.89037   1.89203   1.89972
 Alpha virt. eigenvalues --    1.90910   1.92186   1.92915   1.93168   1.94011
 Alpha virt. eigenvalues --    1.94566   1.95131   1.95433   1.96517   1.97377
 Alpha virt. eigenvalues --    1.97620   1.97891   1.98619   1.99163   1.99469
 Alpha virt. eigenvalues --    1.99720   2.00494   2.00687   2.01648   2.02371
 Alpha virt. eigenvalues --    2.02590   2.03251   2.03907   2.04108   2.04882
 Alpha virt. eigenvalues --    2.05589   2.05655   2.06290   2.06696   2.07188
 Alpha virt. eigenvalues --    2.08353   2.09007   2.10009   2.10423   2.10658
 Alpha virt. eigenvalues --    2.11099   2.13068   2.13637   2.14642   2.16585
 Alpha virt. eigenvalues --    2.18355   2.18809   2.21139   2.22145   2.22887
 Alpha virt. eigenvalues --    2.23390   2.24973   2.26976   2.27441   2.29525
 Alpha virt. eigenvalues --    2.30347   2.31364   2.32145   2.34061   2.34891
 Alpha virt. eigenvalues --    2.36173   2.36429   2.36611   2.37939   2.39287
 Alpha virt. eigenvalues --    2.40653   2.42789   2.43752   2.44709   2.46239
 Alpha virt. eigenvalues --    2.46687   2.48837   2.49256   2.49703   2.50575
 Alpha virt. eigenvalues --    2.51558   2.52101   2.53087   2.53929   2.54617
 Alpha virt. eigenvalues --    2.56900   2.57527   2.57743   2.58884   2.59484
 Alpha virt. eigenvalues --    2.60597   2.61278   2.61990   2.62536   2.62763
 Alpha virt. eigenvalues --    2.63320   2.64009   2.64644   2.65822   2.66483
 Alpha virt. eigenvalues --    2.68880   2.69542   2.70386   2.72265   2.73158
 Alpha virt. eigenvalues --    2.74357   2.75850   2.76903   2.77452   2.78443
 Alpha virt. eigenvalues --    2.78752   2.80063   2.80780   2.81524   2.82553
 Alpha virt. eigenvalues --    2.83350   2.83932   2.84597   2.86650   2.87514
 Alpha virt. eigenvalues --    2.88144   2.88988   2.89298   2.91936   2.93689
 Alpha virt. eigenvalues --    2.97268   3.00187   3.00979   3.02936   3.03519
 Alpha virt. eigenvalues --    3.04607   3.05448   3.07381   3.09051   3.10063
 Alpha virt. eigenvalues --    3.12444   3.14572   3.16094   3.17519   3.21102
 Alpha virt. eigenvalues --    3.23730   3.24433   3.24635   3.24907   3.25297
 Alpha virt. eigenvalues --    3.27138   3.31660   3.32246   3.39929   3.41210
 Alpha virt. eigenvalues --    3.41329   3.42356   3.43222   3.45249   3.45577
 Alpha virt. eigenvalues --    3.46021   3.47264   3.48674   3.51597   3.52155
 Alpha virt. eigenvalues --    3.57177   3.67000   3.88055   4.25441   4.26580
 Alpha virt. eigenvalues --    4.27059   4.28270   4.31563   4.32451   4.33455
 Alpha virt. eigenvalues --    4.35021   4.38119   4.39699   4.40679   4.44413
 Alpha virt. eigenvalues --    4.45390   4.47999   4.49187   4.51191   4.54736
 Alpha virt. eigenvalues --    4.55124   4.57806   4.59592   4.64897   4.67145
 Alpha virt. eigenvalues --    4.68857   4.72292   4.83348   4.87287   4.90488
 Alpha virt. eigenvalues --    5.05301
          Condensed to atoms (all electrons):
               1          2          3          4          5          6
     1  C    5.109954   0.024119   0.100253  -0.030911  -0.121552  -0.005648
     2  O    0.024119   8.086601   0.602289  -0.085519   0.009026   0.043599
     3  C    0.100253   0.602289  16.135417  -0.083407  -4.476302  -0.631561
     4  O   -0.030911  -0.085519  -0.083407   8.648311   0.120799  -0.337012
     5  C   -0.121552   0.009026  -4.476302   0.120799  10.683691   1.002623
     6  C   -0.005648   0.043599  -0.631561  -0.337012   1.002623  10.157694
     7  C   -0.011709   0.011709  -0.463387  -0.138098  -0.232981  -2.752467
     8  C   -0.004459  -0.001138  -0.311261   0.027142  -0.301040   1.086291
     9  C   -0.000107   0.000304  -0.031737  -0.004215  -0.144585  -0.380942
    10  C    0.001289  -0.006531   0.064417   0.148715   0.106376  -1.095857
    11  C    0.000554  -0.026866  -0.388002   0.166060   0.810647   0.169621
    12  C    0.021610   0.003102   0.603066  -0.183505  -0.919789  -1.122473
    13  C   -0.124685  -0.218383  -3.484525   0.103859  -0.096155  -0.101527
    14  C   -0.054903  -0.027661  -0.874584   0.029898   0.312633   0.116691
    15  C   -0.010482  -0.091686  -1.125549  -0.008490  -0.837886  -0.436429
    16  C   -0.002883  -0.007707  -0.144018  -0.004519   0.212461  -0.051041
    17  O   -0.000007   0.000016   0.001637  -0.000018  -0.001807  -0.000988
    18  C    0.000102  -0.000019   0.003757   0.000053   0.002790   0.002019
    19  C   -0.002165   0.027901   0.169637  -0.008915  -0.143720  -0.094526
    20  O    0.000096  -0.000005  -0.000648   0.000005   0.001270   0.000294
    21  C    0.000250   0.000033  -0.001189  -0.000004  -0.002050  -0.000311
    22  C    0.016079  -0.007445  -0.267134   0.000629   0.159483   0.022643
    23  C    0.028612   0.007816   1.433593   0.000837  -1.059904  -0.096979
    24  C    0.081484  -0.040639  -1.555000   0.019958   1.143385   0.130816
    25  C   -0.078958   0.055513   0.923341  -0.018870  -0.769500  -0.097065
    26  N   -0.005347  -0.010403  -0.246817  -0.002765   0.112362   0.010649
    27  C   -0.036135   0.068796  -0.257005  -0.011589   0.199648   0.006856
    28  N    0.000664  -0.001979  -0.000197   0.000131  -0.002106   0.000007
    29  H    0.422254  -0.056901   0.013874  -0.000384   0.008153  -0.002214
    30  H    0.405187  -0.050597   0.005237   0.008567   0.005467  -0.002304
    31  H    0.413297  -0.040476  -0.070541  -0.001870  -0.013998   0.006079
    32  H   -0.033788  -0.057692   0.023028  -0.057109   0.030163   0.023721
    33  H    0.000018   0.000007   0.006422  -0.000152   0.028072   0.084473
    34  H    0.000000  -0.000000   0.000373   0.000030   0.000965  -0.009733
    35  H   -0.000000   0.000000  -0.000092   0.000004  -0.000585   0.005357
    36  H    0.000008   0.000001   0.000681   0.000352  -0.006568   0.014371
    37  H   -0.000416  -0.000245   0.011753  -0.001062   0.029460   0.010475
    38  H    0.000691  -0.000256   0.037522   0.006985  -0.036800   0.008063
    39  H    0.000045  -0.000171  -0.001017  -0.000332   0.002661  -0.003272
    40  H   -0.000000  -0.000000   0.000016   0.000000  -0.000053  -0.000010
    41  H    0.000000  -0.000000   0.000144  -0.000000   0.000016   0.000001
    42  H   -0.000000   0.000000  -0.000357  -0.000000  -0.000041  -0.000008
    43  H    0.000000   0.000000  -0.000016   0.000000   0.000006   0.000000
    44  H   -0.000008   0.000002  -0.000069  -0.000000  -0.000001  -0.000001
    45  H    0.000003  -0.000000   0.000134   0.000000  -0.000025  -0.000000
    46  H   -0.000192   0.000009   0.001881  -0.000002  -0.000045   0.000004
               7          8          9         10         11         12
     1  C   -0.011709  -0.004459  -0.000107   0.001289   0.000554   0.021610
     2  O    0.011709  -0.001138   0.000304  -0.006531  -0.026866   0.003102
     3  C   -0.463387  -0.311261  -0.031737   0.064417  -0.388002   0.603066
     4  O   -0.138098   0.027142  -0.004215   0.148715   0.166060  -0.183505
     5  C   -0.232981  -0.301040  -0.144585   0.106376   0.810647  -0.919789
     6  C   -2.752467   1.086291  -0.380942  -1.095857   0.169621  -1.122473
     7  C   20.944139  -6.547400   0.240259  -0.517252  -7.145374   1.782937
     8  C   -6.547400  10.552435   0.377436   0.143154   1.447347  -0.905270
     9  C    0.240259   0.377436   5.507274   0.411972   0.011737  -0.092328
    10  C   -0.517252   0.143154   0.411972   8.566752  -2.504756   0.450414
    11  C   -7.145374   1.447347   0.011737  -2.504756  16.506880  -2.008831
    12  C    1.782937  -0.905270  -0.092328   0.450414  -2.008831   8.401391
    13  C    0.721357   0.317859  -0.059009   0.145811  -1.132119   0.607784
    14  C    0.014201  -0.009256   0.000747  -0.007651  -0.037217   0.108780
    15  C    0.314907   0.034962  -0.001819   0.013589  -0.216877   0.360774
    16  C    0.052891   0.040434  -0.000541   0.001105  -0.006981  -0.247602
    17  O    0.000179  -0.000035  -0.000010   0.000018  -0.000105  -0.014740
    18  C   -0.001657  -0.000691   0.000004  -0.000001   0.000327   0.023530
    19  C    0.060621   0.005241  -0.000445   0.001482  -0.031102  -0.523944
    20  O   -0.000110  -0.000006   0.000000  -0.000001   0.000029   0.007150
    21  C    0.000089  -0.000007  -0.000000   0.000003  -0.000065  -0.004576
    22  C   -0.000796  -0.003867   0.000422  -0.001254   0.002862   0.105099
    23  C    0.029503   0.020279  -0.002306   0.002663  -0.057759  -0.255321
    24  C   -0.044377   0.001624   0.000979  -0.003524   0.086076   0.047951
    25  C    0.016652   0.000268  -0.001180   0.003480  -0.055909  -0.243003
    26  N    0.001460  -0.000055   0.000183  -0.001086   0.003587   0.005856
    27  C    0.004425   0.001457  -0.000094  -0.001091  -0.003248  -0.062868
    28  N   -0.000079  -0.000007   0.000000   0.000005   0.000071   0.001024
    29  H   -0.000284  -0.000005   0.000003   0.000084   0.001266  -0.000403
    30  H    0.000563   0.000305  -0.000217  -0.000233  -0.003319   0.002171
    31  H    0.000656  -0.000026   0.000021  -0.000263  -0.002495   0.002513
    32  H    0.017748   0.000724   0.000242  -0.000597  -0.014337   0.009852
    33  H    0.114252   0.025903  -0.007189  -0.001190   0.043481  -0.000909
    34  H    0.031141   0.268470   0.025671   0.003661  -0.007568  -0.000165
    35  H    0.015119  -0.002279   0.266824   0.006618   0.020142  -0.000018
    36  H   -0.012256   0.009396   0.011708   0.271611   0.024354  -0.001133
    37  H    0.043776  -0.019849   0.003349  -0.011815   0.208997   0.027403
    38  H   -0.024401   0.000916  -0.001956   0.000716   0.003638   0.360338
    39  H    0.001250   0.000249  -0.000022   0.000051  -0.000377  -0.003702
    40  H    0.000006   0.000000   0.000000   0.000000  -0.000000  -0.000006
    41  H   -0.000000   0.000000  -0.000000   0.000000   0.000000  -0.000401
    42  H    0.000009  -0.000000   0.000000  -0.000000  -0.000000   0.000644
    43  H   -0.000000  -0.000000   0.000000  -0.000000   0.000000   0.000043
    44  H    0.000000   0.000000  -0.000000  -0.000000  -0.000000  -0.000102
    45  H   -0.000000  -0.000000  -0.000000   0.000000   0.000000  -0.000092
    46  H   -0.000000   0.000000  -0.000000   0.000000   0.000002   0.001027
              13         14         15         16         17         18
     1  C   -0.124685  -0.054903  -0.010482  -0.002883  -0.000007   0.000102
     2  O   -0.218383  -0.027661  -0.091686  -0.007707   0.000016  -0.000019
     3  C   -3.484525  -0.874584  -1.125549  -0.144018   0.001637   0.003757
     4  O    0.103859   0.029898  -0.008490  -0.004519  -0.000018   0.000053
     5  C   -0.096155   0.312633  -0.837886   0.212461  -0.001807   0.002790
     6  C   -0.101527   0.116691  -0.436429  -0.051041  -0.000988   0.002019
     7  C    0.721357   0.014201   0.314907   0.052891   0.000179  -0.001657
     8  C    0.317859  -0.009256   0.034962   0.040434  -0.000035  -0.000691
     9  C   -0.059009   0.000747  -0.001819  -0.000541  -0.000010   0.000004
    10  C    0.145811  -0.007651   0.013589   0.001105   0.000018  -0.000001
    11  C   -1.132119  -0.037217  -0.216877  -0.006981  -0.000105   0.000327
    12  C    0.607784   0.108780   0.360774  -0.247602  -0.014740   0.023530
    13  C   10.323774   1.014550   0.071511  -0.408896  -0.020230   0.032647
    14  C    1.014550  10.436853  -0.721253  -1.295276  -0.023146   0.125138
    15  C    0.071511  -0.721253  20.710018   2.344810  -0.667068   0.323715
    16  C   -0.408896  -1.295276   2.344810  17.069950   0.464472  -0.170865
    17  O   -0.020230  -0.023146  -0.667068   0.464472   8.386826   0.063768
    18  C    0.032647   0.125138   0.323715  -0.170865   0.063768   5.097376
    19  C   -0.972717   0.011700 -12.923081  -4.229884   0.201826  -0.351421
    20  O    0.024419   0.004996   0.176934  -0.541997   0.014985   0.008134
    21  C    0.001574   0.006990   0.044417   0.192434  -0.003048   0.003328
    22  C    0.510682  -2.275084  -0.850742  -4.589518   0.072117  -0.127500
    23  C   -1.471273  -0.747039   0.592465  -1.045454   0.026370  -0.077972
    24  C    1.727307  -0.205787  -1.755499  -1.055404   0.019806   0.001803
    25  C   -1.857853   0.630513   1.014009  -0.115624   0.005852  -0.017061
    26  N    0.131165   0.040222  -0.000752   0.003576  -0.000057   0.000021
    27  C    0.053762  -0.994870  -0.537486  -0.280415   0.001644   0.005350
    28  N    0.013558   0.043382   0.005095   0.010640  -0.000014   0.000133
    29  H   -0.018051  -0.002860  -0.001614   0.000116  -0.000000  -0.000000
    30  H   -0.012464  -0.005564  -0.000941  -0.000154   0.000000   0.000000
    31  H    0.038209   0.020725   0.004036   0.000299  -0.000000  -0.000000
    32  H    0.188186   0.102915   0.055906   0.003621  -0.000003  -0.000024
    33  H    0.000504   0.001843  -0.000481  -0.000405   0.000001   0.000005
    34  H   -0.000395  -0.000085  -0.000000  -0.000005  -0.000000   0.000000
    35  H    0.000004   0.000003   0.000001   0.000000  -0.000000  -0.000000
    36  H   -0.000206  -0.000010   0.000001   0.000000   0.000000   0.000000
    37  H    0.001152   0.000870  -0.000120  -0.000021  -0.000000   0.000000
    38  H   -0.043180  -0.014296   0.020259  -0.002443  -0.000118  -0.000047
    39  H   -0.049437  -0.128988   0.257470   0.115252  -0.009311   0.003942
    40  H   -0.000204  -0.004352  -0.018018  -0.015571  -0.049903   0.411816
    41  H    0.000881   0.009215  -0.077027  -0.048696  -0.037056   0.404942
    42  H   -0.002038   0.000180   0.117036  -0.004670  -0.061690   0.403207
    43  H    0.000373   0.003207   0.011492   0.081595  -0.000533   0.000562
    44  H   -0.000661  -0.000416  -0.006357  -0.032319  -0.000068   0.000480
    45  H   -0.000710  -0.006386  -0.003118  -0.033199   0.000113  -0.001690
    46  H   -0.012300   0.013454  -0.006735   0.000835  -0.000614  -0.000238
              19         20         21         22         23         24
     1  C   -0.002165   0.000096   0.000250   0.016079   0.028612   0.081484
     2  O    0.027901  -0.000005   0.000033  -0.007445   0.007816  -0.040639
     3  C    0.169637  -0.000648  -0.001189  -0.267134   1.433593  -1.555000
     4  O   -0.008915   0.000005  -0.000004   0.000629   0.000837   0.019958
     5  C   -0.143720   0.001270  -0.002050   0.159483  -1.059904   1.143385
     6  C   -0.094526   0.000294  -0.000311   0.022643  -0.096979   0.130816
     7  C    0.060621  -0.000110   0.000089  -0.000796   0.029503  -0.044377
     8  C    0.005241  -0.000006  -0.000007  -0.003867   0.020279   0.001624
     9  C   -0.000445   0.000000  -0.000000   0.000422  -0.002306   0.000979
    10  C    0.001482  -0.000001   0.000003  -0.001254   0.002663  -0.003524
    11  C   -0.031102   0.000029  -0.000065   0.002862  -0.057759   0.086076
    12  C   -0.523944   0.007150  -0.004576   0.105099  -0.255321   0.047951
    13  C   -0.972717   0.024419   0.001574   0.510682  -1.471273   1.727307
    14  C    0.011700   0.004996   0.006990  -2.275084  -0.747039  -0.205787
    15  C  -12.923081   0.176934   0.044417  -0.850742   0.592465  -1.755499
    16  C   -4.229884  -0.541997   0.192434  -4.589518  -1.045454  -1.055404
    17  O    0.201826   0.014985  -0.003048   0.072117   0.026370   0.019806
    18  C   -0.351421   0.008134   0.003328  -0.127500  -0.077972   0.001803
    19  C   28.772595   0.037797  -0.060388  -1.631682  -1.764495  -0.482174
    20  O    0.037797   8.529312   0.010427   0.269876   0.020662  -0.008163
    21  C   -0.060388   0.010427   5.053663  -0.265758  -0.072850  -0.025918
    22  C   -1.631682   0.269876  -0.265758  13.714831   1.299967   1.263639
    23  C   -1.764495   0.020662  -0.072850   1.299967  11.821162  -0.607696
    24  C   -0.482174  -0.008163  -0.025918   1.263639  -0.607696  13.976581
    25  C   -0.509940  -0.014097  -0.011062  -2.442895   0.785162  -7.017556
    26  N    0.013368   0.000038   0.000175   0.085316  -0.042601   0.234532
    27  C    0.303924   0.005844   0.034014   1.026136  -4.070247  -0.646158
    28  N    0.013786   0.000025  -0.001478  -0.058340   0.112702   0.072982
    29  H   -0.000513   0.000000  -0.000000   0.000617  -0.006276   0.003739
    30  H    0.000224  -0.000000   0.000001  -0.000255   0.002407  -0.007933
    31  H   -0.000330  -0.000000  -0.000006  -0.000515   0.017401   0.030960
    32  H   -0.002619  -0.000001  -0.000011  -0.015348   0.025138  -0.114606
    33  H   -0.000158   0.000000  -0.000000  -0.000048   0.000289  -0.000014
    34  H    0.000000  -0.000000   0.000000   0.000000  -0.000001  -0.000001
    35  H    0.000000  -0.000000  -0.000000  -0.000000  -0.000000   0.000000
    36  H   -0.000000  -0.000000  -0.000000  -0.000000   0.000001  -0.000000
    37  H    0.000000   0.000000   0.000000   0.000011   0.000168  -0.000099
    38  H   -0.002187   0.000000   0.000004   0.000002  -0.000097  -0.004664
    39  H    0.114012  -0.000658   0.000499  -0.005451   0.010844  -0.009728
    40  H    0.031436   0.000369  -0.001515   0.005817   0.001516   0.000067
    41  H    0.140546  -0.015767   0.004760  -0.026725  -0.003144   0.000140
    42  H   -0.120281   0.003494   0.000420   0.013862   0.000047  -0.000102
    43  H    0.069232  -0.071367   0.417947  -0.131710  -0.015883  -0.003449
    44  H   -0.042942  -0.042148   0.415043   0.053223   0.004631   0.003976
    45  H   -0.129994  -0.035238   0.406022   0.120559   0.038298   0.007084
    46  H   -0.028027  -0.015349   0.001668   0.370204  -0.062069  -0.040333
              25         26         27         28         29         30
     1  C   -0.078958  -0.005347  -0.036135   0.000664   0.422254   0.405187
     2  O    0.055513  -0.010403   0.068796  -0.001979  -0.056901  -0.050597
     3  C    0.923341  -0.246817  -0.257005  -0.000197   0.013874   0.005237
     4  O   -0.018870  -0.002765  -0.011589   0.000131  -0.000384   0.008567
     5  C   -0.769500   0.112362   0.199648  -0.002106   0.008153   0.005467
     6  C   -0.097065   0.010649   0.006856   0.000007  -0.002214  -0.002304
     7  C    0.016652   0.001460   0.004425  -0.000079  -0.000284   0.000563
     8  C    0.000268  -0.000055   0.001457  -0.000007  -0.000005   0.000305
     9  C   -0.001180   0.000183  -0.000094   0.000000   0.000003  -0.000217
    10  C    0.003480  -0.001086  -0.001091   0.000005   0.000084  -0.000233
    11  C   -0.055909   0.003587  -0.003248   0.000071   0.001266  -0.003319
    12  C   -0.243003   0.005856  -0.062868   0.001024  -0.000403   0.002171
    13  C   -1.857853   0.131165   0.053762   0.013558  -0.018051  -0.012464
    14  C    0.630513   0.040222  -0.994870   0.043382  -0.002860  -0.005564
    15  C    1.014009  -0.000752  -0.537486   0.005095  -0.001614  -0.000941
    16  C   -0.115624   0.003576  -0.280415   0.010640   0.000116  -0.000154
    17  O    0.005852  -0.000057   0.001644  -0.000014  -0.000000   0.000000
    18  C   -0.017061   0.000021   0.005350   0.000133  -0.000000   0.000000
    19  C   -0.509940   0.013368   0.303924   0.013786  -0.000513   0.000224
    20  O   -0.014097   0.000038   0.005844   0.000025   0.000000  -0.000000
    21  C   -0.011062   0.000175   0.034014  -0.001478  -0.000000   0.000001
    22  C   -2.442895   0.085316   1.026136  -0.058340   0.000617  -0.000255
    23  C    0.785162  -0.042601  -4.070247   0.112702  -0.006276   0.002407
    24  C   -7.017556   0.234532  -0.646158   0.072982   0.003739  -0.007933
    25  C   18.438921  -0.215526  -1.929272   0.110817   0.001041   0.007906
    26  N   -0.215526   7.286898   0.040724  -0.003629  -0.000179  -0.001194
    27  C   -1.929272   0.040724  13.586627  -0.114123   0.004202   0.003268
    28  N    0.110817  -0.003629  -0.114123   7.303979   0.000050  -0.000031
    29  H    0.001041  -0.000179   0.004202   0.000050   0.536534  -0.028798
    30  H    0.007906  -0.001194   0.003268  -0.000031  -0.028798   0.567867
    31  H   -0.032566   0.006905  -0.032647   0.000665  -0.027043  -0.042907
    32  H    0.093414   0.012483  -0.037367   0.000149   0.000052  -0.001831
    33  H    0.000025  -0.000002  -0.000002   0.000000   0.000000  -0.000000
    34  H    0.000000  -0.000000  -0.000000   0.000000   0.000000  -0.000000
    35  H   -0.000000   0.000000   0.000000   0.000000  -0.000000  -0.000000
    36  H    0.000001  -0.000000   0.000000  -0.000000   0.000000  -0.000000
    37  H   -0.000064   0.000008  -0.000008   0.000000  -0.000000   0.000035
    38  H   -0.000531  -0.000050  -0.000619   0.000000  -0.000000   0.000000
    39  H    0.003892  -0.000086  -0.000164  -0.000001  -0.000000  -0.000000
    40  H    0.000034  -0.000000   0.000010  -0.000000  -0.000000  -0.000000
    41  H   -0.000111   0.000000  -0.000086  -0.000002  -0.000000  -0.000000
    42  H   -0.000055   0.000000  -0.000121   0.000001   0.000000   0.000000
    43  H   -0.000243   0.000000   0.000480   0.000012   0.000000  -0.000000
    44  H   -0.000000   0.000000   0.004654  -0.000097   0.000000   0.000000
    45  H    0.001664  -0.000000  -0.005296   0.000195  -0.000000  -0.000000
    46  H    0.008913  -0.000111   0.074343  -0.000273   0.000000  -0.000000
              31         32         33         34         35         36
     1  C    0.413297  -0.033788   0.000018   0.000000  -0.000000   0.000008
     2  O   -0.040476  -0.057692   0.000007  -0.000000   0.000000   0.000001
     3  C   -0.070541   0.023028   0.006422   0.000373  -0.000092   0.000681
     4  O   -0.001870  -0.057109  -0.000152   0.000030   0.000004   0.000352
     5  C   -0.013998   0.030163   0.028072   0.000965  -0.000585  -0.006568
     6  C    0.006079   0.023721   0.084473  -0.009733   0.005357   0.014371
     7  C    0.000656   0.017748   0.114252   0.031141   0.015119  -0.012256
     8  C   -0.000026   0.000724   0.025903   0.268470  -0.002279   0.009396
     9  C    0.000021   0.000242  -0.007189   0.025671   0.266824   0.011708
    10  C   -0.000263  -0.000597  -0.001190   0.003661   0.006618   0.271611
    11  C   -0.002495  -0.014337   0.043481  -0.007568   0.020142   0.024354
    12  C    0.002513   0.009852  -0.000909  -0.000165  -0.000018  -0.001133
    13  C    0.038209   0.188186   0.000504  -0.000395   0.000004  -0.000206
    14  C    0.020725   0.102915   0.001843  -0.000085   0.000003  -0.000010
    15  C    0.004036   0.055906  -0.000481  -0.000000   0.000001   0.000001
    16  C    0.000299   0.003621  -0.000405  -0.000005   0.000000   0.000000
    17  O   -0.000000  -0.000003   0.000001  -0.000000  -0.000000   0.000000
    18  C   -0.000000  -0.000024   0.000005   0.000000  -0.000000   0.000000
    19  C   -0.000330  -0.002619  -0.000158   0.000000   0.000000  -0.000000
    20  O   -0.000000  -0.000001   0.000000  -0.000000  -0.000000  -0.000000
    21  C   -0.000006  -0.000011  -0.000000   0.000000  -0.000000  -0.000000
    22  C   -0.000515  -0.015348  -0.000048   0.000000  -0.000000  -0.000000
    23  C    0.017401   0.025138   0.000289  -0.000001  -0.000000   0.000001
    24  C    0.030960  -0.114606  -0.000014  -0.000001   0.000000  -0.000000
    25  C   -0.032566   0.093414   0.000025   0.000000  -0.000000   0.000001
    26  N    0.006905   0.012483  -0.000002  -0.000000   0.000000  -0.000000
    27  C   -0.032647  -0.037367  -0.000002  -0.000000   0.000000   0.000000
    28  N    0.000665   0.000149   0.000000   0.000000   0.000000  -0.000000
    29  H   -0.027043   0.000052   0.000000   0.000000  -0.000000   0.000000
    30  H   -0.042907  -0.001831  -0.000000  -0.000000  -0.000000  -0.000000
    31  H    0.563382   0.009864  -0.000000   0.000000  -0.000000   0.000000
    32  H    0.009864   0.581652  -0.000000   0.000000   0.000000  -0.000000
    33  H   -0.000000  -0.000000   0.587601  -0.005783  -0.000155   0.000015
    34  H    0.000000   0.000000  -0.005783   0.563315  -0.005419  -0.000156
    35  H   -0.000000   0.000000  -0.000155  -0.005419   0.565167  -0.005414
    36  H    0.000000  -0.000000   0.000015  -0.000156  -0.005414   0.562176
    37  H    0.000001  -0.000014  -0.000136   0.000014  -0.000145  -0.005521
    38  H    0.000000  -0.000128  -0.000185  -0.000000  -0.000000   0.000000
    39  H   -0.000000  -0.000002  -0.000012  -0.000000   0.000000   0.000000
    40  H    0.000000   0.000000  -0.000000   0.000000   0.000000  -0.000000
    41  H   -0.000000  -0.000000   0.000000  -0.000000   0.000000  -0.000000
    42  H    0.000000   0.000000   0.000000   0.000000  -0.000000  -0.000000
    43  H   -0.000000   0.000000   0.000000   0.000000   0.000000   0.000000
    44  H   -0.000000   0.000000  -0.000000  -0.000000   0.000000   0.000000
    45  H   -0.000000  -0.000000  -0.000000  -0.000000   0.000000   0.000000
    46  H   -0.000000   0.000000  -0.000000  -0.000000   0.000000  -0.000000
              37         38         39         40         41         42
     1  C   -0.000416   0.000691   0.000045  -0.000000   0.000000  -0.000000
     2  O   -0.000245  -0.000256  -0.000171  -0.000000  -0.000000   0.000000
     3  C    0.011753   0.037522  -0.001017   0.000016   0.000144  -0.000357
     4  O   -0.001062   0.006985  -0.000332   0.000000  -0.000000  -0.000000
     5  C    0.029460  -0.036800   0.002661  -0.000053   0.000016  -0.000041
     6  C    0.010475   0.008063  -0.003272  -0.000010   0.000001  -0.000008
     7  C    0.043776  -0.024401   0.001250   0.000006  -0.000000   0.000009
     8  C   -0.019849   0.000916   0.000249   0.000000   0.000000  -0.000000
     9  C    0.003349  -0.001956  -0.000022   0.000000  -0.000000   0.000000
    10  C   -0.011815   0.000716   0.000051   0.000000   0.000000  -0.000000
    11  C    0.208997   0.003638  -0.000377  -0.000000   0.000000  -0.000000
    12  C    0.027403   0.360338  -0.003702  -0.000006  -0.000401   0.000644
    13  C    0.001152  -0.043180  -0.049437  -0.000204   0.000881  -0.002038
    14  C    0.000870  -0.014296  -0.128988  -0.004352   0.009215   0.000180
    15  C   -0.000120   0.020259   0.257470  -0.018018  -0.077027   0.117036
    16  C   -0.000021  -0.002443   0.115252  -0.015571  -0.048696  -0.004670
    17  O   -0.000000  -0.000118  -0.009311  -0.049903  -0.037056  -0.061690
    18  C    0.000000  -0.000047   0.003942   0.411816   0.404942   0.403207
    19  C    0.000000  -0.002187   0.114012   0.031436   0.140546  -0.120281
    20  O    0.000000   0.000000  -0.000658   0.000369  -0.015767   0.003494
    21  C    0.000000   0.000004   0.000499  -0.001515   0.004760   0.000420
    22  C    0.000011   0.000002  -0.005451   0.005817  -0.026725   0.013862
    23  C    0.000168  -0.000097   0.010844   0.001516  -0.003144   0.000047
    24  C   -0.000099  -0.004664  -0.009728   0.000067   0.000140  -0.000102
    25  C   -0.000064  -0.000531   0.003892   0.000034  -0.000111  -0.000055
    26  N    0.000008  -0.000050  -0.000086  -0.000000   0.000000   0.000000
    27  C   -0.000008  -0.000619  -0.000164   0.000010  -0.000086  -0.000121
    28  N    0.000000   0.000000  -0.000001  -0.000000  -0.000002   0.000001
    29  H   -0.000000  -0.000000  -0.000000  -0.000000  -0.000000   0.000000
    30  H    0.000035   0.000000  -0.000000  -0.000000  -0.000000   0.000000
    31  H    0.000001   0.000000  -0.000000   0.000000  -0.000000   0.000000
    32  H   -0.000014  -0.000128  -0.000002   0.000000  -0.000000   0.000000
    33  H   -0.000136  -0.000185  -0.000012  -0.000000   0.000000   0.000000
    34  H    0.000014  -0.000000  -0.000000   0.000000  -0.000000   0.000000
    35  H   -0.000145  -0.000000   0.000000   0.000000   0.000000  -0.000000
    36  H   -0.005521   0.000000   0.000000  -0.000000  -0.000000  -0.000000
    37  H    0.551051  -0.000003  -0.000000   0.000000  -0.000000  -0.000000
    38  H   -0.000003   0.563999  -0.001100  -0.000000   0.000000   0.000000
    39  H   -0.000000  -0.001100   0.580871  -0.000035   0.000008  -0.000005
    40  H    0.000000  -0.000000  -0.000035   0.549619  -0.028942  -0.029950
    41  H   -0.000000   0.000000   0.000008  -0.028942   0.565206  -0.043947
    42  H   -0.000000   0.000000  -0.000005  -0.029950  -0.043947   0.585199
    43  H    0.000000   0.000000  -0.000000  -0.000001  -0.000082   0.000000
    44  H    0.000000  -0.000000   0.000000   0.000000  -0.000010   0.000000
    45  H    0.000000  -0.000000   0.000000   0.000000   0.000013   0.000001
    46  H   -0.000000   0.000000   0.000013  -0.000000   0.000012  -0.000001
              43         44         45         46
     1  C    0.000000  -0.000008   0.000003  -0.000192
     2  O    0.000000   0.000002  -0.000000   0.000009
     3  C   -0.000016  -0.000069   0.000134   0.001881
     4  O    0.000000  -0.000000   0.000000  -0.000002
     5  C    0.000006  -0.000001  -0.000025  -0.000045
     6  C    0.000000  -0.000001  -0.000000   0.000004
     7  C   -0.000000   0.000000  -0.000000  -0.000000
     8  C   -0.000000   0.000000  -0.000000   0.000000
     9  C    0.000000  -0.000000  -0.000000  -0.000000
    10  C   -0.000000  -0.000000   0.000000   0.000000
    11  C    0.000000  -0.000000   0.000000   0.000002
    12  C    0.000043  -0.000102  -0.000092   0.001027
    13  C    0.000373  -0.000661  -0.000710  -0.012300
    14  C    0.003207  -0.000416  -0.006386   0.013454
    15  C    0.011492  -0.006357  -0.003118  -0.006735
    16  C    0.081595  -0.032319  -0.033199   0.000835
    17  O   -0.000533  -0.000068   0.000113  -0.000614
    18  C    0.000562   0.000480  -0.001690  -0.000238
    19  C    0.069232  -0.042942  -0.129994  -0.028027
    20  O   -0.071367  -0.042148  -0.035238  -0.015349
    21  C    0.417947   0.415043   0.406022   0.001668
    22  C   -0.131710   0.053223   0.120559   0.370204
    23  C   -0.015883   0.004631   0.038298  -0.062069
    24  C   -0.003449   0.003976   0.007084  -0.040333
    25  C   -0.000243  -0.000000   0.001664   0.008913
    26  N    0.000000   0.000000  -0.000000  -0.000111
    27  C    0.000480   0.004654  -0.005296   0.074343
    28  N    0.000012  -0.000097   0.000195  -0.000273
    29  H    0.000000   0.000000  -0.000000   0.000000
    30  H   -0.000000   0.000000  -0.000000  -0.000000
    31  H   -0.000000  -0.000000  -0.000000  -0.000000
    32  H    0.000000   0.000000  -0.000000   0.000000
    33  H    0.000000  -0.000000  -0.000000  -0.000000
    34  H    0.000000  -0.000000  -0.000000  -0.000000
    35  H    0.000000   0.000000   0.000000   0.000000
    36  H    0.000000   0.000000   0.000000  -0.000000
    37  H    0.000000   0.000000   0.000000  -0.000000
    38  H    0.000000  -0.000000  -0.000000   0.000000
    39  H   -0.000000   0.000000   0.000000   0.000013
    40  H   -0.000001   0.000000   0.000000  -0.000000
    41  H   -0.000082  -0.000010   0.000013   0.000012
    42  H    0.000000   0.000000   0.000001  -0.000001
    43  H    0.538887  -0.026436  -0.029150   0.000126
    44  H   -0.026436   0.549827  -0.039356  -0.000926
    45  H   -0.029150  -0.039356   0.550785  -0.000308
    46  H    0.000126  -0.000926  -0.000308   0.548121
 Mulliken charges:
               1
     1  C   -0.102214
     2  O   -0.208524
     3  C    0.275944
     4  O   -0.303588
     5  C    0.185337
     6  C    0.320019
     7  C   -0.527223
     8  C   -0.255242
     9  C   -0.130436
    10  C   -0.190883
    11  C    0.135629
    12  C   -0.343279
    13  C    0.056088
    14  C    0.386980
    15  C   -0.173898
    16  C   -0.258385
    17  O   -0.369066
    18  C   -0.169762
    19  C    0.082320
    20  O   -0.370605
    21  C   -0.143523
    22  C   -0.412008
    23  C    1.176833
    24  C    0.773938
    25  C   -0.672477
    26  N   -0.458868
    27  C   -0.405253
    28  N   -0.507716
    29  H    0.153538
    30  H    0.149535
    31  H    0.150670
    32  H    0.156616
    33  H    0.123910
    34  H    0.135671
    35  H    0.134869
    36  H    0.136590
    37  H    0.150996
    38  H    0.129929
    39  H    0.122811
    40  H    0.147856
    41  H    0.156113
    42  H    0.139167
    43  H    0.154908
    44  H    0.160079
    45  H    0.159695
    46  H    0.146910
 Sum of Mulliken charges =  -0.00000
 Mulliken charges with hydrogens summed into heavy atoms:
               1
     1  C    0.351528
     2  O   -0.208524
     3  C    0.432560
     4  O   -0.303588
     5  C    0.185337
     6  C    0.320019
     7  C   -0.403313
     8  C   -0.119570
     9  C    0.004433
    10  C   -0.054293
    11  C    0.286625
    12  C   -0.213350
    13  C    0.056088
    14  C    0.386980
    15  C   -0.051087
    16  C   -0.258385
    17  O   -0.369066
    18  C    0.273374
    19  C    0.082320
    20  O   -0.370605
    21  C    0.331159
    22  C   -0.265098
    23  C    1.176833
    24  C    0.773938
    25  C   -0.672477
    26  N   -0.458868
    27  C   -0.405253
    28  N   -0.507716
 Electronic spatial extent (au):  <R**2>=          12890.0190
 Charge=             -0.0000 electrons
 Dipole moment (field-independent basis, Debye):
    X=              4.1462    Y=              6.3913    Z=             -2.2989  Tot=              7.9577
 Quadrupole moment (field-independent basis, Debye-Ang):
   XX=           -128.4918   YY=           -173.2695   ZZ=           -172.9195
   XY=            -17.0173   XZ=              1.3214   YZ=             21.1476
 Traceless Quadrupole moment (field-independent basis, Debye-Ang):
   XX=             29.7352   YY=            -15.0426   ZZ=            -14.6926
   XY=            -17.0173   XZ=              1.3214   YZ=             21.1476
 Octapole moment (field-independent basis, Debye-Ang**2):
  XXX=             98.1936  YYY=            117.4073  ZZZ=            -47.8369  XYY=             89.2954
  XXY=            149.1643  XXZ=            -45.1632  XZZ=            -26.4141  YZZ=             21.4441
  YYZ=            -28.1282  XYZ=              2.9906
 Hexadecapole moment (field-independent basis, Debye-Ang**3):
 XXXX=         -10368.0751 YYYY=          -4455.5997 ZZZZ=           -954.6561 XXXY=           -458.7946
 XXXZ=            128.8028 YYYX=           -490.8109 YYYZ=            293.2609 ZZZX=             27.8477
 ZZZY=            117.9142 XXYY=          -2943.7363 XXZZ=          -2278.1463 YYZZ=           -932.2400
 XXYZ=            138.6130 YYXZ=            -23.8538 ZZXY=            -60.4320
 N-N= 2.436485039245D+03 E-N=-7.800376602715D+03  KE= 1.247795697925D+03
 Unable to Open any file for archive entry.
 1\1\GINC-N2\SP\RB3LYP TD-FC\6-31+G(d,p)\C22H18N2O4\HPCMGAC201\29-Jul-2
 025\0\\# td=(50-50,nstates=3) b3lyp/6-31+g(d,p) geom=connectivity\\Tit
 le Card Required\\0,1\C,0,0.776751,3.251283,1.746381\O,0,0.476606,1.89
 5522,1.384503\C,0,1.04691,1.47426,0.205411\O,0,2.48585,1.196702,0.3912
 72\C,0,2.723712,-0.063342,-0.009925\C,0,4.109016,-0.517115,0.004501\C,
 0,4.450954,-1.810746,-0.436955\C,0,5.776614,-2.2335,-0.416116\C,0,6.78
 1741,-1.374425,0.043493\C,0,6.452215,-0.088656,0.482094\C,0,5.12665,0.
 340807,0.463961\C,0,1.573463,-0.725325,-0.38589\C,0,0.462883,0.14215,-
 0.246704\C,0,-0.897313,-0.209604,-0.332356\C,0,-1.208299,-1.618594,-0.
 281547\C,0,-2.441428,-2.098434,0.043122\O,0,-2.625208,-3.445465,0.2167
 48\C,0,-3.508066,-4.088694,-0.715674\C,0,-3.494004,-1.157566,0.351325\
 O,0,-4.652891,-1.706542,0.775245\C,0,-5.723739,-0.838826,1.15931\C,0,-
 3.281254,0.189651,0.173525\C,0,-2.03472,0.707088,-0.299067\C,0,-2.0181
 09,2.039898,-0.786669\C,0,-1.019359,2.563407,-1.63502\N,0,-0.191852,3.
 003688,-2.336071\C,0,-3.127786,2.902081,-0.55796\N,0,-4.046516,3.59351
 7,-0.352554\H,0,0.163688,3.471511,2.620752\H,0,1.836008,3.361699,2.001
 541\H,0,0.515845,3.935942,0.93084\H,0,1.036695,2.251504,-0.56857\H,0,3
 .681884,-2.485028,-0.798924\H,0,6.028426,-3.232103,-0.759678\H,0,7.815
 472,-1.706597,0.057813\H,0,7.229275,0.580869,0.838035\H,0,4.867419,1.3
 37536,0.801859\H,0,1.546736,-1.747574,-0.728138\H,0,-0.419126,-2.35106
 5,-0.392868\H,0,-3.51449,-5.144469,-0.440051\H,0,-4.521624,-3.68387,-0
 .646898\H,0,-3.127942,-3.978338,-1.738928\H,0,-6.516875,-1.495088,1.51
 6951\H,0,-5.408263,-0.163937,1.962086\H,0,-6.082185,-0.255114,0.304296
 \H,0,-4.098211,0.88716,0.302677\\Version=ES64L-G16RevC.02\State=1-A\HF
 =-1259.5279752\RMSD=5.285e-09\PG=C01 [X(C22H18N2O4)]\\@
 The archive entry for this job was punched.


 Everywhere is walking distance if you have the time.
                                    -- Steven Wright
 Job cpu time:       0 days  2 hours  9 minutes 45.2 seconds.
 Elapsed time:       0 days  0 hours 16 minutes 27.6 seconds.
 File lengths (MBytes):  RWF=   2082 Int=      0 D2E=      0 Chk=     99 Scr=      2
 Normal termination of Gaussian 16 at Tue Jul 29 02:20:21 2025.
