 Entering Gaussian System, Link 0=g16
 Input=M1023e.gjf
 Output=M1023e.log
 Initial command:
 /hpc/softwares/Gaussian/g16/l1.exe "/hpc/home/hpcmgac13/pbs.13256.admin1.x8z/Gau-3966159.inp" -scrdir="/hpc/home/hpcmgac13/pbs.13256.admin1.x8z/"
 Default linda workers: n1
 Default is to use   8 SMP processors on each worker.
 Entering Link 1 = /hpc/softwares/Gaussian/g16/l1.exe PID=   3966160.
  
 Copyright (c) 1988-2021, Gaussian, Inc.  All Rights Reserved.
  
 This is part of the Gaussian(R) 16 program.  It is based on
 the Gaussian(R) 09 system (copyright 2009, Gaussian, Inc.),
 the Gaussian(R) 03 system (copyright 2003, Gaussian, Inc.),
 the Gaussian(R) 98 system (copyright 1998, Gaussian, Inc.),
 the Gaussian(R) 94 system (copyright 1995, Gaussian, Inc.),
 the Gaussian 92(TM) system (copyright 1992, Gaussian, Inc.),
 the Gaussian 90(TM) system (copyright 1990, Gaussian, Inc.),
 the Gaussian 88(TM) system (copyright 1988, Gaussian, Inc.),
 the Gaussian 86(TM) system (copyright 1986, Carnegie Mellon
 University), and the Gaussian 82(TM) system (copyright 1983,
 Carnegie Mellon University). Gaussian is a federally registered
 trademark of Gaussian, Inc.
  
 This software contains proprietary and confidential information,
 including trade secrets, belonging to Gaussian, Inc.
  
 This software is provided under written license and may be
 used, copied, transmitted, or stored only in accord with that
 written license.
  
 The following legend is applicable only to US Government
 contracts under FAR:
  
                    RESTRICTED RIGHTS LEGEND
  
 Use, reproduction and disclosure by the US Government is
 subject to restrictions as set forth in subparagraphs (a)
 and (c) of the Commercial Computer Software - Restricted
 Rights clause in FAR 52.227-19.
  
 Gaussian, Inc.
 340 Quinnipiac St., Bldg. 40, Wallingford CT 06492
  
  
 ---------------------------------------------------------------
 Warning -- This program may not be used in any manner that
 competes with the business of Gaussian, Inc. or will provide
 assistance to any competitor of Gaussian, Inc.  The licensee
 of this program is prohibited from giving any competitor of
 Gaussian, Inc. access to this program.  By using this program,
 the user acknowledges that Gaussian, Inc. is engaged in the
 business of creating and licensing software in the field of
 computational chemistry and represents and warrants to the
 licensee that it is not a competitor of Gaussian, Inc. and that
 it will not use this program in any manner prohibited above.
 ---------------------------------------------------------------
  

 Cite this work as:
 Gaussian 16, Revision C.02,
 M. J. Frisch, G. W. Trucks, H. B. Schlegel, G. E. Scuseria, 
 M. A. Robb, J. R. Cheeseman, G. Scalmani, V. Barone, 
 G. A. Petersson, H. Nakatsuji, X. Li, M. Caricato, A. V. Marenich, 
 J. Bloino, B. G. Janesko, R. Gomperts, B. Mennucci, H. P. Hratchian, 
 J. V. Ortiz, A. F. Izmaylov, J. L. Sonnenberg, D. Williams-Young, 
 F. Ding, F. Lipparini, F. Egidi, J. Goings, B. Peng, A. Petrone, 
 T. Henderson, D. Ranasinghe, V. G. Zakrzewski, J. Gao, N. Rega, 
 G. Zheng, W. Liang, M. Hada, M. Ehara, K. Toyota, R. Fukuda, 
 J. Hasegawa, M. Ishida, T. Nakajima, Y. Honda, O. Kitao, H. Nakai, 
 T. Vreven, K. Throssell, J. A. Montgomery, Jr., J. E. Peralta, 
 F. Ogliaro, M. J. Bearpark, J. J. Heyd, E. N. Brothers, K. N. Kudin, 
 V. N. Staroverov, T. A. Keith, R. Kobayashi, J. Normand, 
 K. Raghavachari, A. P. Rendell, J. C. Burant, S. S. Iyengar, 
 J. Tomasi, M. Cossi, J. M. Millam, M. Klene, C. Adamo, R. Cammi, 
 J. W. Ochterski, R. L. Martin, K. Morokuma, O. Farkas, 
 J. B. Foresman, and D. J. Fox, Gaussian, Inc., Wallingford CT, 2019.
 
 ******************************************
 Gaussian 16:  ES64L-G16RevC.02  7-Dec-2021
                13-Aug-2025 
 ******************************************
 SetLPE:    new flags="-opt 'Tsnet.Node.lindarsharg: ssh'  -nodelist 'n1' -env GAUSS_MDEF=2147483648 -env GAUSS_EXEDIR="/hpc/softwares/Gaussian/g16/bsd:/hpc/softwares/Gaussian/g16""
 Will use up to    1 processors via Linda.
 ----------------------------------------------------------
 # td=(50-50,nstates=3) b3lyp/6-31+g(d,p) geom=connectivity
 ----------------------------------------------------------
 1/38=1,57=2,172=1/1;
 2/12=2,17=6,18=5,40=1/2;
 3/5=1,6=6,7=111,11=9,25=1,30=1,74=-5/1,2,3,8;
 4//1;
 5/5=2,38=5/2;
 8/6=1,10=2,108=3/1;
 9/41=3,42=1,48=2,70=2/14;
 6/7=2,8=2,9=2,10=2/1;
 99/5=1,9=1/99;
 -------------------
 Title Card Required
 -------------------
 Symbolic Z-matrix:
 Charge =  0 Multiplicity = 1
 C                     2.59546   2.82402   0.17327 
 N                     2.46669   1.37468   0.28718 
 C                     3.70561   0.60196   0.20864 
 C                     3.5055   -0.78421   0.79778 
 N                     2.41286  -1.48152   0.12076 
 C                     2.33479  -2.91973   0.36954 
 C                     1.27685  -0.75227  -0.12309 
 C                     0.00855  -1.14649  -0.48604 
 C                    -0.41964  -2.44679  -0.83819 
 N                    -0.77075  -3.49912  -1.2049 
 C                    -0.89652   0.06465  -0.64382 
 C                    -2.09562   0.08087   0.33861 
 C                    -3.11405   1.23879   0.11756 
 C                    -4.47924   0.64391   0.56012 
 C                    -4.15081  -0.82521   0.94459 
 N                    -2.87696  -1.16425   0.29466 
 C                     0.07132   1.2171   -0.41905 
 C                    -0.31747   2.56353  -0.59101 
 N                    -0.67681   3.66295  -0.76079 
 C                     1.31427   0.73112  -0.07243 
 H                     1.73188   3.31897   0.61627 
 H                     3.48892   3.13487   0.71988 
 H                     2.68685   3.15261  -0.87133 
 H                     4.47193   1.12821   0.78481 
 H                     4.059     0.52267  -0.83211 
 H                     3.31557  -0.70661   1.88115 
 H                     4.41989  -1.36805   0.65789 
 H                     3.35019  -3.32192   0.38869 
 H                     1.84618  -3.14092   1.3298 
 H                     1.78255  -3.42127  -0.4234 
 H                    -1.29607   0.10507  -1.66956 
 H                    -1.68107   0.15708   1.35437 
 H                    -2.84564   2.13729   0.67835 
 H                    -3.13853   1.52229  -0.94088 
 H                    -5.2017    0.67902  -0.26216 
 H                    -4.91894   1.195     1.39783 
 H                    -4.01454  -0.91214   2.03026 
 H                    -4.9261   -1.53974   0.65471 
 H                    -3.04964  -1.43902  -0.67198 
 
                          Input orientation:                          
 ---------------------------------------------------------------------
 Center     Atomic      Atomic             Coordinates (Angstroms)
 Number     Number       Type             X           Y           Z
 ---------------------------------------------------------------------
      1          6           0        2.595456    2.824018    0.173274
      2          7           0        2.466693    1.374679    0.287180
      3          6           0        3.705614    0.601963    0.208642
      4          6           0        3.505504   -0.784206    0.797784
      5          7           0        2.412863   -1.481524    0.120759
      6          6           0        2.334789   -2.919733    0.369537
      7          6           0        1.276850   -0.752270   -0.123085
      8          6           0        0.008550   -1.146491   -0.486035
      9          6           0       -0.419644   -2.446791   -0.838188
     10          7           0       -0.770751   -3.499122   -1.204903
     11          6           0       -0.896519    0.064648   -0.643819
     12          6           0       -2.095618    0.080873    0.338612
     13          6           0       -3.114049    1.238789    0.117557
     14          6           0       -4.479244    0.643905    0.560117
     15          6           0       -4.150812   -0.825208    0.944594
     16          7           0       -2.876956   -1.164246    0.294660
     17          6           0        0.071317    1.217100   -0.419046
     18          6           0       -0.317467    2.563534   -0.591013
     19          7           0       -0.676805    3.662947   -0.760785
     20          6           0        1.314266    0.731115   -0.072426
     21          1           0        1.731882    3.318965    0.616269
     22          1           0        3.488919    3.134865    0.719882
     23          1           0        2.686854    3.152606   -0.871328
     24          1           0        4.471925    1.128213    0.784808
     25          1           0        4.059005    0.522673   -0.832111
     26          1           0        3.315574   -0.706613    1.881149
     27          1           0        4.419894   -1.368052    0.657887
     28          1           0        3.350185   -3.321917    0.388690
     29          1           0        1.846179   -3.140921    1.329801
     30          1           0        1.782548   -3.421270   -0.423403
     31          1           0       -1.296065    0.105069   -1.669561
     32          1           0       -1.681074    0.157075    1.354371
     33          1           0       -2.845636    2.137287    0.678354
     34          1           0       -3.138534    1.522291   -0.940882
     35          1           0       -5.201697    0.679020   -0.262158
     36          1           0       -4.918941    1.195002    1.397825
     37          1           0       -4.014543   -0.912138    2.030262
     38          1           0       -4.926100   -1.539742    0.654713
     39          1           0       -3.049639   -1.439024   -0.671975
 ---------------------------------------------------------------------
                    Distance matrix (angstroms):
                    1          2          3          4          5
     1  C    0.000000
     2  N    1.459499   0.000000
     3  C    2.484196   1.462253   0.000000
     4  C    3.773259   2.449618   1.519407   0.000000
     5  N    4.309732   2.861554   2.453538   1.462354   0.000000
     6  C    5.753012   4.297227   3.782511   2.472740   1.461654
     7  C    3.823138   2.471428   2.800515   2.411622   1.371786
     8  C    4.784528   3.605083   4.148247   3.742744   2.502232
     9  C    6.155917   4.919454   5.235314   4.565893   3.142358
    10  N    7.294712   6.038319   6.233366   5.446823   3.995432
    11  C    4.525003   3.727484   4.711160   4.709202   3.731921
    12  C    5.436760   4.742495   5.826038   5.686103   4.776499
    13  C    5.925749   5.584973   6.849938   6.955120   6.160103
    14  C    7.413091   6.989604   8.192508   8.114936   7.225761
    15  C    7.708691   7.004503   8.018845   7.657833   6.647653
    16  N    6.772612   5.916146   6.815946   6.413529   5.302178
    17  C    3.050296   2.502281   3.739051   4.156867   3.613419
    18  C    3.022765   3.152165   4.546690   5.267943   4.931918
    19  N    3.504848   4.026907   5.432772   6.300636   6.065373
    20  C    2.466183   1.368057   2.411270   2.802675   2.477904
    21  H    1.089485   2.104399   3.382880   4.473779   4.873803
    22  H    1.092558   2.080969   2.593051   3.919880   4.777854
    23  H    1.098871   2.133456   2.951269   4.353689   4.747048
    24  H    2.602088   2.080705   1.093681   2.142775   3.389900
    25  H    2.906710   2.124661   1.101970   2.161216   2.763069
    26  H    3.987576   2.755560   2.159116   1.102621   2.124699
    27  H    4.597486   3.387476   2.143123   1.093872   2.080758
    28  H    6.195848   4.780050   3.944056   2.575162   2.082644
    29  H    6.122048   4.675761   4.327086   2.930957   2.129909
    30  H    6.326173   4.896336   4.503784   3.378458   2.110930
    31  H    5.092412   4.427086   5.365757   5.471167   4.413465
    32  H    5.176513   4.452575   5.525127   5.300603   4.578987
    33  H    5.507467   5.381025   6.745126   6.991878   6.407692
    34  H    5.984520   5.740078   7.000769   7.244731   6.400625
    35  H    8.098531   7.719451   8.920077   8.892686   7.924399
    36  H    7.785845   7.470837   8.726328   8.674594   7.908858
    37  H    7.816608   7.090436   8.075372   7.621448   6.729186
    38  H    8.709075   7.955018   8.904626   8.466596   7.358592
    39  H    7.124259   6.266324   7.111579   6.749732   5.519888
                    6          7          8          9         10
     6  C    0.000000
     7  C    2.461668   0.000000
     8  C    3.047586   1.376854   0.000000
     9  C    3.044532   2.502172   1.413556   0.000000
    10  N    3.529721   3.592798   2.580495   1.168399   0.000000
    11  C    4.513842   2.379507   1.520166   2.563692   3.609860
    12  C    5.350990   3.504402   2.571767   3.253127   4.117533
    13  C    6.859055   4.827237   3.975488   4.664415   5.448646
    14  C    7.692001   5.962272   4.943708   5.290370   5.833771
    15  C    6.839645   5.532158   4.410240   4.441785   4.816115
    16  N    5.499966   4.195037   2.989305   2.994436   3.483739
    17  C    4.781062   2.327943   2.365373   3.720325   4.854833
    18  C    6.166306   3.708822   3.725801   5.017459   6.110493
    19  N    7.326596   4.870069   4.865788   6.115637   7.176441
    20  C    3.816476   1.484721   2.324085   3.700260   4.850227
    21  H    6.272617   4.162770   4.911746   6.323642   7.487733
    22  H    6.173566   4.551226   5.647762   6.989945   8.115379
    23  H    6.207817   4.218535   5.079764   6.403489   7.504118
    24  H    4.596267   3.816935   5.168272   6.272337   7.270270
    25  H    4.033242   3.141430   4.394549   5.373644   6.296058
    26  H    2.853911   2.859272   4.090655   4.937091   5.832656
    27  H    2.615057   3.296639   4.562631   5.179097   5.912211
    28  H    1.092313   3.341215   4.082174   4.059887   4.421884
    29  H    1.099896   2.853185   3.263724   3.211845   3.660786
    30  H    1.088698   2.733035   2.885414   2.443625   2.671355
    31  H    5.146887   3.121940   2.160823   2.823346   3.671792
    32  H    5.154008   3.429154   2.818015   3.630239   4.554816
    33  H    7.246076   5.097719   4.503929   5.403620   6.294514
    34  H    7.169801   5.033690   4.151316   4.812122   5.557940
    35  H    8.375481   6.636227   5.525331   5.741998   6.162704
    36  H    8.402679   6.670297   5.771628   6.205327   6.783544
    37  H    6.863123   5.715007   4.750995   4.848347   5.261270
    38  H    7.396365   6.300926   5.080032   4.833181   4.956235
    39  H    5.680608   4.414909   3.077770   2.821364   3.117907
                   11         12         13         14         15
    11  C    0.000000
    12  C    1.550249   0.000000
    13  C    2.622163   1.557831   0.000000
    14  C    3.823731   2.459216   1.553546   0.000000
    15  C    3.728984   2.326375   2.453355   1.553700   0.000000
    16  N    2.512579   1.470626   2.421189   2.430474   1.469718
    17  C    1.521636   2.561379   3.230320   4.689874   4.884354
    18  C    2.565642   3.192120   3.174570   4.725512   5.341928
    19  N    3.606898   4.006614   3.547983   5.031693   5.926262
    20  C    2.378705   3.495579   4.461368   5.828591   5.772655
    21  H    4.368855   5.021164   5.297065   6.762927   7.203336
    22  H    5.524308   6.376464   6.896165   8.349972   8.608029
    23  H    4.735801   5.811328   6.187977   7.726291   8.116296
    24  H    5.656177   6.665481   7.616065   8.967077   8.842679
    25  H    4.980207   6.280539   7.270997   8.651861   8.507324
    26  H    4.971120   5.681598   6.945135   8.020487   7.525830
    27  H    5.657854   6.682306   7.990486   9.124264   8.592664
    28  H    5.528959   6.421702   7.915799   8.778217   7.925121
    29  H    4.657600   5.186538   6.727203   7.411363   6.440094
    30  H    4.402000   5.280705   6.781257   7.530139   6.619344
    31  H    1.101552   2.161627   2.790014   3.923574   3.981055
    32  H    2.148682   1.099736   2.180191   2.949169   2.689313
    33  H    3.137361   2.215128   1.092629   2.216494   3.248191
    34  H    2.690651   2.191453   1.096023   2.195920   3.176551
    35  H    4.365510   3.219694   2.194493   1.095129   2.196204
    36  H    4.650364   3.214711   2.213287   1.094895   2.208323
    37  H    4.222191   2.744089   3.015927   2.190558   1.097634
    38  H    4.527447   3.276880   3.360402   2.230906   1.093463
    39  H    2.626356   2.059497   2.792524   2.810768   2.050036
                   16         17         18         19         20
    16  N    0.000000
    17  C    3.856488   0.000000
    18  C    4.607792   1.411953   0.000000
    19  N    5.408920   2.580434   1.169040   0.000000
    20  C    4.614487   1.378858   2.507837   3.610241   0.000000
    21  H    6.437702   2.871792   2.495604   2.795778   2.710290
    22  H    7.693343   4.081052   4.066133   4.452471   3.336897
    23  H    7.137977   3.285084   3.074334   3.403949   2.895835
    24  H    7.713732   4.563170   5.185683   5.943329   3.295959
    25  H    7.226539   4.068723   4.834951   5.682808   2.855549
    26  H    6.408885   4.417779   5.477630   6.481663   3.144638
    27  H    7.308727   5.172322   6.281696   7.300680   3.819003
    28  H    6.591030   5.657392   7.003572   8.144094   4.559020
    29  H    5.223674   5.020055   6.396225   7.551729   4.152329
    30  H    5.226925   4.943967   6.344764   7.506555   4.193420
    31  H    2.822860   2.161049   2.857441   3.723957   3.123556
    32  H    2.073405   2.709158   3.381566   4.215872   3.367096
    33  H    3.323902   3.249561   2.860877   3.017049   4.454860
    34  H    2.968580   3.266282   3.027377   3.267255   4.605171
    35  H    3.018625   5.302718   5.245497   5.443078   6.518933
    36  H    3.309490   5.310761   5.196337   5.361536   6.421036
    37  H    2.090449   5.217951   5.711370   6.313623   5.959680
    38  H    2.114149   5.807522   6.295094   6.864992   6.680396
    39  H    1.019660   4.106012   4.846833   5.627463   4.910461
                   21         22         23         24         25
    21  H    0.000000
    22  H    1.769691   0.000000
    23  H    1.775554   1.782014   0.000000
    24  H    3.512212   2.235435   3.166612   0.000000
    25  H    3.915681   3.091477   2.966628   1.775277   0.000000
    26  H    4.507026   4.016907   4.781735   2.430164   3.070116
    27  H    5.403265   4.598567   5.077231   2.500031   2.434168
    28  H    6.839007   6.466759   6.629261   4.606394   4.095565
    29  H    6.500178   6.515833   6.720133   5.041534   4.795037
    30  H    6.820136   6.870350   6.650884   5.421284   4.572088
    31  H    4.972184   6.146965   5.078218   6.351414   5.436220
    32  H    4.710691   5.999886   5.745062   6.255150   6.153281
    33  H    4.727990   6.412759   5.834452   7.387575   7.250003
    34  H    5.419752   7.020090   6.049621   7.813603   7.267437
    35  H    7.470975   9.084183   8.289690   9.740476   9.279542
    36  H    7.025347   8.655333   8.174924   9.411090   9.275136
    37  H    7.274820   8.625385   8.357637   8.816707   8.685277
    38  H    8.242405   9.626461   9.072155   9.770250   9.337897
    39  H    6.867385   8.100029   7.350521   8.080028   7.376091
                   26         27         28         29         30
    26  H    0.000000
    27  H    1.775780   0.000000
    28  H    3.011386   2.243732   0.000000
    29  H    2.896370   3.196645   1.783391   0.000000
    30  H    3.876918   3.512903   1.768291   1.776617   0.000000
    31  H    5.876528   6.345021   6.129296   5.422760   4.844155
    32  H    5.098033   6.327157   6.192697   4.828964   5.287883
    33  H    6.891661   8.066954   8.262869   7.092037   7.316523
    34  H    7.388327   8.248635   8.205948   7.193672   6.994543
    35  H    8.891437   9.879879   9.463920   8.173056   8.100497
    36  H    8.465045   9.712394   9.476252   8.035652   8.338872
    37  H    7.334514   8.557511   7.920922   6.309214   6.776613
    38  H    8.373974   9.347571   8.470172   6.991658   7.050421
    39  H    6.897159   7.587325   6.754853   5.556311   5.228874
                   31         32         33         34         35
    31  H    0.000000
    32  H    3.048787   0.000000
    33  H    3.470416   2.394670   0.000000
    34  H    2.436018   3.042399   1.756683   0.000000
    35  H    4.190962   3.909013   2.926112   2.329896   0.000000
    36  H    4.870528   3.400436   2.388333   2.957451   1.761173
    37  H    4.702502   2.654265   3.534543   3.939738   3.032541
    38  H    4.613546   3.728123   4.224859   3.888105   2.416508
    39  H    2.540556   2.920031   3.828186   2.974828   3.047198
                   36         37         38         39
    36  H    0.000000
    37  H    2.378645   0.000000
    38  H    2.833918   1.765491   0.000000
    39  H    3.836203   2.917316   2.300294   0.000000
 Stoichiometry    C15H19N5
 Framework group  C1[X(C15H19N5)]
 Deg. of freedom   111
 Full point group                 C1      NOp   1
 Largest Abelian subgroup         C1      NOp   1
 Largest concise Abelian subgroup C1      NOp   1
                         Standard orientation:                         
 ---------------------------------------------------------------------
 Center     Atomic      Atomic             Coordinates (Angstroms)
 Number     Number       Type             X           Y           Z
 ---------------------------------------------------------------------
      1          6           0        2.595456    2.824018    0.173274
      2          7           0        2.466693    1.374679    0.287180
      3          6           0        3.705614    0.601963    0.208642
      4          6           0        3.505504   -0.784206    0.797784
      5          7           0        2.412863   -1.481524    0.120759
      6          6           0        2.334789   -2.919733    0.369537
      7          6           0        1.276850   -0.752270   -0.123085
      8          6           0        0.008550   -1.146491   -0.486035
      9          6           0       -0.419644   -2.446791   -0.838188
     10          7           0       -0.770751   -3.499122   -1.204903
     11          6           0       -0.896519    0.064648   -0.643819
     12          6           0       -2.095618    0.080873    0.338612
     13          6           0       -3.114049    1.238789    0.117557
     14          6           0       -4.479244    0.643905    0.560117
     15          6           0       -4.150812   -0.825208    0.944594
     16          7           0       -2.876956   -1.164246    0.294660
     17          6           0        0.071317    1.217100   -0.419046
     18          6           0       -0.317467    2.563534   -0.591013
     19          7           0       -0.676805    3.662947   -0.760785
     20          6           0        1.314266    0.731115   -0.072426
     21          1           0        1.731882    3.318965    0.616269
     22          1           0        3.488919    3.134865    0.719882
     23          1           0        2.686854    3.152606   -0.871328
     24          1           0        4.471925    1.128213    0.784808
     25          1           0        4.059005    0.522673   -0.832111
     26          1           0        3.315574   -0.706613    1.881149
     27          1           0        4.419894   -1.368052    0.657887
     28          1           0        3.350185   -3.321917    0.388690
     29          1           0        1.846179   -3.140921    1.329801
     30          1           0        1.782548   -3.421270   -0.423403
     31          1           0       -1.296065    0.105069   -1.669561
     32          1           0       -1.681074    0.157075    1.354371
     33          1           0       -2.845636    2.137287    0.678354
     34          1           0       -3.138534    1.522291   -0.940882
     35          1           0       -5.201697    0.679020   -0.262158
     36          1           0       -4.918941    1.195002    1.397825
     37          1           0       -4.014543   -0.912138    2.030262
     38          1           0       -4.926100   -1.539742    0.654713
     39          1           0       -3.049639   -1.439024   -0.671975
 ---------------------------------------------------------------------
 Rotational constants (GHZ):           0.4775041           0.2871226           0.1932922
 Standard basis: 6-31+G(d,p) (6D, 7F)
 There are   475 symmetry adapted cartesian basis functions of A   symmetry.
 There are   475 symmetry adapted basis functions of A   symmetry.
   475 basis functions,   773 primitive gaussians,   475 cartesian basis functions
    72 alpha electrons       72 beta electrons
       nuclear repulsion energy      1555.8059984545 Hartrees.
 NAtoms=   39 NActive=   39 NUniq=   39 SFac= 1.00D+00 NAtFMM=   60 NAOKFM=F Big=F
 Integral buffers will be    131072 words long.
 Regular integral format.
 Two-electron integral symmetry is turned on.
 One-electron integrals computed using PRISM.
 NBasis=   475 RedAO= T EigKep=  1.07D-06  NBF=   475
 NBsUse=   473 1.00D-06 EigRej=  8.37D-07 NBFU=   473
 ExpMin= 4.38D-02 ExpMax= 4.17D+03 ExpMxC= 6.27D+02 IAcc=3 IRadAn=         5 AccDes= 0.00D+00
 Harris functional with IExCor=  402 and IRadAn=       5 diagonalized for initial guess.
 HarFok:  IExCor=  402 AccDes= 0.00D+00 IRadAn=         5 IDoV= 1 UseB2=F ITyADJ=14
 ICtDFT=  3500011 ScaDFX=  1.000000  1.000000  1.000000  1.000000
 FoFCou: FMM=F IPFlag=           0 FMFlag=      100000 FMFlg1=           0
         NFxFlg=           0 DoJE=T BraDBF=F KetDBF=T FulRan=T
         wScrn=  0.000000 ICntrl=       500 IOpCl=  0 I1Cent=   200000004 NGrid=           0
         NMat0=    1 NMatS0=      1 NMatT0=    0 NMatD0=    1 NMtDS0=    0 NMtDT0=    0
 Petite list used in FoFCou.
 Requested convergence on RMS density matrix=1.00D-08 within 128 cycles.
 Requested convergence on MAX density matrix=1.00D-06.
 Requested convergence on             energy=1.00D-06.
 No special actions if energy rises.
 SCF Done:  E(RB3LYP) =  -856.785216617     A.U. after   17 cycles
            NFock= 17  Conv=0.32D-08     -V/T= 2.0096
 DoSCS=F DFT=T ScalE2(SS,OS)=  1.000000  1.000000
 ExpMin= 4.38D-02 ExpMax= 4.17D+03 ExpMxC= 6.27D+02 IAcc=3 IRadAn=         5 AccDes= 0.00D+00
 HarFok:  IExCor=  205 AccDes= 0.00D+00 IRadAn=         5 IDoV=-2 UseB2=F ITyADJ=14
 ICtDFT= 12500011 ScaDFX=  1.000000  1.000000  1.000000  1.000000
 Range of M.O.s used for correlation:    21   473
 NBasis=   475 NAE=    72 NBE=    72 NFC=    20 NFV=     0
 NROrb=    453 NOA=    52 NOB=    52 NVA=   401 NVB=   401

 **** Warning!!: The largest alpha MO coefficient is  0.22569908D+03

 Orbital symmetries:
       Occupied  (A) (A) (A) (A) (A) (A) (A) (A) (A) (A) (A) (A)
                 (A) (A) (A) (A) (A) (A) (A) (A) (A) (A) (A) (A)
                 (A) (A) (A) (A) (A) (A) (A) (A) (A) (A) (A) (A)
                 (A) (A) (A) (A) (A) (A) (A) (A) (A) (A) (A) (A)
                 (A) (A) (A) (A) (A) (A) (A) (A) (A) (A) (A) (A)
                 (A) (A) (A) (A) (A) (A) (A) (A) (A) (A) (A) (A)
       Virtual   (A) (A) (A) (A) (A) (A) (A) (A) (A) (A) (A) (A)
                 (A) (A) (A) (A) (A) (A) (A) (A) (A) (A) (A) (A)
                 (A) (A) (A) (A) (A) (A) (A) (A) (A) (A) (A) (A)
                 (A) (A) (A) (A) (A) (A) (A) (A) (A) (A) (A) (A)
                 (A) (A) (A) (A) (A) (A) (A) (A) (A) (A) (A) (A)
                 (A) (A) (A) (A) (A) (A) (A) (A) (A) (A) (A) (A)
                 (A) (A) (A) (A) (A) (A) (A) (A) (A) (A) (A) (A)
                 (A) (A) (A) (A) (A) (A) (A) (A) (A) (A) (A) (A)
                 (A) (A) (A) (A) (A) (A) (A) (A) (A) (A) (A) (A)
                 (A) (A) (A) (A) (A) (A) (A) (A) (A) (A) (A) (A)
                 (A) (A) (A) (A) (A) (A) (A) (A) (A) (A) (A) (A)
                 (A) (A) (A) (A) (A) (A) (A) (A) (A) (A) (A) (A)
                 (A) (A) (A) (A) (A) (A) (A) (A) (A) (A) (A) (A)
                 (A) (A) (A) (A) (A) (A) (A) (A) (A) (A) (A) (A)
                 (A) (A) (A) (A) (A) (A) (A) (A) (A) (A) (A) (A)
                 (A) (A) (A) (A) (A) (A) (A) (A) (A) (A) (A) (A)
                 (A) (A) (A) (A) (A) (A) (A) (A) (A) (A) (A) (A)
                 (A) (A) (A) (A) (A) (A) (A) (A) (A) (A) (A) (A)
                 (A) (A) (A) (A) (A) (A) (A) (A) (A) (A) (A) (A)
                 (A) (A) (A) (A) (A) (A) (A) (A) (A) (A) (A) (A)
                 (A) (A) (A) (A) (A) (A) (A) (A) (A) (A) (A) (A)
                 (A) (A) (A) (A) (A) (A) (A) (A) (A) (A) (A) (A)
                 (A) (A) (A) (A) (A) (A) (A) (A) (A) (A) (A) (A)
                 (A) (A) (A) (A) (A) (A) (A) (A) (A) (A) (A) (A)
                 (A) (A) (A) (A) (A) (A) (A) (A) (A) (A) (A) (A)
                 (A) (A) (A) (A) (A) (A) (A) (A) (A) (A) (A) (A)
                 (A) (A) (A) (A) (A) (A) (A) (A) (A) (A) (A) (A)
                 (A) (A) (A) (A) (A) (A) (A) (A) (A) (A) (A) (A)
                 (A) (A) (A) (A) (A) (A) (A) (A) (A) (A) (A) (A)
                 (A) (A) (A) (A) (A) (A) (A) (A) (A) (A) (A) (A)
                 (A) (A) (A) (A) (A) (A) (A) (A) (A) (A) (A) (A)
                 (A) (A) (A) (A) (A) (A) (A) (A) (A) (A) (A) (A)
                 (A) (A) (A) (A) (A) (A) (A) (A) (A) (A) (A) (A)
                 (A) (A) (A) (A) (A)
    24 initial guesses have been made.
 Convergence on wavefunction:    0.001000000000000
 Iteration     1 Dimension    24 NMult     0 NNew     24
 CISAX will form    24 AO SS matrices at one time.
 New state      1 was old state      2
 New state      2 was old state      6
 New state      3 was old state      4
 New state      4 was old state      3
 New state      5 was old state      1
 New state      6 was old state      5
 New state      7 was old state      8
 New state      8 was old state      7
 New state      9 was old state     16
 New state     10 was old state     12
 New state     12 was old state     15
 Iteration     2 Dimension    36 NMult    24 NNew     12
 Iteration     3 Dimension    48 NMult    36 NNew     12
 New state      3 was old state      4
 New state      4 was old state      3
 Iteration     4 Dimension    60 NMult    48 NNew     12
 Iteration     5 Dimension    72 NMult    60 NNew     12
 Iteration     6 Dimension    78 NMult    72 NNew      6
 ***********************************************************************
 Excited states from <AA,BB:AA,BB> singles matrix:
 ***********************************************************************
 
 Ground to excited state transition densities written to RWF  633
 Ground to excited state transition electric dipole moments (Au):
       state          X           Y           Z        Dip. S.      Osc.
         1        -0.0000      0.0000     -0.0000      0.0000      0.0000
         2        -0.0000      0.0000     -0.0000      0.0000      0.0000
         3        -0.1575     -0.5962     -0.0463      0.3824      0.0333
         4        -0.0000     -0.0000      0.0000      0.0000      0.0000
         5        -0.0007      0.8936      0.1409      0.8184      0.0732
         6         1.4289     -0.0995      0.3070      2.1459      0.2137
 Ground to excited state transition velocity dipole moments (Au):
       state          X           Y           Z        Dip. S.      Osc.
         1         0.0000      0.0000      0.0000      0.0000      0.0000
         2         0.0000      0.0000      0.0000      0.0000      0.0000
         3         0.0189      0.0757      0.0050      0.0061      0.0312
         4         0.0000      0.0000      0.0000      0.0000      0.0000
         5        -0.0002     -0.1155     -0.0186      0.0137      0.0680
         6        -0.2065      0.0147     -0.0446      0.0448      0.2002
 Ground to excited state transition magnetic dipole moments (Au):
       state          X           Y           Z
         1        -0.0000      0.0000     -0.0000
         2        -0.0000     -0.0000     -0.0000
         3         0.0290      0.0337      0.4624
         4        -0.0000      0.0000     -0.0000
         5        -0.0219      0.1241     -0.3403
         6         0.0655      0.2182      0.0795
 Ground to excited state transition velocity quadrupole moments (Au):
       state          XX          YY          ZZ          XY          XZ          YZ
         1        -0.0000     -0.0000     -0.0000     -0.0000     -0.0000     -0.0000
         2        -0.0000     -0.0000     -0.0000     -0.0000      0.0000     -0.0000
         3        -0.1596      0.1237     -0.0220     -0.2926      0.0286     -0.2038
         4        -0.0000     -0.0000     -0.0000     -0.0000     -0.0000     -0.0000
         5        -0.0572      0.0051      0.0227      0.3667     -0.0229      0.3331
         6        -0.5135      0.1716      0.0659     -0.0659     -0.0782      0.0363
 <0|del|b> * <b|rxdel|0> + <0|del|b> * <b|delr+rdel|0>
 Rotatory Strengths (R) in cgs (10**-40 erg-esu-cm/Gauss)
       state          XX          YY          ZZ    R(velocity)    E-M Angle
         1         0.0000      0.0000     -0.0000      0.0000       90.00
         2        -0.0000     -0.0000     -0.0000     -0.0000       90.00
         3         3.3609      1.3469     24.7095      9.8058       81.41
         4         0.0000     -0.0000     -0.0000      0.0000       90.00
         5       -46.0599     34.4980    -30.5967    -14.0529      100.86
         6         8.8507    -65.1185     -9.4411    -21.9030      105.76
 1/2[<0|r|b>*<b|rxdel|0> + (<0|rxdel|b>*<b|r|0>)*]
 Rotatory Strengths (R) in cgs (10**-40 erg-esu-cm/Gauss)
       state          XX          YY          ZZ     R(length)
         1        -0.0000     -0.0000     -0.0000     -0.0000
         2        -0.0000      0.0000     -0.0000     -0.0000
         3         3.2313     14.1922     15.1335     10.8524
         4        -0.0000      0.0000      0.0000      0.0000
         5        -0.0104    -78.4438     33.9151    -14.8463
         6       -66.2041     15.3581    -17.2691    -22.7050
  1/2[<0|del|b>*<b|r|0> + (<0|r|b>*<b|del|0>)*] (Au)
       state          X           Y           Z        Dip. S.   Osc.(frdel)
         1        -0.0000      0.0000     -0.0000     -0.0000     -0.0000
         2        -0.0000      0.0000     -0.0000      0.0000      0.0000
         3        -0.0030     -0.0451     -0.0002      0.0484      0.0322
         4        -0.0000     -0.0000      0.0000      0.0000      0.0000
         5         0.0000     -0.1032     -0.0026      0.1058      0.0706
         6        -0.2950     -0.0015     -0.0137      0.3102      0.2068

 Excitation energies and oscillator strengths:
 
 Excited State   1:      Triplet-A      2.1268 eV  582.97 nm  f=0.0000  <S**2>=2.000
      72 -> 73         0.69797
      72 <- 73         0.10659
 This state for optimization and/or second-order correction.
 Total Energy, E(TD-HF/TD-DFT) =  -856.707059780    
 Copying the excited state density for this state as the 1-particle RhoCI density.
 
 Excited State   2:      Triplet-A      2.8245 eV  438.95 nm  f=0.0000  <S**2>=2.000
      70 -> 73         0.67597
      72 -> 79         0.10001
 
 Excited State   3:      Singlet-A      3.5506 eV  349.19 nm  f=0.0333  <S**2>=0.000
      71 -> 73         0.53669
      72 -> 73        -0.45618
 
 Excited State   4:      Triplet-A      3.5553 eV  348.73 nm  f=0.0000  <S**2>=2.000
      70 -> 73        -0.10297
      71 -> 73         0.69607
 
 Excited State   5:      Singlet-A      3.6507 eV  339.61 nm  f=0.0732  <S**2>=0.000
      71 -> 73         0.45653
      72 -> 73         0.53597
 
 Excited State   6:      Singlet-A      4.0639 eV  305.09 nm  f=0.2137  <S**2>=0.000
      70 -> 73         0.67938
      72 -> 74         0.11316
      72 -> 79        -0.10141
 SavETr:  write IOETrn=   770 NScale= 10 NData=  16 NLR=1 NState=    6 LETran=     118.

 **********************************************************************

            Population analysis using the SCF Density.

 **********************************************************************

 Orbital symmetries:
       Occupied  (A) (A) (A) (A) (A) (A) (A) (A) (A) (A) (A) (A)
                 (A) (A) (A) (A) (A) (A) (A) (A) (A) (A) (A) (A)
                 (A) (A) (A) (A) (A) (A) (A) (A) (A) (A) (A) (A)
                 (A) (A) (A) (A) (A) (A) (A) (A) (A) (A) (A) (A)
                 (A) (A) (A) (A) (A) (A) (A) (A) (A) (A) (A) (A)
                 (A) (A) (A) (A) (A) (A) (A) (A) (A) (A) (A) (A)
       Virtual   (A) (A) (A) (A) (A) (A) (A) (A) (A) (A) (A) (A)
                 (A) (A) (A) (A) (A) (A) (A) (A) (A) (A) (A) (A)
                 (A) (A) (A) (A) (A) (A) (A) (A) (A) (A) (A) (A)
                 (A) (A) (A) (A) (A) (A) (A) (A) (A) (A) (A) (A)
                 (A) (A) (A) (A) (A) (A) (A) (A) (A) (A) (A) (A)
                 (A) (A) (A) (A) (A) (A) (A) (A) (A) (A) (A) (A)
                 (A) (A) (A) (A) (A) (A) (A) (A) (A) (A) (A) (A)
                 (A) (A) (A) (A) (A) (A) (A) (A) (A) (A) (A) (A)
                 (A) (A) (A) (A) (A) (A) (A) (A) (A) (A) (A) (A)
                 (A) (A) (A) (A) (A) (A) (A) (A) (A) (A) (A) (A)
                 (A) (A) (A) (A) (A) (A) (A) (A) (A) (A) (A) (A)
                 (A) (A) (A) (A) (A) (A) (A) (A) (A) (A) (A) (A)
                 (A) (A) (A) (A) (A) (A) (A) (A) (A) (A) (A) (A)
                 (A) (A) (A) (A) (A) (A) (A) (A) (A) (A) (A) (A)
                 (A) (A) (A) (A) (A) (A) (A) (A) (A) (A) (A) (A)
                 (A) (A) (A) (A) (A) (A) (A) (A) (A) (A) (A) (A)
                 (A) (A) (A) (A) (A) (A) (A) (A) (A) (A) (A) (A)
                 (A) (A) (A) (A) (A) (A) (A) (A) (A) (A) (A) (A)
                 (A) (A) (A) (A) (A) (A) (A) (A) (A) (A) (A) (A)
                 (A) (A) (A) (A) (A) (A) (A) (A) (A) (A) (A) (A)
                 (A) (A) (A) (A) (A) (A) (A) (A) (A) (A) (A) (A)
                 (A) (A) (A) (A) (A) (A) (A) (A) (A) (A) (A) (A)
                 (A) (A) (A) (A) (A) (A) (A) (A) (A) (A) (A) (A)
                 (A) (A) (A) (A) (A) (A) (A) (A) (A) (A) (A) (A)
                 (A) (A) (A) (A) (A) (A) (A) (A) (A) (A) (A) (A)
                 (A) (A) (A) (A) (A) (A) (A) (A) (A) (A) (A) (A)
                 (A) (A) (A) (A) (A) (A) (A) (A) (A) (A) (A) (A)
                 (A) (A) (A) (A) (A) (A) (A) (A) (A) (A) (A) (A)
                 (A) (A) (A) (A) (A) (A) (A) (A) (A) (A) (A) (A)
                 (A) (A) (A) (A) (A) (A) (A) (A) (A) (A) (A) (A)
                 (A) (A) (A) (A) (A) (A) (A) (A) (A) (A) (A) (A)
                 (A) (A) (A) (A) (A) (A) (A) (A) (A) (A) (A) (A)
                 (A) (A) (A) (A) (A) (A) (A) (A) (A) (A) (A) (A)
                 (A) (A) (A) (A) (A)
 The electronic state is 1-A.
 Alpha  occ. eigenvalues --  -14.40011 -14.39700 -14.33415 -14.33007 -14.32145
 Alpha  occ. eigenvalues --  -10.27500 -10.27217 -10.26123 -10.26003 -10.24096
 Alpha  occ. eigenvalues --  -10.23692 -10.23165 -10.22833 -10.22782 -10.22771
 Alpha  occ. eigenvalues --  -10.22655 -10.22329 -10.20615 -10.18197 -10.18099
 Alpha  occ. eigenvalues --   -1.01356  -0.96962  -0.92570  -0.90586  -0.89963
 Alpha  occ. eigenvalues --   -0.87915  -0.80039  -0.77681  -0.77394  -0.75464
 Alpha  occ. eigenvalues --   -0.72468  -0.72204  -0.68021  -0.66303  -0.64872
 Alpha  occ. eigenvalues --   -0.59948  -0.57849  -0.56747  -0.56655  -0.53934
 Alpha  occ. eigenvalues --   -0.52764  -0.49736  -0.49285  -0.48245  -0.48101
 Alpha  occ. eigenvalues --   -0.47529  -0.46649  -0.45321  -0.44003  -0.43568
 Alpha  occ. eigenvalues --   -0.42387  -0.41967  -0.41759  -0.41553  -0.41126
 Alpha  occ. eigenvalues --   -0.39390  -0.38645  -0.36995  -0.36809  -0.36100
 Alpha  occ. eigenvalues --   -0.35783  -0.35517  -0.34497  -0.34417  -0.33839
 Alpha  occ. eigenvalues --   -0.32441  -0.32086  -0.31551  -0.31000  -0.23547
 Alpha  occ. eigenvalues --   -0.23015  -0.21628
 Alpha virt. eigenvalues --   -0.07218  -0.02082  -0.00095   0.00281   0.00668
 Alpha virt. eigenvalues --    0.00811   0.01002   0.01735   0.02118   0.02571
 Alpha virt. eigenvalues --    0.02765   0.03242   0.04009   0.04157   0.04661
 Alpha virt. eigenvalues --    0.04855   0.05094   0.05289   0.05879   0.06425
 Alpha virt. eigenvalues --    0.06858   0.07291   0.07429   0.08021   0.08171
 Alpha virt. eigenvalues --    0.08822   0.08904   0.09397   0.10048   0.10205
 Alpha virt. eigenvalues --    0.10530   0.11194   0.11438   0.12161   0.12285
 Alpha virt. eigenvalues --    0.12628   0.12789   0.13422   0.13571   0.14020
 Alpha virt. eigenvalues --    0.14286   0.14905   0.15245   0.15357   0.15684
 Alpha virt. eigenvalues --    0.16427   0.16585   0.16663   0.17302   0.17566
 Alpha virt. eigenvalues --    0.17820   0.18080   0.18653   0.19033   0.19624
 Alpha virt. eigenvalues --    0.19688   0.19951   0.20015   0.20303   0.20747
 Alpha virt. eigenvalues --    0.20907   0.21411   0.21625   0.22014   0.22312
 Alpha virt. eigenvalues --    0.22506   0.22699   0.22997   0.23586   0.23973
 Alpha virt. eigenvalues --    0.24801   0.24983   0.25112   0.25283   0.25554
 Alpha virt. eigenvalues --    0.25793   0.26133   0.26259   0.26613   0.27243
 Alpha virt. eigenvalues --    0.27572   0.27761   0.27991   0.28287   0.28558
 Alpha virt. eigenvalues --    0.28979   0.29221   0.29327   0.29801   0.29892
 Alpha virt. eigenvalues --    0.30039   0.30519   0.30806   0.31181   0.31779
 Alpha virt. eigenvalues --    0.32146   0.32252   0.32641   0.32959   0.33112
 Alpha virt. eigenvalues --    0.33590   0.34385   0.34450   0.34922   0.35268
 Alpha virt. eigenvalues --    0.35737   0.37124   0.37364   0.38822   0.39117
 Alpha virt. eigenvalues --    0.39307   0.40062   0.40846   0.41050   0.41557
 Alpha virt. eigenvalues --    0.42491   0.43197   0.43905   0.44730   0.45850
 Alpha virt. eigenvalues --    0.48736   0.49960   0.56258   0.62015   0.64188
 Alpha virt. eigenvalues --    0.64565   0.65389   0.65827   0.66474   0.67087
 Alpha virt. eigenvalues --    0.67482   0.68021   0.69044   0.69575   0.70377
 Alpha virt. eigenvalues --    0.71196   0.72084   0.72660   0.72963   0.74030
 Alpha virt. eigenvalues --    0.74585   0.75110   0.76417   0.76695   0.77943
 Alpha virt. eigenvalues --    0.78575   0.79255   0.79583   0.80468   0.81651
 Alpha virt. eigenvalues --    0.82621   0.83691   0.84453   0.85739   0.86213
 Alpha virt. eigenvalues --    0.86533   0.88225   0.89883   0.90142   0.91151
 Alpha virt. eigenvalues --    0.91591   0.92582   0.93037   0.93795   0.93885
 Alpha virt. eigenvalues --    0.94847   0.95170   0.96531   0.96899   0.97684
 Alpha virt. eigenvalues --    0.99214   0.99871   1.00128   1.00856   1.01349
 Alpha virt. eigenvalues --    1.02352   1.02785   1.03477   1.04153   1.05383
 Alpha virt. eigenvalues --    1.06119   1.06521   1.06834   1.07929   1.08735
 Alpha virt. eigenvalues --    1.09903   1.10234   1.11065   1.11171   1.12115
 Alpha virt. eigenvalues --    1.12778   1.13171   1.14267   1.15320   1.15859
 Alpha virt. eigenvalues --    1.16088   1.18682   1.19132   1.20383   1.20816
 Alpha virt. eigenvalues --    1.21150   1.22853   1.23777   1.24639   1.26239
 Alpha virt. eigenvalues --    1.28127   1.28683   1.31684   1.32743   1.33917
 Alpha virt. eigenvalues --    1.34636   1.36580   1.38514   1.39707   1.41870
 Alpha virt. eigenvalues --    1.43177   1.44576   1.45550   1.46491   1.49226
 Alpha virt. eigenvalues --    1.49624   1.50391   1.51744   1.55656   1.57387
 Alpha virt. eigenvalues --    1.58270   1.60574   1.60726   1.62870   1.63263
 Alpha virt. eigenvalues --    1.64617   1.65598   1.66078   1.67686   1.68379
 Alpha virt. eigenvalues --    1.68569   1.69130   1.71637   1.73113   1.76204
 Alpha virt. eigenvalues --    1.76567   1.77370   1.77799   1.78856   1.79726
 Alpha virt. eigenvalues --    1.81557   1.82764   1.83677   1.86371   1.86490
 Alpha virt. eigenvalues --    1.87654   1.89143   1.89683   1.90029   1.90881
 Alpha virt. eigenvalues --    1.91925   1.93346   1.94117   1.94908   1.96286
 Alpha virt. eigenvalues --    1.97147   1.97652   1.97944   1.99233   1.99684
 Alpha virt. eigenvalues --    2.00448   2.01068   2.01239   2.02695   2.03533
 Alpha virt. eigenvalues --    2.04676   2.05090   2.06266   2.06633   2.07378
 Alpha virt. eigenvalues --    2.08102   2.09117   2.09249   2.09979   2.11574
 Alpha virt. eigenvalues --    2.12420   2.13110   2.13735   2.14704   2.15163
 Alpha virt. eigenvalues --    2.16126   2.17216   2.18965   2.21192   2.22323
 Alpha virt. eigenvalues --    2.24660   2.26478   2.27593   2.28069   2.28936
 Alpha virt. eigenvalues --    2.31122   2.31810   2.33726   2.34848   2.35984
 Alpha virt. eigenvalues --    2.37062   2.38659   2.40357   2.43926   2.45078
 Alpha virt. eigenvalues --    2.45124   2.46433   2.49114   2.50627   2.51238
 Alpha virt. eigenvalues --    2.52698   2.53087   2.54777   2.55468   2.56325
 Alpha virt. eigenvalues --    2.56803   2.58385   2.59775   2.60220   2.62909
 Alpha virt. eigenvalues --    2.63470   2.64463   2.65203   2.65717   2.68122
 Alpha virt. eigenvalues --    2.68990   2.69798   2.70938   2.72418   2.72605
 Alpha virt. eigenvalues --    2.74929   2.75399   2.76589   2.76721   2.78384
 Alpha virt. eigenvalues --    2.79360   2.80747   2.81788   2.82723   2.83786
 Alpha virt. eigenvalues --    2.84945   2.86569   2.86712   2.87389   2.88884
 Alpha virt. eigenvalues --    2.90194   2.91131   2.92843   2.94494   2.95839
 Alpha virt. eigenvalues --    2.97054   3.01073   3.03556   3.07610   3.10376
 Alpha virt. eigenvalues --    3.11964   3.12961   3.15676   3.16579   3.24081
 Alpha virt. eigenvalues --    3.25214   3.27779   3.29420   3.29477   3.32865
 Alpha virt. eigenvalues --    3.35423   3.36252   3.40289   3.42532   3.43187
 Alpha virt. eigenvalues --    3.44237   3.44754   3.45794   3.47008   3.47606
 Alpha virt. eigenvalues --    3.48730   3.49187   3.51730   3.52290   3.58079
 Alpha virt. eigenvalues --    3.61012   4.24689   4.32232   4.35345   4.36557
 Alpha virt. eigenvalues --    4.39373   4.40947   4.42391   4.45578   4.47501
 Alpha virt. eigenvalues --    4.50717   4.54055   4.58002   4.60904   4.62472
 Alpha virt. eigenvalues --    4.67791   4.69019   4.77017   4.85738   4.90405
 Alpha virt. eigenvalues --    4.92073
          Condensed to atoms (all electrons):
               1          2          3          4          5          6
     1  C    5.215856   0.147342  -0.059171  -0.024894  -0.011836  -0.011876
     2  N    0.147342   7.333976   0.215601  -0.095130  -0.100052  -0.007073
     3  C   -0.059171   0.215601   5.439187   0.161224  -0.036740  -0.008402
     4  C   -0.024894  -0.095130   0.161224   5.529997   0.202348  -0.097044
     5  N   -0.011836  -0.100052  -0.036740   0.202348   7.334985   0.162268
     6  C   -0.011876  -0.007073  -0.008402  -0.097044   0.162268   5.208383
     7  C   -0.129077   0.252928  -0.082130  -0.055864  -0.081460  -0.219985
     8  C   -0.187382   0.416063  -0.190416  -0.498399  -0.668442   0.288384
     9  C   -0.034150   0.070762   0.001435  -0.115858  -0.206432   0.133152
    10  N    0.000561   0.000186  -0.000993   0.001210  -0.009348  -0.023270
    11  C    0.084105  -0.123837  -0.093301  -0.013610   0.145414  -0.010728
    12  C    0.016068   0.032962   0.001810   0.044999   0.031049  -0.045651
    13  C   -0.002680  -0.007434  -0.003396  -0.008216   0.016089   0.009261
    14  C   -0.000304   0.001690   0.000897  -0.000341  -0.001093  -0.001913
    15  C   -0.000060   0.000891   0.000282  -0.001527  -0.000086   0.002943
    16  N   -0.001748   0.002102   0.002349  -0.004699  -0.004996   0.001868
    17  C    0.376647  -0.525889   0.001030  -0.013807   0.265629  -0.055918
    18  C   -0.346870  -0.118943  -0.010403   0.055049   0.046831  -0.006562
    19  N    0.008371  -0.005768  -0.002462  -0.001722  -0.000342   0.000299
    20  C   -0.023713  -0.090194   0.130052   0.374518   0.301955  -0.325962
    21  H    0.410937  -0.038470   0.013676  -0.004404  -0.001086  -0.000050
    22  H    0.396025  -0.048440  -0.010099   0.003187   0.000423   0.000113
    23  H    0.454440  -0.054538  -0.004395  -0.001179  -0.000578  -0.000276
    24  H   -0.016037  -0.053465   0.371124  -0.009260   0.002184   0.000355
    25  H    0.020199  -0.064257   0.471440  -0.074209   0.015011  -0.002505
    26  H   -0.000100   0.014839  -0.075109   0.467660  -0.069674   0.010408
    27  H    0.000114   0.001530  -0.008704   0.371542  -0.050751  -0.016369
    28  H    0.000126   0.000851   0.004308  -0.007389  -0.050912   0.390665
    29  H   -0.000274  -0.000655  -0.002892  -0.007106  -0.060595   0.443540
    30  H   -0.000105  -0.001129  -0.003731   0.012726  -0.033828   0.414161
    31  H   -0.001243   0.000128   0.000417   0.000279  -0.003765  -0.000352
    32  H   -0.000945  -0.001398   0.000146  -0.000306  -0.001635  -0.000580
    33  H   -0.000317  -0.000020  -0.000002   0.000004  -0.000018   0.000013
    34  H   -0.000463  -0.000104   0.000033  -0.000035  -0.000022   0.000000
    35  H    0.000004   0.000002   0.000002  -0.000002  -0.000001   0.000000
    36  H   -0.000012  -0.000003   0.000002  -0.000005  -0.000000   0.000006
    37  H   -0.000000   0.000002   0.000019  -0.000051  -0.000010   0.000005
    38  H    0.000001   0.000000  -0.000000   0.000000   0.000001   0.000019
    39  H    0.000031   0.000016   0.000048  -0.000036  -0.000293  -0.000514
               7          8          9         10         11         12
     1  C   -0.129077  -0.187382  -0.034150   0.000561   0.084105   0.016068
     2  N    0.252928   0.416063   0.070762   0.000186  -0.123837   0.032962
     3  C   -0.082130  -0.190416   0.001435  -0.000993  -0.093301   0.001810
     4  C   -0.055864  -0.498399  -0.115858   0.001210  -0.013610   0.044999
     5  N   -0.081460  -0.668442  -0.206432  -0.009348   0.145414   0.031049
     6  C   -0.219985   0.288384   0.133152  -0.023270  -0.010728  -0.045651
     7  C   23.874031  -4.278604  -4.939204   0.246659  -7.114051   2.979005
     8  C   -4.278604  29.080011  -2.772488   0.623954  -1.379906   0.915872
     9  C   -4.939204  -2.772488  18.728630  -0.646418   1.575964  -4.037051
    10  N    0.246659   0.623954  -0.646418   7.435137  -0.235220   0.148004
    11  C   -7.114051  -1.379906   1.575964  -0.235220  16.506101  -3.132476
    12  C    2.979005   0.915872  -4.037051   0.148004  -3.132476  17.488536
    13  C   -0.912603  -0.540027   0.864294  -0.037863   1.592400  -5.568723
    14  C    0.315484   0.221744  -0.333993   0.008810  -0.677699   2.465287
    15  C   -0.257888  -0.221777   0.356618  -0.015436   0.402348  -1.406322
    16  N   -0.292136  -0.329553   0.409157  -0.006876   0.359827  -1.530072
    17  C   -5.462218  -3.920996   0.131891  -0.020728   3.446973  -2.128538
    18  C   -0.786193   0.509980  -0.217904  -0.003582  -1.645781  -0.060336
    19  N    0.040156   0.011769   0.001778   0.000084   0.008486  -0.036145
    20  C    3.453200 -11.170838  -3.567699   0.141441  -4.719635   0.968941
    21  H    0.013104   0.005629   0.000318   0.000001  -0.007428  -0.000188
    22  H   -0.002558   0.000465  -0.000063   0.000000   0.004748   0.000138
    23  H   -0.025026  -0.014600  -0.000953   0.000001   0.002320  -0.000182
    24  H    0.020580   0.011517   0.000542  -0.000001   0.003737   0.000022
    25  H   -0.084124  -0.070824  -0.002168   0.000000  -0.011274  -0.000371
    26  H    0.043777  -0.029622   0.014949  -0.000001  -0.021440   0.000590
    27  H   -0.015022   0.009679  -0.006812  -0.000003   0.005194  -0.000339
    28  H   -0.009082   0.023136   0.000115   0.000216   0.003582   0.000063
    29  H   -0.010765   0.011927   0.018514   0.000701  -0.009640  -0.001081
    30  H   -0.062080   0.069573  -0.045198   0.001140   0.006844   0.000011
    31  H    0.027700   0.025724   0.069949  -0.000364   0.211540  -0.037524
    32  H   -0.055423   0.025598   0.115517  -0.001944  -0.126121   0.142184
    33  H    0.002182  -0.004423   0.009586  -0.000058  -0.010703  -0.128968
    34  H   -0.001232   0.004081   0.002376   0.000014  -0.003289  -0.136648
    35  H    0.000006  -0.004477  -0.000527   0.000032  -0.017580   0.068298
    36  H   -0.001254  -0.000814   0.000262  -0.000007   0.008937   0.006917
    37  H   -0.010869  -0.029251   0.019182  -0.000338   0.020776  -0.067382
    38  H    0.000351   0.009344  -0.007183   0.000301  -0.008468  -0.015294
    39  H    0.015131  -0.088862   0.075859  -0.003189  -0.022731  -0.065056
              13         14         15         16         17         18
     1  C   -0.002680  -0.000304  -0.000060  -0.001748   0.376647  -0.346870
     2  N   -0.007434   0.001690   0.000891   0.002102  -0.525889  -0.118943
     3  C   -0.003396   0.000897   0.000282   0.002349   0.001030  -0.010403
     4  C   -0.008216  -0.000341  -0.001527  -0.004699  -0.013807   0.055049
     5  N    0.016089  -0.001093  -0.000086  -0.004996   0.265629   0.046831
     6  C    0.009261  -0.001913   0.002943   0.001868  -0.055918  -0.006562
     7  C   -0.912603   0.315484  -0.257888  -0.292136  -5.462218  -0.786193
     8  C   -0.540027   0.221744  -0.221777  -0.329553  -3.920996   0.509980
     9  C    0.864294  -0.333993   0.356618   0.409157   0.131891  -0.217904
    10  N   -0.037863   0.008810  -0.015436  -0.006876  -0.020728  -0.003582
    11  C    1.592400  -0.677699   0.402348   0.359827   3.446973  -1.645781
    12  C   -5.568723   2.465287  -1.406322  -1.530072  -2.128538  -0.060336
    13  C   11.033721  -3.075356   0.974583   0.532455   0.802045  -0.137000
    14  C   -3.075356   7.875891  -0.475728  -0.363821  -0.073836  -0.080399
    15  C    0.974583  -0.475728   5.674756   0.237875   0.071719  -0.028715
    16  N    0.532455  -0.363821   0.237875   7.370865   0.533255  -0.089458
    17  C    0.802045  -0.073836   0.071719   0.533255  17.880781  -6.288921
    18  C   -0.137000  -0.080399  -0.028715  -0.089458  -6.288921  15.543460
    19  N    0.030817   0.016371   0.001050   0.004001   0.823746  -0.603238
    20  C   -0.290436   0.076997  -0.078232  -0.034684  -0.011072   0.291866
    21  H    0.000269   0.000026  -0.000014   0.000003  -0.008126  -0.016425
    22  H   -0.000130  -0.000008  -0.000000  -0.000002   0.018581   0.006493
    23  H    0.000345   0.000027   0.000003   0.000003   0.087356  -0.053884
    24  H    0.000010   0.000002  -0.000001  -0.000001   0.003711   0.000398
    25  H    0.000034   0.000001   0.000001   0.000004   0.023541  -0.007694
    26  H   -0.000299  -0.000015   0.000045   0.000014  -0.038010  -0.003356
    27  H    0.000041   0.000002  -0.000004  -0.000003   0.010338   0.000585
    28  H    0.000006  -0.000000  -0.000000   0.000008   0.000171  -0.000086
    29  H   -0.000232   0.000004   0.000005  -0.000303  -0.010202  -0.000594
    30  H    0.000209   0.000002   0.000025   0.000289   0.009367   0.000929
    31  H   -0.061320  -0.019252  -0.002188  -0.005667  -0.091395   0.069119
    32  H    0.027708  -0.062969   0.007542  -0.005622   0.098336   0.052761
    33  H    0.378049   0.037406   0.002306   0.024985   0.064159  -0.049792
    34  H    0.410379  -0.015412  -0.006849   0.021508   0.010643   0.015303
    35  H   -0.147585   0.483464  -0.054219   0.002911   0.007923  -0.004230
    36  H   -0.113902   0.485603  -0.071032   0.016903   0.001790  -0.000438
    37  H    0.072147  -0.161581   0.504285  -0.041469   0.007487   0.000159
    38  H    0.085075  -0.126225   0.450565  -0.046821  -0.001537  -0.001002
    39  H    0.012185  -0.019601  -0.023805   0.374411   0.019558  -0.001989
              19         20         21         22         23         24
     1  C    0.008371  -0.023713   0.410937   0.396025   0.454440  -0.016037
     2  N   -0.005768  -0.090194  -0.038470  -0.048440  -0.054538  -0.053465
     3  C   -0.002462   0.130052   0.013676  -0.010099  -0.004395   0.371124
     4  C   -0.001722   0.374518  -0.004404   0.003187  -0.001179  -0.009260
     5  N   -0.000342   0.301955  -0.001086   0.000423  -0.000578   0.002184
     6  C    0.000299  -0.325962  -0.000050   0.000113  -0.000276   0.000355
     7  C    0.040156   3.453200   0.013104  -0.002558  -0.025026   0.020580
     8  C    0.011769 -11.170838   0.005629   0.000465  -0.014600   0.011517
     9  C    0.001778  -3.567699   0.000318  -0.000063  -0.000953   0.000542
    10  N    0.000084   0.141441   0.000001   0.000000   0.000001  -0.000001
    11  C    0.008486  -4.719635  -0.007428   0.004748   0.002320   0.003737
    12  C   -0.036145   0.968941  -0.000188   0.000138  -0.000182   0.000022
    13  C    0.030817  -0.290436   0.000269  -0.000130   0.000345   0.000010
    14  C    0.016371   0.076997   0.000026  -0.000008   0.000027   0.000002
    15  C    0.001050  -0.078232  -0.000014  -0.000000   0.000003  -0.000001
    16  N    0.004001  -0.034684   0.000003  -0.000002   0.000003  -0.000001
    17  C    0.823746  -0.011072  -0.008126   0.018581   0.087356   0.003711
    18  C   -0.603238   0.291866  -0.016425   0.006493  -0.053884   0.000398
    19  N    7.442366  -0.146040  -0.000592  -0.000033   0.000921  -0.000026
    20  C   -0.146040  20.703089  -0.001113  -0.018745  -0.036473  -0.011963
    21  H   -0.000592  -0.001113   0.507254  -0.019632  -0.032344   0.000502
    22  H   -0.000033  -0.018745  -0.019632   0.560345  -0.035375   0.006035
    23  H    0.000921  -0.036473  -0.032344  -0.035375   0.542940  -0.001152
    24  H   -0.000026  -0.011963   0.000502   0.006035  -0.001152   0.575041
    25  H    0.000044   0.092839  -0.000267  -0.001063   0.003175  -0.041098
    26  H    0.000004  -0.011621   0.000003   0.000001  -0.000000  -0.003463
    27  H   -0.000001   0.023180   0.000001  -0.000021   0.000007  -0.002550
    28  H   -0.000000  -0.005739  -0.000000   0.000000  -0.000000  -0.000020
    29  H    0.000001  -0.020661   0.000000  -0.000000   0.000000   0.000008
    30  H    0.000000   0.001497  -0.000000  -0.000000   0.000000   0.000001
    31  H   -0.002490   0.068087   0.000007   0.000000  -0.000007   0.000000
    32  H   -0.000767   0.025741   0.000002  -0.000000  -0.000000  -0.000000
    33  H   -0.000695   0.014413  -0.000003   0.000000   0.000000  -0.000000
    34  H    0.001207   0.015908   0.000000   0.000000  -0.000000  -0.000000
    35  H   -0.000032   0.000775  -0.000000   0.000000  -0.000000   0.000000
    36  H    0.000017   0.001582   0.000000   0.000000  -0.000000  -0.000000
    37  H    0.000008  -0.001323  -0.000000  -0.000000  -0.000000  -0.000000
    38  H    0.000009   0.000234   0.000000   0.000000  -0.000000   0.000000
    39  H   -0.000025   0.005549   0.000000   0.000000  -0.000000   0.000000
              25         26         27         28         29         30
     1  C    0.020199  -0.000100   0.000114   0.000126  -0.000274  -0.000105
     2  N   -0.064257   0.014839   0.001530   0.000851  -0.000655  -0.001129
     3  C    0.471440  -0.075109  -0.008704   0.004308  -0.002892  -0.003731
     4  C   -0.074209   0.467660   0.371542  -0.007389  -0.007106   0.012726
     5  N    0.015011  -0.069674  -0.050751  -0.050912  -0.060595  -0.033828
     6  C   -0.002505   0.010408  -0.016369   0.390665   0.443540   0.414161
     7  C   -0.084124   0.043777  -0.015022  -0.009082  -0.010765  -0.062080
     8  C   -0.070824  -0.029622   0.009679   0.023136   0.011927   0.069573
     9  C   -0.002168   0.014949  -0.006812   0.000115   0.018514  -0.045198
    10  N    0.000000  -0.000001  -0.000003   0.000216   0.000701   0.001140
    11  C   -0.011274  -0.021440   0.005194   0.003582  -0.009640   0.006844
    12  C   -0.000371   0.000590  -0.000339   0.000063  -0.001081   0.000011
    13  C    0.000034  -0.000299   0.000041   0.000006  -0.000232   0.000209
    14  C    0.000001  -0.000015   0.000002  -0.000000   0.000004   0.000002
    15  C    0.000001   0.000045  -0.000004  -0.000000   0.000005   0.000025
    16  N    0.000004   0.000014  -0.000003   0.000008  -0.000303   0.000289
    17  C    0.023541  -0.038010   0.010338   0.000171  -0.010202   0.009367
    18  C   -0.007694  -0.003356   0.000585  -0.000086  -0.000594   0.000929
    19  N    0.000044   0.000004  -0.000001  -0.000000   0.000001   0.000000
    20  C    0.092839  -0.011621   0.023180  -0.005739  -0.020661   0.001497
    21  H   -0.000267   0.000003   0.000001  -0.000000   0.000000  -0.000000
    22  H   -0.001063   0.000001  -0.000021   0.000000  -0.000000  -0.000000
    23  H    0.003175  -0.000000   0.000007  -0.000000   0.000000   0.000000
    24  H   -0.041098  -0.003463  -0.002550  -0.000020   0.000008   0.000001
    25  H    0.570418   0.004198  -0.003478  -0.000002  -0.000002   0.000003
    26  H    0.004198   0.576288  -0.042315  -0.001173   0.003840  -0.000270
    27  H   -0.003478  -0.042315   0.575487   0.005716  -0.001138   0.000492
    28  H   -0.000002  -0.001173   0.005716   0.559886  -0.034482  -0.018687
    29  H   -0.000002   0.003840  -0.001138  -0.034482   0.550292  -0.032849
    30  H    0.000003  -0.000270   0.000492  -0.018687  -0.032849   0.497322
    31  H   -0.000002   0.000001  -0.000000  -0.000000   0.000003  -0.000012
    32  H    0.000000   0.000003  -0.000000  -0.000000   0.000005  -0.000000
    33  H    0.000000  -0.000000  -0.000000  -0.000000   0.000000  -0.000000
    34  H   -0.000000   0.000000   0.000000  -0.000000   0.000000  -0.000000
    35  H   -0.000000   0.000000  -0.000000  -0.000000   0.000000  -0.000000
    36  H   -0.000000   0.000000   0.000000  -0.000000   0.000000  -0.000000
    37  H   -0.000000   0.000000  -0.000000  -0.000000   0.000000  -0.000000
    38  H   -0.000000   0.000000  -0.000000  -0.000000   0.000000  -0.000000
    39  H   -0.000000   0.000000  -0.000000  -0.000000   0.000001  -0.000001
              31         32         33         34         35         36
     1  C   -0.001243  -0.000945  -0.000317  -0.000463   0.000004  -0.000012
     2  N    0.000128  -0.001398  -0.000020  -0.000104   0.000002  -0.000003
     3  C    0.000417   0.000146  -0.000002   0.000033   0.000002   0.000002
     4  C    0.000279  -0.000306   0.000004  -0.000035  -0.000002  -0.000005
     5  N   -0.003765  -0.001635  -0.000018  -0.000022  -0.000001  -0.000000
     6  C   -0.000352  -0.000580   0.000013   0.000000   0.000000   0.000006
     7  C    0.027700  -0.055423   0.002182  -0.001232   0.000006  -0.001254
     8  C    0.025724   0.025598  -0.004423   0.004081  -0.004477  -0.000814
     9  C    0.069949   0.115517   0.009586   0.002376  -0.000527   0.000262
    10  N   -0.000364  -0.001944  -0.000058   0.000014   0.000032  -0.000007
    11  C    0.211540  -0.126121  -0.010703  -0.003289  -0.017580   0.008937
    12  C   -0.037524   0.142184  -0.128968  -0.136648   0.068298   0.006917
    13  C   -0.061320   0.027708   0.378049   0.410379  -0.147585  -0.113902
    14  C   -0.019252  -0.062969   0.037406  -0.015412   0.483464   0.485603
    15  C   -0.002188   0.007542   0.002306  -0.006849  -0.054219  -0.071032
    16  N   -0.005667  -0.005622   0.024985   0.021508   0.002911   0.016903
    17  C   -0.091395   0.098336   0.064159   0.010643   0.007923   0.001790
    18  C    0.069119   0.052761  -0.049792   0.015303  -0.004230  -0.000438
    19  N   -0.002490  -0.000767  -0.000695   0.001207  -0.000032   0.000017
    20  C    0.068087   0.025741   0.014413   0.015908   0.000775   0.001582
    21  H    0.000007   0.000002  -0.000003   0.000000  -0.000000   0.000000
    22  H    0.000000  -0.000000   0.000000   0.000000   0.000000   0.000000
    23  H   -0.000007  -0.000000   0.000000  -0.000000  -0.000000  -0.000000
    24  H    0.000000  -0.000000  -0.000000  -0.000000   0.000000  -0.000000
    25  H   -0.000002   0.000000   0.000000  -0.000000  -0.000000  -0.000000
    26  H    0.000001   0.000003  -0.000000   0.000000   0.000000   0.000000
    27  H   -0.000000  -0.000000  -0.000000   0.000000  -0.000000   0.000000
    28  H   -0.000000  -0.000000  -0.000000  -0.000000  -0.000000  -0.000000
    29  H    0.000003   0.000005   0.000000   0.000000   0.000000   0.000000
    30  H   -0.000012  -0.000000  -0.000000  -0.000000  -0.000000  -0.000000
    31  H    0.576539   0.005994   0.000122   0.004226  -0.000013  -0.000003
    32  H    0.005994   0.613072  -0.004212   0.004719  -0.000111   0.000508
    33  H    0.000122  -0.004212   0.532672  -0.028397   0.003021  -0.007137
    34  H    0.004226   0.004719  -0.028397   0.559519  -0.010799   0.003371
    35  H   -0.000013  -0.000111   0.003021  -0.010799   0.561824  -0.031650
    36  H   -0.000003   0.000508  -0.007137   0.003371  -0.031650   0.559771
    37  H   -0.000002   0.002722   0.000295  -0.000136   0.004274  -0.005888
    38  H    0.000006  -0.000067  -0.000115  -0.000077  -0.007491   0.002729
    39  H    0.003861   0.005377  -0.000109   0.000355   0.000713  -0.000162
              37         38         39
     1  C   -0.000000   0.000001   0.000031
     2  N    0.000002   0.000000   0.000016
     3  C    0.000019  -0.000000   0.000048
     4  C   -0.000051   0.000000  -0.000036
     5  N   -0.000010   0.000001  -0.000293
     6  C    0.000005   0.000019  -0.000514
     7  C   -0.010869   0.000351   0.015131
     8  C   -0.029251   0.009344  -0.088862
     9  C    0.019182  -0.007183   0.075859
    10  N   -0.000338   0.000301  -0.003189
    11  C    0.020776  -0.008468  -0.022731
    12  C   -0.067382  -0.015294  -0.065056
    13  C    0.072147   0.085075   0.012185
    14  C   -0.161581  -0.126225  -0.019601
    15  C    0.504285   0.450565  -0.023805
    16  N   -0.041469  -0.046821   0.374411
    17  C    0.007487  -0.001537   0.019558
    18  C    0.000159  -0.001002  -0.001989
    19  N    0.000008   0.000009  -0.000025
    20  C   -0.001323   0.000234   0.005549
    21  H   -0.000000   0.000000   0.000000
    22  H   -0.000000   0.000000   0.000000
    23  H   -0.000000  -0.000000  -0.000000
    24  H   -0.000000   0.000000   0.000000
    25  H   -0.000000  -0.000000  -0.000000
    26  H    0.000000   0.000000   0.000000
    27  H   -0.000000  -0.000000  -0.000000
    28  H   -0.000000  -0.000000  -0.000000
    29  H    0.000000   0.000000   0.000001
    30  H   -0.000000  -0.000000  -0.000001
    31  H   -0.000002   0.000006   0.003861
    32  H    0.002722  -0.000067   0.005377
    33  H    0.000295  -0.000115  -0.000109
    34  H   -0.000136  -0.000077   0.000355
    35  H    0.004274  -0.007491   0.000713
    36  H   -0.005888   0.002729  -0.000162
    37  H    0.575271  -0.031070   0.004590
    38  H   -0.031070   0.568673  -0.006971
    39  H    0.004590  -0.006971   0.415147
 Mulliken charges:
               1
     1  C   -0.277570
     2  N   -0.155068
     3  C   -0.222738
     4  C   -0.189649
     5  N   -0.130195
     6  C   -0.230814
     7  C   -0.395444
     8  C    0.137249
     9  C    0.333254
    10  N   -0.602812
    11  C    0.995619
    12  C   -0.912408
    13  C    0.065082
    14  C   -0.500158
    15  C   -0.043959
    16  N   -0.136863
    17  C   -0.045483
    18  C   -0.029136
    19  N   -0.591126
    20  C   -0.125721
    21  H    0.178408
    22  H    0.139618
    23  H    0.169426
    24  H    0.143265
    25  H    0.162431
    26  H    0.159848
    27  H    0.143602
    28  H    0.138723
    29  H    0.164630
    30  H    0.183299
    31  H    0.161895
    32  H    0.134166
    33  H    0.165758
    34  H    0.149820
    35  H    0.145469
    36  H    0.143909
    37  H    0.138147
    38  H    0.135012
    39  H    0.300510
 Sum of Mulliken charges =  -0.00000
 Mulliken charges with hydrogens summed into heavy atoms:
               1
     1  C    0.209883
     2  N   -0.155068
     3  C    0.082958
     4  C    0.113801
     5  N   -0.130195
     6  C    0.255839
     7  C   -0.395444
     8  C    0.137249
     9  C    0.333254
    10  N   -0.602812
    11  C    1.157514
    12  C   -0.778242
    13  C    0.380661
    14  C   -0.210780
    15  C    0.229200
    16  N    0.163648
    17  C   -0.045483
    18  C   -0.029136
    19  N   -0.591126
    20  C   -0.125721
 Electronic spatial extent (au):  <R**2>=           5714.3725
 Charge=             -0.0000 electrons
 Dipole moment (field-independent basis, Debye):
    X=              6.1475    Y=              0.4693    Z=              2.5530  Tot=              6.6731
 Quadrupole moment (field-independent basis, Debye-Ang):
   XX=            -93.3163   YY=           -150.6561   ZZ=           -122.0661
   XY=             -0.6217   XZ=              2.8796   YZ=             -1.2492
 Traceless Quadrupole moment (field-independent basis, Debye-Ang):
   XX=             28.6965   YY=            -28.6433   ZZ=             -0.0532
   XY=             -0.6217   XZ=              2.8796   YZ=             -1.2492
 Octapole moment (field-independent basis, Debye-Ang**2):
  XXX=             57.1314  YYY=            -13.0726  ZZZ=             10.5192  XYY=             77.2545
  XXY=             -1.8125  XXZ=             11.8080  XZZ=              1.2523  YZZ=              5.2742
  YYZ=             49.0609  XYZ=             -5.4147
 Hexadecapole moment (field-independent basis, Debye-Ang**3):
 XXXX=          -4302.1444 YYYY=          -3323.8873 ZZZZ=           -443.3777 XXXY=             52.1537
 XXXZ=             58.7821 YYYX=             -0.3066 YYYZ=            -18.5615 ZZZX=             -2.5633
 ZZZY=            -14.0909 XXYY=          -1186.8727 XXZZ=           -843.0966 YYZZ=           -586.7624
 XXYZ=              7.2285 YYXZ=            -19.3066 ZZXY=             -2.5140
 N-N= 1.555805998455D+03 E-N=-5.096923068455D+03  KE= 8.485971566336D+02
 Unable to Open any file for archive entry.
 1\1\GINC-N1\SP\RB3LYP TD-FC\6-31+G(d,p)\C15H19N5\HPCMGAC13\13-Aug-2025
 \0\\# td=(50-50,nstates=3) b3lyp/6-31+g(d,p) geom=connectivity\\Title 
 Card Required\\0,1\C,0,2.595456,2.824018,0.173274\N,0,2.466693,1.37467
 9,0.28718\C,0,3.705614,0.601963,0.208642\C,0,3.505504,-0.784206,0.7977
 84\N,0,2.412863,-1.481524,0.120759\C,0,2.334789,-2.919733,0.369537\C,0
 ,1.27685,-0.75227,-0.123085\C,0,0.00855,-1.146491,-0.486035\C,0,-0.419
 644,-2.446791,-0.838188\N,0,-0.770751,-3.499122,-1.204903\C,0,-0.89651
 9,0.064648,-0.643819\C,0,-2.095618,0.080873,0.338612\C,0,-3.114049,1.2
 38789,0.117557\C,0,-4.479244,0.643905,0.560117\C,0,-4.150812,-0.825208
 ,0.944594\N,0,-2.876956,-1.164246,0.29466\C,0,0.071317,1.2171,-0.41904
 6\C,0,-0.317467,2.563534,-0.591013\N,0,-0.676805,3.662947,-0.760785\C,
 0,1.314266,0.731115,-0.072426\H,0,1.731882,3.318965,0.616269\H,0,3.488
 919,3.134865,0.719882\H,0,2.686854,3.152606,-0.871328\H,0,4.471925,1.1
 28213,0.784808\H,0,4.059005,0.522673,-0.832111\H,0,3.315574,-0.706613,
 1.881149\H,0,4.419894,-1.368052,0.657887\H,0,3.350185,-3.321917,0.3886
 9\H,0,1.846179,-3.140921,1.329801\H,0,1.782548,-3.42127,-0.423403\H,0,
 -1.296065,0.105069,-1.669561\H,0,-1.681074,0.157075,1.354371\H,0,-2.84
 5636,2.137287,0.678354\H,0,-3.138534,1.522291,-0.940882\H,0,-5.201697,
 0.67902,-0.262158\H,0,-4.918941,1.195002,1.397825\H,0,-4.014543,-0.912
 138,2.030262\H,0,-4.9261,-1.539742,0.654713\H,0,-3.049639,-1.439024,-0
 .671975\\Version=ES64L-G16RevC.02\State=1-A\HF=-856.7852166\RMSD=3.199
 e-09\PG=C01 [X(C15H19N5)]\\@
 The archive entry for this job was punched.


 ... SUBJECTS WHICH DISCLOSE THEIR FULL POWER, MEANING AND BEAUTY AS SOON
 AS THEY ARE PRESENTED TO THE MIND HAVE VERY LITTLE OF THOSE QUALITIES
 TO DISCLOSE.
                           -- CHARLES DUTTON (1882)
 Job cpu time:       0 days  1 hours 43 minutes 38.6 seconds.
 Elapsed time:       0 days  0 hours 13 minutes  8.9 seconds.
 File lengths (MBytes):  RWF=   1260 Int=      0 D2E=      0 Chk=     58 Scr=      2
 Normal termination of Gaussian 16 at Wed Aug 13 13:12:14 2025.
