 Entering Gaussian System, Link 0=g16
 Input=M1071e.gjf
 Output=M1071e.log
 Initial command:
 /hpc/softwares/Gaussian/g16/l1.exe "/hpc/home/hpcmgac13/pbs.13252.admin1.x8z/Gau-3060138.inp" -scrdir="/hpc/home/hpcmgac13/pbs.13252.admin1.x8z/"
 Default linda workers: n2
 Default is to use   8 SMP processors on each worker.
 Entering Link 1 = /hpc/softwares/Gaussian/g16/l1.exe PID=   3060139.
  
 Copyright (c) 1988-2021, Gaussian, Inc.  All Rights Reserved.
  
 This is part of the Gaussian(R) 16 program.  It is based on
 the Gaussian(R) 09 system (copyright 2009, Gaussian, Inc.),
 the Gaussian(R) 03 system (copyright 2003, Gaussian, Inc.),
 the Gaussian(R) 98 system (copyright 1998, Gaussian, Inc.),
 the Gaussian(R) 94 system (copyright 1995, Gaussian, Inc.),
 the Gaussian 92(TM) system (copyright 1992, Gaussian, Inc.),
 the Gaussian 90(TM) system (copyright 1990, Gaussian, Inc.),
 the Gaussian 88(TM) system (copyright 1988, Gaussian, Inc.),
 the Gaussian 86(TM) system (copyright 1986, Carnegie Mellon
 University), and the Gaussian 82(TM) system (copyright 1983,
 Carnegie Mellon University). Gaussian is a federally registered
 trademark of Gaussian, Inc.
  
 This software contains proprietary and confidential information,
 including trade secrets, belonging to Gaussian, Inc.
  
 This software is provided under written license and may be
 used, copied, transmitted, or stored only in accord with that
 written license.
  
 The following legend is applicable only to US Government
 contracts under FAR:
  
                    RESTRICTED RIGHTS LEGEND
  
 Use, reproduction and disclosure by the US Government is
 subject to restrictions as set forth in subparagraphs (a)
 and (c) of the Commercial Computer Software - Restricted
 Rights clause in FAR 52.227-19.
  
 Gaussian, Inc.
 340 Quinnipiac St., Bldg. 40, Wallingford CT 06492
  
  
 ---------------------------------------------------------------
 Warning -- This program may not be used in any manner that
 competes with the business of Gaussian, Inc. or will provide
 assistance to any competitor of Gaussian, Inc.  The licensee
 of this program is prohibited from giving any competitor of
 Gaussian, Inc. access to this program.  By using this program,
 the user acknowledges that Gaussian, Inc. is engaged in the
 business of creating and licensing software in the field of
 computational chemistry and represents and warrants to the
 licensee that it is not a competitor of Gaussian, Inc. and that
 it will not use this program in any manner prohibited above.
 ---------------------------------------------------------------
  

 Cite this work as:
 Gaussian 16, Revision C.02,
 M. J. Frisch, G. W. Trucks, H. B. Schlegel, G. E. Scuseria, 
 M. A. Robb, J. R. Cheeseman, G. Scalmani, V. Barone, 
 G. A. Petersson, H. Nakatsuji, X. Li, M. Caricato, A. V. Marenich, 
 J. Bloino, B. G. Janesko, R. Gomperts, B. Mennucci, H. P. Hratchian, 
 J. V. Ortiz, A. F. Izmaylov, J. L. Sonnenberg, D. Williams-Young, 
 F. Ding, F. Lipparini, F. Egidi, J. Goings, B. Peng, A. Petrone, 
 T. Henderson, D. Ranasinghe, V. G. Zakrzewski, J. Gao, N. Rega, 
 G. Zheng, W. Liang, M. Hada, M. Ehara, K. Toyota, R. Fukuda, 
 J. Hasegawa, M. Ishida, T. Nakajima, Y. Honda, O. Kitao, H. Nakai, 
 T. Vreven, K. Throssell, J. A. Montgomery, Jr., J. E. Peralta, 
 F. Ogliaro, M. J. Bearpark, J. J. Heyd, E. N. Brothers, K. N. Kudin, 
 V. N. Staroverov, T. A. Keith, R. Kobayashi, J. Normand, 
 K. Raghavachari, A. P. Rendell, J. C. Burant, S. S. Iyengar, 
 J. Tomasi, M. Cossi, J. M. Millam, M. Klene, C. Adamo, R. Cammi, 
 J. W. Ochterski, R. L. Martin, K. Morokuma, O. Farkas, 
 J. B. Foresman, and D. J. Fox, Gaussian, Inc., Wallingford CT, 2019.
 
 ******************************************
 Gaussian 16:  ES64L-G16RevC.02  7-Dec-2021
                13-Aug-2025 
 ******************************************
 SetLPE:    new flags="-opt 'Tsnet.Node.lindarsharg: ssh'  -nodelist 'n2.head.cm.mguif.local' -env GAUSS_MDEF=2147483648 -env GAUSS_EXEDIR="/hpc/softwares/Gaussian/g16/bsd:/hpc/softwares/Gaussian/g16""
 Will use up to    1 processors via Linda.
 ----------------------------------------------------------
 # td=(50-50,nstates=3) b3lyp/6-31+g(d,p) geom=connectivity
 ----------------------------------------------------------
 1/38=1,57=2,172=1/1;
 2/12=2,17=6,18=5,40=1/2;
 3/5=1,6=6,7=111,11=9,25=1,30=1,74=-5/1,2,3,8;
 4//1;
 5/5=2,38=5/2;
 8/6=1,10=2,108=3/1;
 9/41=3,42=1,48=2,70=2/14;
 6/7=2,8=2,9=2,10=2/1;
 99/5=1,9=1/99;
 -------------------
 Title Card Required
 -------------------
 Symbolic Z-matrix:
 Charge =  0 Multiplicity = 1
 C                     1.35371  -2.13515   1.69514 
 C                     1.79409  -1.54974   0.56452 
 C                     2.44269  -2.34905  -0.44584 
 N                     2.95152  -3.00149  -1.2631 
 C                     1.64463  -0.11356   0.27682 
 C                     0.59805   0.72647   0.38327 
 C                    -0.81368   0.43302   0.82502 
 C                    -1.12062   1.15591   2.15638 
 C                    -1.83988   0.80186  -0.29126 
 C                    -3.02154  -0.18233  -0.52794 
 C                    -3.83951  -0.42626   0.75559 
 C                    -3.94429   0.45183  -1.59017 
 C                    -2.50134  -1.53037  -1.06864 
 C                     1.07799   2.07849  -0.08551 
 C                     2.52376   1.82288  -0.48759 
 O                     3.34572   2.57709  -0.93129 
 O                     2.80007   0.49048  -0.24212 
 H                     0.90392  -1.54706   2.48682 
 H                     1.44797  -3.20488   1.84519 
 H                    -0.87498  -0.64477   1.00799 
 H                    -2.13327   0.93216   2.501 
 H                    -0.4196    0.85644   2.94299 
 H                    -1.04618   2.24303   2.03904 
 H                    -2.25205   1.79765  -0.07735 
 H                    -1.31292   0.89067  -1.24954 
 H                    -4.69991  -1.07015   0.54068 
 H                    -3.24825  -0.92463   1.53152 
 H                    -4.22415   0.51284   1.17037 
 H                    -4.78439  -0.21215  -1.82347 
 H                    -3.40241   0.64394  -2.52362 
 H                    -4.35843   1.40438  -1.23921 
 H                    -1.93678  -1.39328  -1.99811 
 H                    -1.84737  -2.03964  -0.35254 
 H                    -3.33681  -2.20637  -1.28278 
 H                     0.521     2.47636  -0.9417 
 H                     1.05332   2.85136   0.69283 
 
                          Input orientation:                          
 ---------------------------------------------------------------------
 Center     Atomic      Atomic             Coordinates (Angstroms)
 Number     Number       Type             X           Y           Z
 ---------------------------------------------------------------------
      1          6           0        1.353705   -2.135147    1.695144
      2          6           0        1.794086   -1.549742    0.564520
      3          6           0        2.442689   -2.349046   -0.445837
      4          7           0        2.951518   -3.001492   -1.263100
      5          6           0        1.644631   -0.113562    0.276815
      6          6           0        0.598045    0.726471    0.383272
      7          6           0       -0.813675    0.433015    0.825016
      8          6           0       -1.120620    1.155906    2.156384
      9          6           0       -1.839883    0.801856   -0.291256
     10          6           0       -3.021535   -0.182328   -0.527939
     11          6           0       -3.839514   -0.426257    0.755589
     12          6           0       -3.944291    0.451833   -1.590168
     13          6           0       -2.501342   -1.530368   -1.068639
     14          6           0        1.077994    2.078486   -0.085508
     15          6           0        2.523757    1.822883   -0.487589
     16          8           0        3.345724    2.577091   -0.931287
     17          8           0        2.800071    0.490481   -0.242119
     18          1           0        0.903915   -1.547059    2.486816
     19          1           0        1.447970   -3.204878    1.845185
     20          1           0       -0.874977   -0.644768    1.007991
     21          1           0       -2.133267    0.932155    2.501002
     22          1           0       -0.419600    0.856439    2.942989
     23          1           0       -1.046181    2.243027    2.039043
     24          1           0       -2.252045    1.797652   -0.077348
     25          1           0       -1.312919    0.890666   -1.249535
     26          1           0       -4.699911   -1.070155    0.540684
     27          1           0       -3.248245   -0.924628    1.531518
     28          1           0       -4.224148    0.512841    1.170368
     29          1           0       -4.784386   -0.212154   -1.823471
     30          1           0       -3.402414    0.643935   -2.523615
     31          1           0       -4.358431    1.404377   -1.239205
     32          1           0       -1.936777   -1.393280   -1.998105
     33          1           0       -1.847366   -2.039639   -0.352538
     34          1           0       -3.336810   -2.206375   -1.282780
     35          1           0        0.521001    2.476355   -0.941695
     36          1           0        1.053323    2.851364    0.692826
 ---------------------------------------------------------------------
                    Distance matrix (angstroms):
                    1          2          3          4          5
     1  C    0.000000
     2  C    1.347199   0.000000
     3  C    2.411522   1.442357   0.000000
     4  N    3.471998   2.605268   1.162975   0.000000
     5  C    2.486584   1.472319   2.481232   3.524121   0.000000
     6  C    3.237420   2.577695   3.680888   4.706069   1.346228
     7  C    3.471328   3.286275   4.467531   5.507517   2.577312
     8  C    4.143194   4.283699   5.635017   6.749751   3.576443
     9  C    4.771873   4.412267   5.319070   6.194147   3.647264
    10  C    5.281887   5.123816   5.878703   6.645714   4.735553
    11  C    5.547305   5.747710   6.678818   7.538240   5.513878
    12  C    6.749408   6.448097   7.067385   7.719107   5.919573
    13  C    4.781803   4.595464   5.049907   5.651168   4.583304
    14  C    4.582733   3.754912   4.647071   5.541028   2.292909
    15  C    4.668977   3.607486   4.172925   4.904997   2.259866
    16  O    5.750780   4.655724   5.031696   5.602329   3.404826
    17  O    3.569157   2.413541   2.869170   3.641320   1.403283
    18  H    1.083929   2.118404   3.407560   4.513305   2.736362
    19  H    1.084307   2.121173   2.640208   3.458823   3.471987
    20  H    2.767749   2.852988   4.003135   5.035282   2.676793
    21  H    4.713462   5.033277   6.355274   7.449636   4.507000
    22  H    3.694769   4.043170   5.472840   6.628669   3.508623
    23  H    5.004611   4.962503   6.279648   7.375007   3.987409
    24  H    5.622283   5.290389   6.274665   7.177385   4.354567
    25  H    4.993752   4.347398   5.024565   5.773604   3.476395
    26  H    6.254059   6.511725   7.322945   8.094941   6.421675
    27  H    4.761310   5.172132   6.190770   7.110578   5.115891
    28  H    6.196747   6.390653   7.432983   8.352394   5.969371
    29  H    7.331761   7.125162   7.661253   8.242489   6.764110
    30  H    6.938436   6.430584   6.887694   7.433067   5.821415
    31  H    7.332607   7.059299   7.808511   8.535081   6.374889
    32  H    5.001772   4.528892   4.743706   5.198270   4.431639
    33  H    3.801181   3.786973   4.302210   4.978310   4.037314
    34  H    5.556441   5.492702   5.841527   6.338428   5.623785
    35  H    5.377013   4.483178   5.217591   6.001460   3.074895
    36  H    5.095112   4.464855   5.501923   6.456370   3.051802
                    6          7          8          9         10
     6  C    0.000000
     7  C    1.508048   0.000000
     8  C    2.506422   1.545745   0.000000
     9  C    2.530645   1.560516   2.575584   0.000000
    10  C    3.841560   2.661537   3.551047   1.555937   0.000000
    11  C    4.599927   3.146247   3.443523   2.569566   1.541439
    12  C    4.960112   3.954014   4.743995   2.497643   1.543363
    13  C    4.099703   3.207651   4.418510   2.545805   1.542780
    14  C    1.509321   2.667403   3.272787   3.191571   4.702464
    15  C    2.380942   3.846182   4.551586   4.485799   5.896843
    16  O    3.564071   4.998226   5.612638   5.518299   6.951192
    17  O    2.301244   3.768453   4.644074   4.650650   5.867321
    18  H    3.112458   3.103609   3.393221   4.556700   5.134238
    19  H    4.279611   4.403413   5.070595   5.606093   5.894404
    20  H    2.107217   1.094922   2.149785   2.170670   2.679672
    21  H    3.462247   2.190752   1.092831   2.810651   3.347473
    22  H    2.757652   2.195539   1.095380   3.532778   4.460543
    23  H    2.782984   2.191818   1.095966   2.852583   4.046451
    24  H    3.079385   2.178395   2.584863   1.098746   2.171513
    25  H    2.518889   2.182304   3.421639   1.097213   2.142752
    26  H    5.596515   4.176505   4.514107   3.517998   2.178793
    27  H    4.340339   2.875669   3.040702   2.878669   2.200857
    28  H    4.890675   3.428843   3.319284   2.811511   2.194034
    29  H    5.892478   4.816355   5.579786   3.470734   2.187907
    30  H    4.945753   4.237852   5.231739   2.729445   2.193286
    31  H    5.259148   4.215430   4.698423   2.757666   2.193359
    32  H    4.073036   3.544958   4.942089   2.782327   2.191915
    33  H    3.764680   2.927314   4.127270   2.842166   2.204324
    34  H    5.182702   4.216087   5.295685   3.503336   2.183105
    35  H    2.196262   3.012950   3.746545   2.966613   4.448522
    36  H    2.195056   3.058033   3.121315   3.679612   5.224751
                   11         12         13         14         15
    11  C    0.000000
    12  C    2.506910   0.000000
    13  C    2.517454   2.506634   0.000000
    14  C    5.582389   5.489385   5.177067   0.000000
    15  C    6.862604   6.703067   6.069063   1.522246   0.000000
    16  O    7.968268   7.622018   7.146906   2.471143   1.200553
    17  O    6.776424   6.877874   5.733406   2.347730   1.382715
    18  H    5.172375   6.642475   4.923141   4.448790   4.777811
    19  H    6.071692   7.365437   5.185694   5.637233   5.646019
    20  H    2.983276   4.168171   2.782399   3.525046   4.458414
    21  H    2.793390   4.499799   4.352222   4.279755   5.604725
    22  H    4.257445   5.756446   5.111131   3.592768   4.622362
    23  H    4.071246   4.977810   5.100362   3.008805   4.393728
    24  H    2.856504   2.638854   3.481454   3.341870   4.793456
    25  H    3.484034   2.689372   2.703050   2.912446   4.021153
    26  H    1.095934   2.725425   2.763227   6.609860   7.849101
    27  H    1.095463   3.481960   2.772292   5.509066   6.703851
    28  H    1.096307   2.775356   3.486534   5.669319   7.071015
    29  H    2.755027   1.095933   2.742216   6.529552   7.702916
    30  H    3.477002   1.096292   2.767034   5.298713   6.376113
    31  H    2.756755   1.096370   3.477154   5.598228   6.935747
    32  H    3.484017   2.756985   1.096099   4.979963   5.702782
    33  H    2.792777   3.483713   1.095373   5.058457   5.834726
    34  H    2.752541   2.744010   1.095832   6.267694   7.156360
    35  H    5.506362   4.945507   5.020408   1.096174   2.155057
    36  H    5.889532   5.995495   5.910836   1.097157   2.147866
                   16         17         18         19         20
    16  O    0.000000
    17  O    2.264206   0.000000
    18  H    5.886805   3.897956   0.000000
    19  H    6.688904   4.454289   1.859045   0.000000
    20  H    5.652919   4.044446   2.483044   3.556844   0.000000
    21  H    6.671264   5.661944   3.920609   5.510934   2.509793
    22  H    5.669949   4.543690   2.781472   4.602965   2.491025
    23  H    5.312560   4.802996   4.285805   5.994834   3.071114
    24  H    5.715921   5.221084   5.265179   6.512415   3.006608
    25  H    4.964702   4.253436   4.981684   5.828660   2.765099
    26  H    8.955520   7.700526   5.951280   6.637410   3.876783
    27  H    7.861798   6.459911   4.305862   5.229949   2.446386
    28  H    8.122872   7.164864   5.680955   6.815404   3.547305
    29  H    8.641445   7.779355   7.260669   7.826730   4.846422
    30  H    7.197914   6.610567   6.960556   7.577994   4.530004
    31  H    7.798979   7.285159   7.091297   8.029507   4.624212
    32  H    6.693785   5.391639   5.311092   5.432244   3.274798
    33  H    6.972613   5.292671   3.984233   4.128802   2.177670
    34  H    8.225652   6.783606   5.712119   5.803042   3.707677
    35  H    2.826538   3.102783   5.299922   6.395497   3.935917
    36  H    2.822777   3.082048   4.752562   6.177519   4.005073
                   21         22         23         24         25
    21  H    0.000000
    22  H    1.771367   0.000000
    23  H    1.764525   1.769844   0.000000
    24  H    2.722330   3.655978   2.476202   0.000000
    25  H    3.839430   4.286776   3.565778   1.754595   0.000000
    26  H    3.799968   5.272940   5.154803   3.820776   4.303652
    27  H    2.372913   3.628455   3.891106   3.315369   3.843831
    28  H    2.513602   4.211274   3.721238   2.663968   3.804463
    29  H    5.199898   6.550755   5.909408   3.674373   3.687370
    30  H    5.190432   6.231059   5.378362   2.939155   2.459704
    31  H    4.377613   5.771081   4.735108   2.437507   3.088551
    32  H    5.068355   5.637151   5.505856   3.737746   2.483136
    33  H    4.129890   4.613706   4.970190   3.868371   3.110776
    34  H    5.061215   5.978969   6.006552   4.319955   3.699852
    35  H    4.613226   4.312729   3.375693   2.982871   2.443857
    36  H    4.136087   3.348501   2.567156   3.553721   3.635410
                   26         27         28         29         30
    26  H    0.000000
    27  H    1.763594   0.000000
    28  H    1.768821   1.774580   0.000000
    29  H    2.516452   3.758098   3.130903   0.000000
    30  H    3.743198   4.350662   3.786548   1.770010   0.000000
    31  H    3.067234   3.785985   2.572724   1.770869   1.772555
    32  H    3.766267   3.794446   4.347940   3.087788   2.564078
    33  H    3.142413   2.599111   3.805718   3.758914   3.785937
    34  H    2.544418   3.093702   3.768214   2.522844   3.109380
    35  H    6.483294   5.647184   5.552714   6.012715   4.610143
    36  H    6.964277   5.784895   5.792101   7.056610   5.922147
                   31         32         33         34         35
    31  H    0.000000
    32  H    3.777198   0.000000
    33  H    4.353490   1.770216   0.000000
    34  H    3.752751   1.770002   1.763971   0.000000
    35  H    5.004648   4.704333   5.133271   6.076759   0.000000
    36  H    5.925673   5.847975   5.781755   6.982622   1.759448
                   36
    36  H    0.000000
 Stoichiometry    C14H19NO2
 Framework group  C1[X(C14H19NO2)]
 Deg. of freedom   102
 Full point group                 C1      NOp   1
 Largest Abelian subgroup         C1      NOp   1
 Largest concise Abelian subgroup C1      NOp   1
                         Standard orientation:                         
 ---------------------------------------------------------------------
 Center     Atomic      Atomic             Coordinates (Angstroms)
 Number     Number       Type             X           Y           Z
 ---------------------------------------------------------------------
      1          6           0       -1.353705    2.135147    1.695144
      2          6           0       -1.794086    1.549742    0.564520
      3          6           0       -2.442689    2.349046   -0.445837
      4          7           0       -2.951518    3.001492   -1.263100
      5          6           0       -1.644631    0.113562    0.276815
      6          6           0       -0.598045   -0.726471    0.383272
      7          6           0        0.813675   -0.433015    0.825016
      8          6           0        1.120620   -1.155906    2.156384
      9          6           0        1.839883   -0.801856   -0.291256
     10          6           0        3.021535    0.182328   -0.527939
     11          6           0        3.839514    0.426257    0.755589
     12          6           0        3.944291   -0.451833   -1.590168
     13          6           0        2.501342    1.530368   -1.068639
     14          6           0       -1.077994   -2.078486   -0.085508
     15          6           0       -2.523757   -1.822883   -0.487589
     16          8           0       -3.345724   -2.577091   -0.931287
     17          8           0       -2.800071   -0.490481   -0.242119
     18          1           0       -0.903915    1.547059    2.486816
     19          1           0       -1.447970    3.204878    1.845185
     20          1           0        0.874977    0.644768    1.007991
     21          1           0        2.133267   -0.932155    2.501002
     22          1           0        0.419600   -0.856439    2.942989
     23          1           0        1.046181   -2.243027    2.039043
     24          1           0        2.252045   -1.797652   -0.077348
     25          1           0        1.312919   -0.890666   -1.249535
     26          1           0        4.699911    1.070155    0.540684
     27          1           0        3.248245    0.924628    1.531518
     28          1           0        4.224148   -0.512841    1.170368
     29          1           0        4.784386    0.212154   -1.823471
     30          1           0        3.402414   -0.643935   -2.523615
     31          1           0        4.358431   -1.404377   -1.239205
     32          1           0        1.936777    1.393280   -1.998105
     33          1           0        1.847366    2.039639   -0.352538
     34          1           0        3.336810    2.206375   -1.282780
     35          1           0       -0.521001   -2.476355   -0.941695
     36          1           0       -1.053323   -2.851364    0.692826
 ---------------------------------------------------------------------
 Rotational constants (GHZ):           0.5919247           0.2990725           0.2488567
 Standard basis: 6-31+G(d,p) (6D, 7F)
 There are   418 symmetry adapted cartesian basis functions of A   symmetry.
 There are   418 symmetry adapted basis functions of A   symmetry.
   418 basis functions,   677 primitive gaussians,   418 cartesian basis functions
    63 alpha electrons       63 beta electrons
       nuclear repulsion energy      1202.2180913516 Hartrees.
 NAtoms=   36 NActive=   36 NUniq=   36 SFac= 1.00D+00 NAtFMM=   60 NAOKFM=F Big=F
 Integral buffers will be    131072 words long.
 Regular integral format.
 Two-electron integral symmetry is turned on.
 One-electron integrals computed using PRISM.
 NBasis=   418 RedAO= T EigKep=  2.66D-06  NBF=   418
 NBsUse=   417 1.00D-06 EigRej=  8.40D-07 NBFU=   417
 ExpMin= 4.38D-02 ExpMax= 5.48D+03 ExpMxC= 8.25D+02 IAcc=3 IRadAn=         5 AccDes= 0.00D+00
 Harris functional with IExCor=  402 and IRadAn=       5 diagonalized for initial guess.
 HarFok:  IExCor=  402 AccDes= 0.00D+00 IRadAn=         5 IDoV= 1 UseB2=F ITyADJ=14
 ICtDFT=  3500011 ScaDFX=  1.000000  1.000000  1.000000  1.000000
 FoFCou: FMM=F IPFlag=           0 FMFlag=      100000 FMFlg1=           0
         NFxFlg=           0 DoJE=T BraDBF=F KetDBF=T FulRan=T
         wScrn=  0.000000 ICntrl=       500 IOpCl=  0 I1Cent=   200000004 NGrid=           0
         NMat0=    1 NMatS0=      1 NMatT0=    0 NMatD0=    1 NMtDS0=    0 NMtDT0=    0
 Petite list used in FoFCou.
 Requested convergence on RMS density matrix=1.00D-08 within 128 cycles.
 Requested convergence on MAX density matrix=1.00D-06.
 Requested convergence on             energy=1.00D-06.
 No special actions if energy rises.
 SCF Done:  E(RB3LYP) =  -750.144089538     A.U. after   15 cycles
            NFock= 15  Conv=0.96D-08     -V/T= 2.0097
 DoSCS=F DFT=T ScalE2(SS,OS)=  1.000000  1.000000
 ExpMin= 4.38D-02 ExpMax= 5.48D+03 ExpMxC= 8.25D+02 IAcc=3 IRadAn=         5 AccDes= 0.00D+00
 HarFok:  IExCor=  205 AccDes= 0.00D+00 IRadAn=         5 IDoV=-2 UseB2=F ITyADJ=14
 ICtDFT= 12500011 ScaDFX=  1.000000  1.000000  1.000000  1.000000
 Range of M.O.s used for correlation:    18   417
 NBasis=   418 NAE=    63 NBE=    63 NFC=    17 NFV=     0
 NROrb=    400 NOA=    46 NOB=    46 NVA=   354 NVB=   354

 **** Warning!!: The largest alpha MO coefficient is  0.12445974D+03

 Orbital symmetries:
       Occupied  (A) (A) (A) (A) (A) (A) (A) (A) (A) (A) (A) (A)
                 (A) (A) (A) (A) (A) (A) (A) (A) (A) (A) (A) (A)
                 (A) (A) (A) (A) (A) (A) (A) (A) (A) (A) (A) (A)
                 (A) (A) (A) (A) (A) (A) (A) (A) (A) (A) (A) (A)
                 (A) (A) (A) (A) (A) (A) (A) (A) (A) (A) (A) (A)
                 (A) (A) (A)
       Virtual   (A) (A) (A) (A) (A) (A) (A) (A) (A) (A) (A) (A)
                 (A) (A) (A) (A) (A) (A) (A) (A) (A) (A) (A) (A)
                 (A) (A) (A) (A) (A) (A) (A) (A) (A) (A) (A) (A)
                 (A) (A) (A) (A) (A) (A) (A) (A) (A) (A) (A) (A)
                 (A) (A) (A) (A) (A) (A) (A) (A) (A) (A) (A) (A)
                 (A) (A) (A) (A) (A) (A) (A) (A) (A) (A) (A) (A)
                 (A) (A) (A) (A) (A) (A) (A) (A) (A) (A) (A) (A)
                 (A) (A) (A) (A) (A) (A) (A) (A) (A) (A) (A) (A)
                 (A) (A) (A) (A) (A) (A) (A) (A) (A) (A) (A) (A)
                 (A) (A) (A) (A) (A) (A) (A) (A) (A) (A) (A) (A)
                 (A) (A) (A) (A) (A) (A) (A) (A) (A) (A) (A) (A)
                 (A) (A) (A) (A) (A) (A) (A) (A) (A) (A) (A) (A)
                 (A) (A) (A) (A) (A) (A) (A) (A) (A) (A) (A) (A)
                 (A) (A) (A) (A) (A) (A) (A) (A) (A) (A) (A) (A)
                 (A) (A) (A) (A) (A) (A) (A) (A) (A) (A) (A) (A)
                 (A) (A) (A) (A) (A) (A) (A) (A) (A) (A) (A) (A)
                 (A) (A) (A) (A) (A) (A) (A) (A) (A) (A) (A) (A)
                 (A) (A) (A) (A) (A) (A) (A) (A) (A) (A) (A) (A)
                 (A) (A) (A) (A) (A) (A) (A) (A) (A) (A) (A) (A)
                 (A) (A) (A) (A) (A) (A) (A) (A) (A) (A) (A) (A)
                 (A) (A) (A) (A) (A) (A) (A) (A) (A) (A) (A) (A)
                 (A) (A) (A) (A) (A) (A) (A) (A) (A) (A) (A) (A)
                 (A) (A) (A) (A) (A) (A) (A) (A) (A) (A) (A) (A)
                 (A) (A) (A) (A) (A) (A) (A) (A) (A) (A) (A) (A)
                 (A) (A) (A) (A) (A) (A) (A) (A) (A) (A) (A) (A)
                 (A) (A) (A) (A) (A) (A) (A) (A) (A) (A) (A) (A)
                 (A) (A) (A) (A) (A) (A) (A) (A) (A) (A) (A) (A)
                 (A) (A) (A) (A) (A) (A) (A) (A) (A) (A) (A) (A)
                 (A) (A) (A) (A) (A) (A) (A) (A) (A) (A) (A) (A)
                 (A) (A) (A) (A) (A) (A)
    24 initial guesses have been made.
 Convergence on wavefunction:    0.001000000000000
 Iteration     1 Dimension    24 NMult     0 NNew     24
 CISAX will form    24 AO SS matrices at one time.
 New state      1 was old state      2
 New state      2 was old state      8
 New state      3 was old state      1
 New state      4 was old state      6
 New state      5 was old state      4
 New state      6 was old state      3
 New state      7 was old state     24
 New state      8 was old state     10
 New state      9 was old state      5
 New state     10 was old state     16
 New state     11 was old state      9
 New state     12 was old state     23
 Vector   5 SDiff=8.14D+00 TDiff=9.05D+00 assumed to be singlet.
 Vector  11 SDiff=8.15D+00 TDiff=8.83D+00 assumed to be singlet.
 Iteration     2 Dimension    36 NMult    24 NNew     12
 New state      5 was old state      6
 New state      6 was old state      9
 Iteration     3 Dimension    48 NMult    36 NNew     12
 Iteration     4 Dimension    60 NMult    48 NNew     12
 Iteration     5 Dimension    72 NMult    60 NNew     12
 Iteration     6 Dimension    76 NMult    72 NNew      4
 ***********************************************************************
 Excited states from <AA,BB:AA,BB> singles matrix:
 ***********************************************************************
 
 Ground to excited state transition densities written to RWF  633
 Ground to excited state transition electric dipole moments (Au):
       state          X           Y           Z        Dip. S.      Osc.
         1        -0.0000      0.0000     -0.0000      0.0000      0.0000
         2        -0.0000      0.0000     -0.0000      0.0000      0.0000
         3         0.4219     -0.7387     -0.2466      0.7845      0.0772
         4        -0.0000      0.0000      0.0000      0.0000      0.0000
         5         0.0019      0.1947      0.0815      0.0445      0.0054
         6         0.6991     -0.0043      0.1311      0.5059      0.0653
 Ground to excited state transition velocity dipole moments (Au):
       state          X           Y           Z        Dip. S.      Osc.
         1         0.0000      0.0000     -0.0000      0.0000      0.0000
         2        -0.0000     -0.0000      0.0000      0.0000      0.0000
         3        -0.0648      0.1072      0.0338      0.0168      0.0760
         4        -0.0000      0.0000     -0.0000      0.0000      0.0000
         5        -0.0008     -0.0345     -0.0125      0.0013      0.0049
         6        -0.1330     -0.0007     -0.0248      0.0183      0.0630
 Ground to excited state transition magnetic dipole moments (Au):
       state          X           Y           Z
         1        -0.0000      0.0000      0.0000
         2         0.0000      0.0000      0.0000
         3         0.0866      0.1557     -0.4104
         4         0.0000     -0.0000      0.0000
         5        -0.1949     -0.4023      0.0779
         6        -0.1077     -0.2153      0.1382
 Ground to excited state transition velocity quadrupole moments (Au):
       state          XX          YY          ZZ          XY          XZ          YZ
         1        -0.0000     -0.0000     -0.0000     -0.0000      0.0000      0.0000
         2         0.0000      0.0000      0.0000      0.0000     -0.0000      0.0000
         3         0.0193      0.2294      0.1254     -0.2252     -0.1334      0.3260
         4        -0.0000     -0.0000     -0.0000      0.0000      0.0000      0.0000
         5         0.0259      0.0202     -0.0571      0.0914      0.0833     -0.1245
         6         0.4563      0.2031     -0.0435      0.4706      0.1975      0.2590
 <0|del|b> * <b|rxdel|0> + <0|del|b> * <b|delr+rdel|0>
 Rotatory Strengths (R) in cgs (10**-40 erg-esu-cm/Gauss)
       state          XX          YY          ZZ    R(velocity)    E-M Angle
         1         0.0000     -0.0000      0.0000     -0.0000       90.00
         2         0.0000     -0.0000      0.0000     -0.0000       90.00
         3        22.7320    -79.0889     42.8827     -4.4914       92.78
         4        -0.0000      0.0000      0.0000     -0.0000       90.00
         5        28.3683      0.7988     21.4375     16.8682       38.40
         6       -27.0477    -21.6973     89.0653     13.4401       72.90
 1/2[<0|r|b>*<b|rxdel|0> + (<0|rxdel|b>*<b|r|0>)*]
 Rotatory Strengths (R) in cgs (10**-40 erg-esu-cm/Gauss)
       state          XX          YY          ZZ     R(length)
         1        -0.0000     -0.0000      0.0000     -0.0000
         2         0.0000     -0.0000      0.0000      0.0000
         3       -25.8490     81.3117    -71.5835     -5.3736
         4         0.0000      0.0000     -0.0000      0.0000
         5         0.2637     55.3835     -4.4868     17.0534
         6        53.2606     -0.6524    -12.8155     13.2642
  1/2[<0|del|b>*<b|r|0> + (<0|r|b>*<b|del|0>)*] (Au)
       state          X           Y           Z        Dip. S.   Osc.(frdel)
         1        -0.0000      0.0000      0.0000      0.0000      0.0000
         2         0.0000     -0.0000     -0.0000      0.0000      0.0000
         3        -0.0273     -0.0792     -0.0083      0.1148      0.0766
         4         0.0000      0.0000     -0.0000     -0.0000     -0.0000
         5        -0.0000     -0.0067     -0.0010      0.0077      0.0052
         6        -0.0930      0.0000     -0.0032      0.0962      0.0641

 Excitation energies and oscillator strengths:
 
 Excited State   1:      Triplet-A      2.7075 eV  457.93 nm  f=0.0000  <S**2>=2.000
      61 -> 64         0.27385
      63 -> 64         0.61933
      63 -> 65         0.10315
 This state for optimization and/or second-order correction.
 Total Energy, E(TD-HF/TD-DFT) =  -750.044591922    
 Copying the excited state density for this state as the 1-particle RhoCI density.
 
 Excited State   2:      Triplet-A      3.6671 eV  338.10 nm  f=0.0000  <S**2>=2.000
      61 -> 64         0.51500
      62 -> 64        -0.19806
      63 -> 64        -0.17360
      63 -> 65        -0.31826
      63 -> 68        -0.10797
 
 Excited State   3:      Singlet-A      4.0153 eV  308.78 nm  f=0.0772  <S**2>=0.000
      61 -> 64        -0.10301
      63 -> 64         0.69187
 
 Excited State   4:      Triplet-A      4.5252 eV  273.99 nm  f=0.0000  <S**2>=2.000
      61 -> 64         0.24647
      61 -> 65        -0.10882
      62 -> 64        -0.12637
      63 -> 64        -0.26057
      63 -> 65         0.55828
 
 Excited State   5:      Singlet-A      4.9647 eV  249.73 nm  f=0.0054  <S**2>=0.000
      61 -> 64         0.10401
      62 -> 64         0.65730
      62 -> 65         0.17949
      63 -> 65        -0.12562
 
 Excited State   6:      Singlet-A      5.2709 eV  235.22 nm  f=0.0653  <S**2>=0.000
      61 -> 64         0.11814
      62 -> 64         0.10965
      63 -> 65         0.67517
 SavETr:  write IOETrn=   770 NScale= 10 NData=  16 NLR=1 NState=    6 LETran=     118.

 **********************************************************************

            Population analysis using the SCF Density.

 **********************************************************************

 Orbital symmetries:
       Occupied  (A) (A) (A) (A) (A) (A) (A) (A) (A) (A) (A) (A)
                 (A) (A) (A) (A) (A) (A) (A) (A) (A) (A) (A) (A)
                 (A) (A) (A) (A) (A) (A) (A) (A) (A) (A) (A) (A)
                 (A) (A) (A) (A) (A) (A) (A) (A) (A) (A) (A) (A)
                 (A) (A) (A) (A) (A) (A) (A) (A) (A) (A) (A) (A)
                 (A) (A) (A)
       Virtual   (A) (A) (A) (A) (A) (A) (A) (A) (A) (A) (A) (A)
                 (A) (A) (A) (A) (A) (A) (A) (A) (A) (A) (A) (A)
                 (A) (A) (A) (A) (A) (A) (A) (A) (A) (A) (A) (A)
                 (A) (A) (A) (A) (A) (A) (A) (A) (A) (A) (A) (A)
                 (A) (A) (A) (A) (A) (A) (A) (A) (A) (A) (A) (A)
                 (A) (A) (A) (A) (A) (A) (A) (A) (A) (A) (A) (A)
                 (A) (A) (A) (A) (A) (A) (A) (A) (A) (A) (A) (A)
                 (A) (A) (A) (A) (A) (A) (A) (A) (A) (A) (A) (A)
                 (A) (A) (A) (A) (A) (A) (A) (A) (A) (A) (A) (A)
                 (A) (A) (A) (A) (A) (A) (A) (A) (A) (A) (A) (A)
                 (A) (A) (A) (A) (A) (A) (A) (A) (A) (A) (A) (A)
                 (A) (A) (A) (A) (A) (A) (A) (A) (A) (A) (A) (A)
                 (A) (A) (A) (A) (A) (A) (A) (A) (A) (A) (A) (A)
                 (A) (A) (A) (A) (A) (A) (A) (A) (A) (A) (A) (A)
                 (A) (A) (A) (A) (A) (A) (A) (A) (A) (A) (A) (A)
                 (A) (A) (A) (A) (A) (A) (A) (A) (A) (A) (A) (A)
                 (A) (A) (A) (A) (A) (A) (A) (A) (A) (A) (A) (A)
                 (A) (A) (A) (A) (A) (A) (A) (A) (A) (A) (A) (A)
                 (A) (A) (A) (A) (A) (A) (A) (A) (A) (A) (A) (A)
                 (A) (A) (A) (A) (A) (A) (A) (A) (A) (A) (A) (A)
                 (A) (A) (A) (A) (A) (A) (A) (A) (A) (A) (A) (A)
                 (A) (A) (A) (A) (A) (A) (A) (A) (A) (A) (A) (A)
                 (A) (A) (A) (A) (A) (A) (A) (A) (A) (A) (A) (A)
                 (A) (A) (A) (A) (A) (A) (A) (A) (A) (A) (A) (A)
                 (A) (A) (A) (A) (A) (A) (A) (A) (A) (A) (A) (A)
                 (A) (A) (A) (A) (A) (A) (A) (A) (A) (A) (A) (A)
                 (A) (A) (A) (A) (A) (A) (A) (A) (A) (A) (A) (A)
                 (A) (A) (A) (A) (A) (A) (A) (A) (A) (A) (A) (A)
                 (A) (A) (A) (A) (A) (A) (A) (A) (A) (A) (A) (A)
                 (A) (A) (A) (A) (A) (A)
 The electronic state is 1-A.
 Alpha  occ. eigenvalues --  -19.22747 -19.16630 -14.35805 -10.34245 -10.28544
 Alpha  occ. eigenvalues --  -10.27557 -10.24914 -10.24550 -10.23550 -10.23254
 Alpha  occ. eigenvalues --  -10.22805 -10.21897 -10.20501 -10.20447 -10.19153
 Alpha  occ. eigenvalues --  -10.18885 -10.18846  -1.13581  -1.05632  -0.92516
 Alpha  occ. eigenvalues --   -0.87155  -0.85029  -0.83322  -0.78761  -0.74690
 Alpha  occ. eigenvalues --   -0.70842  -0.69977  -0.69745  -0.68409  -0.64273
 Alpha  occ. eigenvalues --   -0.61387  -0.58074  -0.55440  -0.55004  -0.51401
 Alpha  occ. eigenvalues --   -0.49909  -0.48915  -0.47994  -0.46873  -0.46120
 Alpha  occ. eigenvalues --   -0.45440  -0.44264  -0.44081  -0.43187  -0.42706
 Alpha  occ. eigenvalues --   -0.42011  -0.41264  -0.40065  -0.39907  -0.39447
 Alpha  occ. eigenvalues --   -0.38218  -0.37905  -0.37739  -0.37160  -0.36569
 Alpha  occ. eigenvalues --   -0.36368  -0.34965  -0.33726  -0.33323  -0.33195
 Alpha  occ. eigenvalues --   -0.30975  -0.29600  -0.25628
 Alpha virt. eigenvalues --   -0.08678  -0.03469  -0.01774  -0.00654  -0.00020
 Alpha virt. eigenvalues --    0.00202   0.00756   0.01972   0.02159   0.02550
 Alpha virt. eigenvalues --    0.02777   0.02975   0.03340   0.03998   0.04243
 Alpha virt. eigenvalues --    0.05211   0.05310   0.05743   0.06091   0.06341
 Alpha virt. eigenvalues --    0.06962   0.07221   0.07541   0.08024   0.08494
 Alpha virt. eigenvalues --    0.08531   0.08775   0.09734   0.09884   0.10354
 Alpha virt. eigenvalues --    0.10821   0.11281   0.11460   0.12394   0.12581
 Alpha virt. eigenvalues --    0.13141   0.13202   0.13529   0.14189   0.14452
 Alpha virt. eigenvalues --    0.14746   0.15276   0.15612   0.15920   0.16310
 Alpha virt. eigenvalues --    0.16515   0.17434   0.17755   0.18499   0.18950
 Alpha virt. eigenvalues --    0.19034   0.19143   0.19439   0.19992   0.20126
 Alpha virt. eigenvalues --    0.20555   0.20866   0.21452   0.21529   0.21858
 Alpha virt. eigenvalues --    0.22863   0.23156   0.23550   0.23672   0.24065
 Alpha virt. eigenvalues --    0.24562   0.25215   0.25633   0.25796   0.26111
 Alpha virt. eigenvalues --    0.26354   0.26941   0.27226   0.27581   0.27856
 Alpha virt. eigenvalues --    0.27971   0.28797   0.28989   0.29433   0.29778
 Alpha virt. eigenvalues --    0.29986   0.30834   0.31023   0.31313   0.31737
 Alpha virt. eigenvalues --    0.32326   0.33209   0.34128   0.34633   0.35129
 Alpha virt. eigenvalues --    0.35367   0.35667   0.36754   0.37275   0.38378
 Alpha virt. eigenvalues --    0.38473   0.39335   0.40171   0.40490   0.41675
 Alpha virt. eigenvalues --    0.42386   0.44112   0.44558   0.46119   0.49414
 Alpha virt. eigenvalues --    0.51485   0.52214   0.61462   0.63826   0.64336
 Alpha virt. eigenvalues --    0.65488   0.66562   0.67608   0.67763   0.68546
 Alpha virt. eigenvalues --    0.69226   0.70456   0.71534   0.71880   0.72658
 Alpha virt. eigenvalues --    0.73122   0.74138   0.75078   0.75615   0.76393
 Alpha virt. eigenvalues --    0.76725   0.77931   0.78317   0.78503   0.79831
 Alpha virt. eigenvalues --    0.80203   0.80740   0.81578   0.81926   0.82899
 Alpha virt. eigenvalues --    0.84064   0.86041   0.86231   0.86978   0.88700
 Alpha virt. eigenvalues --    0.89321   0.90022   0.92314   0.93060   0.93263
 Alpha virt. eigenvalues --    0.95290   0.95862   0.97634   0.98671   0.98765
 Alpha virt. eigenvalues --    0.99586   1.00570   1.01126   1.02079   1.02615
 Alpha virt. eigenvalues --    1.03408   1.03652   1.04448   1.04603   1.06311
 Alpha virt. eigenvalues --    1.06745   1.07262   1.07855   1.09893   1.11806
 Alpha virt. eigenvalues --    1.13194   1.14157   1.15183   1.15753   1.16489
 Alpha virt. eigenvalues --    1.17557   1.18544   1.19205   1.20310   1.21626
 Alpha virt. eigenvalues --    1.23050   1.23871   1.26264   1.27453   1.29089
 Alpha virt. eigenvalues --    1.30605   1.31484   1.32340   1.32817   1.34909
 Alpha virt. eigenvalues --    1.37588   1.38326   1.39868   1.40784   1.42471
 Alpha virt. eigenvalues --    1.42955   1.45010   1.46644   1.48232   1.48475
 Alpha virt. eigenvalues --    1.49277   1.49992   1.52474   1.52941   1.55062
 Alpha virt. eigenvalues --    1.56170   1.61303   1.61945   1.63709   1.66441
 Alpha virt. eigenvalues --    1.67800   1.70065   1.71285   1.73350   1.74292
 Alpha virt. eigenvalues --    1.76190   1.78413   1.79817   1.82072   1.82411
 Alpha virt. eigenvalues --    1.83361   1.85342   1.85483   1.86437   1.86817
 Alpha virt. eigenvalues --    1.87579   1.87954   1.88944   1.89409   1.91105
 Alpha virt. eigenvalues --    1.91979   1.92421   1.93191   1.94481   1.94699
 Alpha virt. eigenvalues --    1.95982   1.98685   1.99397   1.99798   2.01302
 Alpha virt. eigenvalues --    2.01768   2.03444   2.03677   2.04194   2.04857
 Alpha virt. eigenvalues --    2.05645   2.08482   2.08993   2.10230   2.10353
 Alpha virt. eigenvalues --    2.11675   2.12386   2.12509   2.13534   2.14401
 Alpha virt. eigenvalues --    2.15116   2.15691   2.16609   2.17150   2.18639
 Alpha virt. eigenvalues --    2.19344   2.22895   2.24347   2.25623   2.28367
 Alpha virt. eigenvalues --    2.29811   2.30498   2.31417   2.34783   2.34987
 Alpha virt. eigenvalues --    2.35298   2.37304   2.37779   2.39716   2.39956
 Alpha virt. eigenvalues --    2.41811   2.44907   2.48380   2.49053   2.50551
 Alpha virt. eigenvalues --    2.51272   2.52818   2.53871   2.54569   2.57481
 Alpha virt. eigenvalues --    2.58758   2.61404   2.62731   2.64842   2.66374
 Alpha virt. eigenvalues --    2.69153   2.69719   2.71298   2.72496   2.73413
 Alpha virt. eigenvalues --    2.74055   2.74683   2.76317   2.76724   2.77975
 Alpha virt. eigenvalues --    2.79116   2.80514   2.80694   2.81244   2.85007
 Alpha virt. eigenvalues --    2.86399   2.87139   2.88117   2.88647   2.89305
 Alpha virt. eigenvalues --    2.90346   2.93644   2.95424   2.95750   2.96413
 Alpha virt. eigenvalues --    2.98604   2.99853   3.01400   3.06154   3.14617
 Alpha virt. eigenvalues --    3.22458   3.23634   3.25934   3.26911   3.27932
 Alpha virt. eigenvalues --    3.28107   3.28766   3.34776   3.37524   3.38653
 Alpha virt. eigenvalues --    3.41804   3.43943   3.44915   3.44955   3.45461
 Alpha virt. eigenvalues --    3.47055   3.48337   3.50368   3.52707   3.53753
 Alpha virt. eigenvalues --    3.56309   3.60136   4.22663   4.28451   4.32818
 Alpha virt. eigenvalues --    4.35360   4.37409   4.41391   4.43211   4.48326
 Alpha virt. eigenvalues --    4.57567   4.58647   4.59965   4.63431   4.68683
 Alpha virt. eigenvalues --    4.74774   4.76010   4.79762   4.85900
          Condensed to atoms (all electrons):
               1          2          3          4          5          6
     1  C    7.552338  -0.854600  -1.534541   0.014267   1.729963  -1.789299
     2  C   -0.854600   8.924101  -0.251820   0.059357  -3.302128   0.554392
     3  C   -1.534541  -0.251820   9.659031   0.199245  -2.662907   1.007418
     4  N    0.014267   0.059357   0.199245   7.171236   0.040390  -0.011490
     5  C    1.729963  -3.302128  -2.662907   0.040390  16.598878  -6.357732
     6  C   -1.789299   0.554392   1.007418  -0.011490  -6.357732  20.824251
     7  C    0.559582   0.790832  -0.269955  -0.007711   1.327846  -8.525273
     8  C    0.178684  -0.456479  -0.086925  -0.000377   1.169421  -1.082225
     9  C   -0.291017   0.604342   0.197214   0.000751  -1.243591   0.639193
    10  C   -0.091174  -0.083217   0.049551   0.000962  -0.038259   0.820476
    11  C    0.046332  -0.012614  -0.011452  -0.000402   0.061221  -0.385873
    12  C   -0.027000   0.025183   0.015397   0.000154  -0.075163   0.020945
    13  C    0.007207   0.013160  -0.027662   0.000038  -0.062860   0.196351
    14  C   -0.110639   0.111093   0.049375  -0.002156  -2.035824  -0.562443
    15  C    0.070298  -0.139447  -0.195442   0.008846   0.570975   0.110509
    16  O   -0.003959   0.040901  -0.003733   0.000159  -0.017915   0.023020
    17  O   -0.021370  -0.189292  -0.008103   0.003905  -0.054754   0.403898
    18  H    0.456998  -0.144671  -0.019010  -0.000238   0.066993   0.029431
    19  H    0.445403  -0.080701  -0.013335   0.000004   0.014928  -0.017973
    20  H    0.006338  -0.013233  -0.015026   0.000090   0.064360  -0.079794
    21  H   -0.004322   0.010808   0.000636   0.000001  -0.037097  -0.024930
    22  H   -0.003092  -0.005879   0.001860  -0.000006   0.015018   0.079428
    23  H   -0.000185  -0.006524  -0.000139   0.000000   0.031960   0.091743
    24  H    0.000524  -0.008626  -0.000434  -0.000000   0.023407   0.048116
    25  H    0.002217   0.012959  -0.003128  -0.000004  -0.018274   0.063016
    26  H   -0.000081   0.000063   0.000038  -0.000000   0.001188  -0.013272
    27  H    0.002615  -0.000345  -0.000085  -0.000001  -0.002256   0.003178
    28  H   -0.000004  -0.000381  -0.000014   0.000000  -0.000900   0.015989
    29  H   -0.000026  -0.000020  -0.000024   0.000000  -0.000459  -0.000320
    30  H   -0.000108   0.000234   0.000106  -0.000001  -0.000126  -0.004454
    31  H   -0.000049  -0.000006   0.000009   0.000000  -0.000089  -0.003548
    32  H   -0.003270   0.005551   0.001837   0.000021  -0.012092  -0.003068
    33  H    0.012574  -0.004567  -0.007194   0.000093   0.003866  -0.004407
    34  H   -0.000237   0.001712  -0.000816   0.000018  -0.002963   0.010760
    35  H   -0.003329   0.008668   0.006832  -0.000049  -0.087527   0.008963
    36  H    0.005081  -0.033043  -0.005287   0.000014   0.051937  -0.030698
               7          8          9         10         11         12
     1  C    0.559582   0.178684  -0.291017  -0.091174   0.046332  -0.027000
     2  C    0.790832  -0.456479   0.604342  -0.083217  -0.012614   0.025183
     3  C   -0.269955  -0.086925   0.197214   0.049551  -0.011452   0.015397
     4  N   -0.007711  -0.000377   0.000751   0.000962  -0.000402   0.000154
     5  C    1.327846   1.169421  -1.243591  -0.038259   0.061221  -0.075163
     6  C   -8.525273  -1.082225   0.639193   0.820476  -0.385873   0.020945
     7  C   14.632620  -0.177909  -2.129285  -0.377250   0.600503  -0.619327
     8  C   -0.177909   6.658762  -0.755990   0.094797   0.051635  -0.045815
     9  C   -2.129285  -0.755990   9.759769  -1.020084  -0.329983   0.940681
    10  C   -0.377250   0.094797  -1.020084   8.327552  -0.255535  -0.944783
    11  C    0.600503   0.051635  -0.329983  -0.255535   6.146290  -0.393012
    12  C   -0.619327  -0.045815   0.940681  -0.944783  -0.393012   6.565864
    13  C    0.044877  -0.045016  -0.276216   0.098276  -0.344313  -0.291457
    14  C    1.236465  -0.376679  -0.373085  -0.047702   0.044981  -0.023112
    15  C   -0.546471   0.039979   0.011161   0.015328  -0.012629   0.002941
    16  O    0.018564  -0.002294   0.000564  -0.000840  -0.000000   0.000012
    17  O   -0.186927   0.006940   0.023541   0.006050  -0.000618   0.000468
    18  H   -0.027662  -0.006375  -0.010865  -0.000287   0.000025  -0.000222
    19  H    0.005944   0.000629   0.000122  -0.000504  -0.000169  -0.000001
    20  H    0.212326  -0.027061   0.187855  -0.018401  -0.013538   0.007868
    21  H   -0.027662   0.408242   0.010615   0.009805  -0.008815  -0.001203
    22  H   -0.212031   0.489864   0.004132   0.015629  -0.004966  -0.000199
    23  H   -0.198885   0.492572  -0.002436  -0.003802   0.001984   0.002377
    24  H   -0.179489   0.021314   0.473572  -0.029467  -0.012743  -0.009450
    25  H   -0.154526  -0.039741   0.540797  -0.062169   0.009194  -0.008629
    26  H   -0.011880   0.011308   0.004877  -0.093291   0.479582  -0.005012
    27  H    0.024249  -0.024897   0.010704  -0.108455   0.462944   0.007385
    28  H    0.011983  -0.002158  -0.029684  -0.064430   0.447652  -0.035837
    29  H   -0.005305   0.000084   0.000467  -0.081987  -0.012699   0.450700
    30  H   -0.005219  -0.002269   0.036116  -0.148346   0.006686   0.492942
    31  H   -0.018720   0.004818   0.025684  -0.126576  -0.022226   0.486442
    32  H    0.037802   0.000092  -0.056609  -0.043238   0.012962  -0.048018
    33  H   -0.035178   0.002660   0.023312  -0.072489  -0.038951   0.029131
    34  H   -0.000096  -0.004247   0.006737  -0.077888  -0.024559  -0.024562
    35  H   -0.072648  -0.027798   0.059904  -0.007295  -0.001181   0.002675
    36  H   -0.054306   0.026429  -0.038685   0.002310   0.000403  -0.000670
              13         14         15         16         17         18
     1  C    0.007207  -0.110639   0.070298  -0.003959  -0.021370   0.456998
     2  C    0.013160   0.111093  -0.139447   0.040901  -0.189292  -0.144671
     3  C   -0.027662   0.049375  -0.195442  -0.003733  -0.008103  -0.019010
     4  N    0.000038  -0.002156   0.008846   0.000159   0.003905  -0.000238
     5  C   -0.062860  -2.035824   0.570975  -0.017915  -0.054754   0.066993
     6  C    0.196351  -0.562443   0.110509   0.023020   0.403898   0.029431
     7  C    0.044877   1.236465  -0.546471   0.018564  -0.186927  -0.027662
     8  C   -0.045016  -0.376679   0.039979  -0.002294   0.006940  -0.006375
     9  C   -0.276216  -0.373085   0.011161   0.000564   0.023541  -0.010865
    10  C    0.098276  -0.047702   0.015328  -0.000840   0.006050  -0.000287
    11  C   -0.344313   0.044981  -0.012629  -0.000000  -0.000618   0.000025
    12  C   -0.291457  -0.023112   0.002941   0.000012   0.000468  -0.000222
    13  C    5.823068   0.039976   0.004927  -0.000016  -0.000242   0.000754
    14  C    0.039976   8.220971  -0.374125  -0.152071  -0.177236   0.003407
    15  C    0.004927  -0.374125   5.492108   0.406837   0.021788   0.000994
    16  O   -0.000016  -0.152071   0.406837   8.229594  -0.064444   0.000004
    17  O   -0.000242  -0.177236   0.021788  -0.064444   8.487558   0.000100
    18  H    0.000754   0.003407   0.000994   0.000004   0.000100   0.522498
    19  H    0.000444  -0.000815  -0.000333  -0.000000  -0.000221  -0.030476
    20  H   -0.013352  -0.052858   0.004345   0.000014   0.000803  -0.000894
    21  H    0.002704   0.020278  -0.001497  -0.000001   0.000029  -0.000031
    22  H   -0.001878  -0.032732   0.004967   0.000010   0.000178   0.001013
    23  H   -0.001448  -0.067621   0.006302  -0.000013   0.000220  -0.000001
    24  H    0.007492  -0.035266   0.001719  -0.000029   0.000164  -0.000000
    25  H   -0.010491  -0.028624   0.003353   0.000032  -0.000380  -0.000002
    26  H   -0.022908  -0.000290  -0.000052   0.000000  -0.000000  -0.000000
    27  H   -0.028452   0.001219  -0.000005   0.000000  -0.000002  -0.000010
    28  H    0.006378   0.000737   0.000120  -0.000000   0.000000   0.000000
    29  H    0.000898   0.000191  -0.000008  -0.000000   0.000000   0.000000
    30  H   -0.025591   0.001215  -0.000163  -0.000000  -0.000001  -0.000000
    31  H    0.003875   0.000133   0.000004   0.000000  -0.000000   0.000000
    32  H    0.454439   0.005407  -0.000768   0.000001  -0.000024   0.000000
    33  H    0.440230  -0.002978   0.000784  -0.000000   0.000036  -0.000008
    34  H    0.467482   0.000546  -0.000010   0.000000  -0.000001  -0.000000
    35  H    0.001121   0.415903   0.012316  -0.003463   0.009556  -0.000001
    36  H   -0.000249   0.380987   0.012343  -0.005177   0.010247   0.000004
              19         20         21         22         23         24
     1  C    0.445403   0.006338  -0.004322  -0.003092  -0.000185   0.000524
     2  C   -0.080701  -0.013233   0.010808  -0.005879  -0.006524  -0.008626
     3  C   -0.013335  -0.015026   0.000636   0.001860  -0.000139  -0.000434
     4  N    0.000004   0.000090   0.000001  -0.000006   0.000000  -0.000000
     5  C    0.014928   0.064360  -0.037097   0.015018   0.031960   0.023407
     6  C   -0.017973  -0.079794  -0.024930   0.079428   0.091743   0.048116
     7  C    0.005944   0.212326  -0.027662  -0.212031  -0.198885  -0.179489
     8  C    0.000629  -0.027061   0.408242   0.489864   0.492572   0.021314
     9  C    0.000122   0.187855   0.010615   0.004132  -0.002436   0.473572
    10  C   -0.000504  -0.018401   0.009805   0.015629  -0.003802  -0.029467
    11  C   -0.000169  -0.013538  -0.008815  -0.004966   0.001984  -0.012743
    12  C   -0.000001   0.007868  -0.001203  -0.000199   0.002377  -0.009450
    13  C    0.000444  -0.013352   0.002704  -0.001878  -0.001448   0.007492
    14  C   -0.000815  -0.052858   0.020278  -0.032732  -0.067621  -0.035266
    15  C   -0.000333   0.004345  -0.001497   0.004967   0.006302   0.001719
    16  O   -0.000000   0.000014  -0.000001   0.000010  -0.000013  -0.000029
    17  O   -0.000221   0.000803   0.000029   0.000178   0.000220   0.000164
    18  H   -0.030476  -0.000894  -0.000031   0.001013  -0.000001  -0.000000
    19  H    0.509179   0.000090   0.000000   0.000004  -0.000000  -0.000000
    20  H    0.000090   0.624842  -0.003141  -0.004068   0.005353   0.004914
    21  H    0.000000  -0.003141   0.544391  -0.026767  -0.027581  -0.000155
    22  H    0.000004  -0.004068  -0.026767   0.564034  -0.027866   0.000394
    23  H   -0.000000   0.005353  -0.027581  -0.027866   0.550874   0.002690
    24  H   -0.000000   0.004914  -0.000155   0.000394   0.002690   0.582366
    25  H   -0.000000   0.000590   0.000058  -0.000173   0.000222  -0.036243
    26  H    0.000000  -0.000057   0.000099  -0.000003  -0.000003   0.000061
    27  H    0.000000   0.001247  -0.000066   0.000079   0.000081   0.000038
    28  H    0.000000   0.000266   0.000013   0.000043   0.000062   0.002710
    29  H   -0.000000  -0.000004   0.000002  -0.000000   0.000000   0.000096
    30  H    0.000000  -0.000008  -0.000001  -0.000000  -0.000000  -0.000821
    31  H    0.000000   0.000001   0.000003   0.000000   0.000003   0.003442
    32  H    0.000000  -0.000094  -0.000001  -0.000000   0.000000   0.000069
    33  H   -0.000002   0.003841  -0.000001   0.000003  -0.000001  -0.000051
    34  H   -0.000000  -0.000136   0.000000  -0.000000   0.000000  -0.000144
    35  H    0.000000  -0.000054   0.000005   0.000009   0.000036  -0.000813
    36  H   -0.000000  -0.000066  -0.000032   0.000072  -0.000122   0.000039
              25         26         27         28         29         30
     1  C    0.002217  -0.000081   0.002615  -0.000004  -0.000026  -0.000108
     2  C    0.012959   0.000063  -0.000345  -0.000381  -0.000020   0.000234
     3  C   -0.003128   0.000038  -0.000085  -0.000014  -0.000024   0.000106
     4  N   -0.000004  -0.000000  -0.000001   0.000000   0.000000  -0.000001
     5  C   -0.018274   0.001188  -0.002256  -0.000900  -0.000459  -0.000126
     6  C    0.063016  -0.013272   0.003178   0.015989  -0.000320  -0.004454
     7  C   -0.154526  -0.011880   0.024249   0.011983  -0.005305  -0.005219
     8  C   -0.039741   0.011308  -0.024897  -0.002158   0.000084  -0.002269
     9  C    0.540797   0.004877   0.010704  -0.029684   0.000467   0.036116
    10  C   -0.062169  -0.093291  -0.108455  -0.064430  -0.081987  -0.148346
    11  C    0.009194   0.479582   0.462944   0.447652  -0.012699   0.006686
    12  C   -0.008629  -0.005012   0.007385  -0.035837   0.450700   0.492942
    13  C   -0.010491  -0.022908  -0.028452   0.006378   0.000898  -0.025591
    14  C   -0.028624  -0.000290   0.001219   0.000737   0.000191   0.001215
    15  C    0.003353  -0.000052  -0.000005   0.000120  -0.000008  -0.000163
    16  O    0.000032   0.000000   0.000000  -0.000000  -0.000000  -0.000000
    17  O   -0.000380  -0.000000  -0.000002   0.000000   0.000000  -0.000001
    18  H   -0.000002  -0.000000  -0.000010   0.000000   0.000000  -0.000000
    19  H   -0.000000   0.000000   0.000000   0.000000  -0.000000   0.000000
    20  H    0.000590  -0.000057   0.001247   0.000266  -0.000004  -0.000008
    21  H    0.000058   0.000099  -0.000066   0.000013   0.000002  -0.000001
    22  H   -0.000173  -0.000003   0.000079   0.000043  -0.000000  -0.000000
    23  H    0.000222  -0.000003   0.000081   0.000062   0.000000  -0.000000
    24  H   -0.036243   0.000061   0.000038   0.002710   0.000096  -0.000821
    25  H    0.581787  -0.000134  -0.000045   0.000017   0.000035   0.003139
    26  H   -0.000134   0.551799  -0.028170  -0.028483   0.002944   0.000077
    27  H   -0.000045  -0.028170   0.564778  -0.030943   0.000052  -0.000161
    28  H    0.000017  -0.028483  -0.030943   0.559694  -0.000123   0.000035
    29  H    0.000035   0.002944   0.000052  -0.000123   0.551379  -0.028416
    30  H    0.003139   0.000077  -0.000161   0.000035  -0.028416   0.553328
    31  H   -0.000298  -0.000193   0.000081   0.002570  -0.028953  -0.028679
    32  H    0.003753   0.000059   0.000057  -0.000150  -0.000151   0.002400
    33  H   -0.000076  -0.000199   0.002524   0.000033   0.000058   0.000072
    34  H    0.000182   0.002777  -0.000292   0.000059   0.002678  -0.000101
    35  H    0.001390  -0.000000   0.000000  -0.000000  -0.000000  -0.000001
    36  H    0.000140  -0.000000  -0.000000   0.000000   0.000000  -0.000000
              31         32         33         34         35         36
     1  C   -0.000049  -0.003270   0.012574  -0.000237  -0.003329   0.005081
     2  C   -0.000006   0.005551  -0.004567   0.001712   0.008668  -0.033043
     3  C    0.000009   0.001837  -0.007194  -0.000816   0.006832  -0.005287
     4  N    0.000000   0.000021   0.000093   0.000018  -0.000049   0.000014
     5  C   -0.000089  -0.012092   0.003866  -0.002963  -0.087527   0.051937
     6  C   -0.003548  -0.003068  -0.004407   0.010760   0.008963  -0.030698
     7  C   -0.018720   0.037802  -0.035178  -0.000096  -0.072648  -0.054306
     8  C    0.004818   0.000092   0.002660  -0.004247  -0.027798   0.026429
     9  C    0.025684  -0.056609   0.023312   0.006737   0.059904  -0.038685
    10  C   -0.126576  -0.043238  -0.072489  -0.077888  -0.007295   0.002310
    11  C   -0.022226   0.012962  -0.038951  -0.024559  -0.001181   0.000403
    12  C    0.486442  -0.048018   0.029131  -0.024562   0.002675  -0.000670
    13  C    0.003875   0.454439   0.440230   0.467482   0.001121  -0.000249
    14  C    0.000133   0.005407  -0.002978   0.000546   0.415903   0.380987
    15  C    0.000004  -0.000768   0.000784  -0.000010   0.012316   0.012343
    16  O    0.000000   0.000001  -0.000000   0.000000  -0.003463  -0.005177
    17  O   -0.000000  -0.000024   0.000036  -0.000001   0.009556   0.010247
    18  H    0.000000   0.000000  -0.000008  -0.000000  -0.000001   0.000004
    19  H    0.000000   0.000000  -0.000002  -0.000000   0.000000  -0.000000
    20  H    0.000001  -0.000094   0.003841  -0.000136  -0.000054  -0.000066
    21  H    0.000003  -0.000001  -0.000001   0.000000   0.000005  -0.000032
    22  H    0.000000  -0.000000   0.000003  -0.000000   0.000009   0.000072
    23  H    0.000003   0.000000  -0.000001   0.000000   0.000036  -0.000122
    24  H    0.003442   0.000069  -0.000051  -0.000144  -0.000813   0.000039
    25  H   -0.000298   0.003753  -0.000076   0.000182   0.001390   0.000140
    26  H   -0.000193   0.000059  -0.000199   0.002777  -0.000000  -0.000000
    27  H    0.000081   0.000057   0.002524  -0.000292   0.000000  -0.000000
    28  H    0.002570  -0.000150   0.000033   0.000059  -0.000000   0.000000
    29  H   -0.028953  -0.000151   0.000058   0.002678  -0.000000   0.000000
    30  H   -0.028679   0.002400   0.000072  -0.000101  -0.000001  -0.000000
    31  H    0.555876   0.000043  -0.000161   0.000079   0.000000  -0.000000
    32  H    0.000043   0.551986  -0.029110  -0.028160   0.000001  -0.000000
    33  H   -0.000161  -0.029110   0.567346  -0.028819   0.000002  -0.000000
    34  H    0.000079  -0.028160  -0.028819   0.550880   0.000000   0.000000
    35  H    0.000000   0.000001   0.000002   0.000000   0.502710  -0.023776
    36  H   -0.000000  -0.000000  -0.000000   0.000000  -0.023776   0.504061
 Mulliken charges:
               1
     1  C   -0.352118
     2  C    0.424234
     3  C   -0.071516
     4  N   -0.477113
     5  C    0.240567
     6  C   -0.054282
     7  C    0.340125
     8  C   -0.493978
     9  C   -1.004580
    10  C    0.356736
    11  C   -0.486116
    12  C   -0.497694
    13  C   -0.461548
    14  C   -0.076629
    15  C    0.468006
    16  O   -0.465756
    17  O   -0.271866
    18  H    0.158533
    19  H    0.167784
    20  H    0.116644
    21  H    0.155612
    22  H    0.142922
    23  H    0.150149
    24  H    0.140604
    25  H    0.140053
    26  H    0.149154
    27  H    0.142955
    28  H    0.144747
    29  H    0.148910
    30  H    0.148117
    31  H    0.146434
    32  H    0.148272
    33  H    0.137626
    34  H    0.149121
    35  H    0.197845
    36  H    0.198047
 Sum of Mulliken charges =  -0.00000
 Mulliken charges with hydrogens summed into heavy atoms:
               1
     1  C   -0.025802
     2  C    0.424234
     3  C   -0.071516
     4  N   -0.477113
     5  C    0.240567
     6  C   -0.054282
     7  C    0.456770
     8  C   -0.045295
     9  C   -0.723923
    10  C    0.356736
    11  C   -0.049260
    12  C   -0.054232
    13  C   -0.026530
    14  C    0.319263
    15  C    0.468006
    16  O   -0.465756
    17  O   -0.271866
 Electronic spatial extent (au):  <R**2>=           4788.5185
 Charge=              0.0000 electrons
 Dipole moment (field-independent basis, Debye):
    X=              6.4902    Y=             -0.7362    Z=              4.1805  Tot=              7.7551
 Quadrupole moment (field-independent basis, Debye-Ang):
   XX=           -127.9542   YY=           -112.9683   ZZ=           -104.2313
   XY=             -0.7951   XZ=            -11.7331   YZ=              5.5634
 Traceless Quadrupole moment (field-independent basis, Debye-Ang):
   XX=            -12.9030   YY=              2.0830   ZZ=             10.8200
   XY=             -0.7951   XZ=            -11.7331   YZ=              5.5634
 Octapole moment (field-independent basis, Debye-Ang**2):
  XXX=             88.7587  YYY=            -24.7065  ZZZ=              7.1832  XYY=             48.6635
  XXY=              5.2325  XXZ=             33.5779  XZZ=              3.7833  YZZ=             -6.1313
  YYZ=             39.2245  XYZ=            -10.8734
 Hexadecapole moment (field-independent basis, Debye-Ang**3):
 XXXX=          -4318.2242 YYYY=          -1830.1190 ZZZZ=           -878.5867 XXXY=             18.6440
 XXXZ=           -113.1827 YYYX=             53.1925 YYYZ=             72.0254 ZZZX=             -7.9226
 ZZZY=             39.9364 XXYY=          -1154.6905 XXZZ=           -864.2877 YYZZ=           -453.8132
 XXYZ=              7.0141 YYXZ=           -108.1020 ZZXY=             27.8926
 N-N= 1.202218091352D+03 E-N=-4.144312196499D+03  KE= 7.429684221820D+02
 Unable to Open any file for archive entry.
 1\1\GINC-N2\SP\RB3LYP TD-FC\6-31+G(d,p)\C14H19N1O2\HPCMGAC13\13-Aug-20
 25\0\\# td=(50-50,nstates=3) b3lyp/6-31+g(d,p) geom=connectivity\\Titl
 e Card Required\\0,1\C,0,1.353705,-2.135147,1.695144\C,0,1.794086,-1.5
 49742,0.56452\C,0,2.442689,-2.349046,-0.445837\N,0,2.951518,-3.001492,
 -1.2631\C,0,1.644631,-0.113562,0.276815\C,0,0.598045,0.726471,0.383272
 \C,0,-0.813675,0.433015,0.825016\C,0,-1.12062,1.155906,2.156384\C,0,-1
 .839883,0.801856,-0.291256\C,0,-3.021535,-0.182328,-0.527939\C,0,-3.83
 9514,-0.426257,0.755589\C,0,-3.944291,0.451833,-1.590168\C,0,-2.501342
 ,-1.530368,-1.068639\C,0,1.077994,2.078486,-0.085508\C,0,2.523757,1.82
 2883,-0.487589\O,0,3.345724,2.577091,-0.931287\O,0,2.800071,0.490481,-
 0.242119\H,0,0.903915,-1.547059,2.486816\H,0,1.44797,-3.204878,1.84518
 5\H,0,-0.874977,-0.644768,1.007991\H,0,-2.133267,0.932155,2.501002\H,0
 ,-0.4196,0.856439,2.942989\H,0,-1.046181,2.243027,2.039043\H,0,-2.2520
 45,1.797652,-0.077348\H,0,-1.312919,0.890666,-1.249535\H,0,-4.699911,-
 1.070155,0.540684\H,0,-3.248245,-0.924628,1.531518\H,0,-4.224148,0.512
 841,1.170368\H,0,-4.784386,-0.212154,-1.823471\H,0,-3.402414,0.643935,
 -2.523615\H,0,-4.358431,1.404377,-1.239205\H,0,-1.936777,-1.39328,-1.9
 98105\H,0,-1.847366,-2.039639,-0.352538\H,0,-3.33681,-2.206375,-1.2827
 8\H,0,0.521001,2.476355,-0.941695\H,0,1.053323,2.851364,0.692826\\Vers
 ion=ES64L-G16RevC.02\State=1-A\HF=-750.1440895\RMSD=9.599e-09\PG=C01 [
 X(C14H19N1O2)]\\@
 The archive entry for this job was punched.


 JUST WHEN YOU THINK YOU'VE GOT THE WORLD ON A STRING,
 YOU FIND OUT IT'S YOUR LEASH.
 Job cpu time:       0 days  0 hours 59 minutes 13.9 seconds.
 Elapsed time:       0 days  0 hours  7 minutes 31.4 seconds.
 File lengths (MBytes):  RWF=   1015 Int=      0 D2E=      0 Chk=     46 Scr=      2
 Normal termination of Gaussian 16 at Wed Aug 13 12:38:18 2025.
