 Entering Gaussian System, Link 0=g16
 Input=M1083E.gjf
 Output=M1083E.log
 Initial command:
 /hpc/softwares/Gaussian/g16/l1.exe "/hpc/home/hpcmgac13/pbs.13272.admin1.x8z/Gau-3062511.inp" -scrdir="/hpc/home/hpcmgac13/pbs.13272.admin1.x8z/"
 Default linda workers: n2
 Default is to use   8 SMP processors on each worker.
 Entering Link 1 = /hpc/softwares/Gaussian/g16/l1.exe PID=   3062512.
  
 Copyright (c) 1988-2021, Gaussian, Inc.  All Rights Reserved.
  
 This is part of the Gaussian(R) 16 program.  It is based on
 the Gaussian(R) 09 system (copyright 2009, Gaussian, Inc.),
 the Gaussian(R) 03 system (copyright 2003, Gaussian, Inc.),
 the Gaussian(R) 98 system (copyright 1998, Gaussian, Inc.),
 the Gaussian(R) 94 system (copyright 1995, Gaussian, Inc.),
 the Gaussian 92(TM) system (copyright 1992, Gaussian, Inc.),
 the Gaussian 90(TM) system (copyright 1990, Gaussian, Inc.),
 the Gaussian 88(TM) system (copyright 1988, Gaussian, Inc.),
 the Gaussian 86(TM) system (copyright 1986, Carnegie Mellon
 University), and the Gaussian 82(TM) system (copyright 1983,
 Carnegie Mellon University). Gaussian is a federally registered
 trademark of Gaussian, Inc.
  
 This software contains proprietary and confidential information,
 including trade secrets, belonging to Gaussian, Inc.
  
 This software is provided under written license and may be
 used, copied, transmitted, or stored only in accord with that
 written license.
  
 The following legend is applicable only to US Government
 contracts under FAR:
  
                    RESTRICTED RIGHTS LEGEND
  
 Use, reproduction and disclosure by the US Government is
 subject to restrictions as set forth in subparagraphs (a)
 and (c) of the Commercial Computer Software - Restricted
 Rights clause in FAR 52.227-19.
  
 Gaussian, Inc.
 340 Quinnipiac St., Bldg. 40, Wallingford CT 06492
  
  
 ---------------------------------------------------------------
 Warning -- This program may not be used in any manner that
 competes with the business of Gaussian, Inc. or will provide
 assistance to any competitor of Gaussian, Inc.  The licensee
 of this program is prohibited from giving any competitor of
 Gaussian, Inc. access to this program.  By using this program,
 the user acknowledges that Gaussian, Inc. is engaged in the
 business of creating and licensing software in the field of
 computational chemistry and represents and warrants to the
 licensee that it is not a competitor of Gaussian, Inc. and that
 it will not use this program in any manner prohibited above.
 ---------------------------------------------------------------
  

 Cite this work as:
 Gaussian 16, Revision C.02,
 M. J. Frisch, G. W. Trucks, H. B. Schlegel, G. E. Scuseria, 
 M. A. Robb, J. R. Cheeseman, G. Scalmani, V. Barone, 
 G. A. Petersson, H. Nakatsuji, X. Li, M. Caricato, A. V. Marenich, 
 J. Bloino, B. G. Janesko, R. Gomperts, B. Mennucci, H. P. Hratchian, 
 J. V. Ortiz, A. F. Izmaylov, J. L. Sonnenberg, D. Williams-Young, 
 F. Ding, F. Lipparini, F. Egidi, J. Goings, B. Peng, A. Petrone, 
 T. Henderson, D. Ranasinghe, V. G. Zakrzewski, J. Gao, N. Rega, 
 G. Zheng, W. Liang, M. Hada, M. Ehara, K. Toyota, R. Fukuda, 
 J. Hasegawa, M. Ishida, T. Nakajima, Y. Honda, O. Kitao, H. Nakai, 
 T. Vreven, K. Throssell, J. A. Montgomery, Jr., J. E. Peralta, 
 F. Ogliaro, M. J. Bearpark, J. J. Heyd, E. N. Brothers, K. N. Kudin, 
 V. N. Staroverov, T. A. Keith, R. Kobayashi, J. Normand, 
 K. Raghavachari, A. P. Rendell, J. C. Burant, S. S. Iyengar, 
 J. Tomasi, M. Cossi, J. M. Millam, M. Klene, C. Adamo, R. Cammi, 
 J. W. Ochterski, R. L. Martin, K. Morokuma, O. Farkas, 
 J. B. Foresman, and D. J. Fox, Gaussian, Inc., Wallingford CT, 2019.
 
 ******************************************
 Gaussian 16:  ES64L-G16RevC.02  7-Dec-2021
                13-Aug-2025 
 ******************************************
 SetLPE:    new flags="-opt 'Tsnet.Node.lindarsharg: ssh'  -nodelist 'n2.head.cm.mguif.local' -env GAUSS_MDEF=2147483648 -env GAUSS_EXEDIR="/hpc/softwares/Gaussian/g16/bsd:/hpc/softwares/Gaussian/g16""
 Will use up to    1 processors via Linda.
 ----------------------------------------------------------
 # td=(50-50,nstates=3) b3lyp/6-31+g(d,p) geom=connectivity
 ----------------------------------------------------------
 1/38=1,57=2,172=1/1;
 2/12=2,17=6,18=5,40=1/2;
 3/5=1,6=6,7=111,11=9,25=1,30=1,74=-5/1,2,3,8;
 4//1;
 5/5=2,38=5/2;
 8/6=1,10=2,108=3/1;
 9/41=3,42=1,48=2,70=2/14;
 6/7=2,8=2,9=2,10=2/1;
 99/5=1,9=1/99;
 -------------------
 Title Card Required
 -------------------
 Symbolic Z-matrix:
 Charge =  0 Multiplicity = 1
 C                    -0.76985  -1.89818   2.55782 
 C                    -1.06199  -2.95346   1.51016 
 O                    -0.86353  -4.13192   1.76355 
 C                    -1.67737  -2.59091   0.1741 
 C                    -2.45481  -3.59953  -0.41884 
 C                    -3.1289   -3.39348  -1.61928 
 C                    -3.02703  -2.15962  -2.26608 
 C                    -2.24722  -1.15141  -1.70585 
 C                    -1.56612  -1.34531  -0.48897 
 C                    -0.69205  -0.23948  -0.05177 
 N                     0.61353  -0.41119   0.13108 
 O                     1.29433  -1.48198   0.12335 
 C                     1.28821   0.9185    0.30379 
 C                     1.88002   1.00651   1.64007 
 N                     2.34184   1.07327   2.70144 
 C                     2.26873   1.24355  -0.85756 
 C                     3.65683   0.64874  -0.7732 
 C                     4.68379   1.36594  -0.14242 
 C                     5.97842   0.84674  -0.07951 
 C                     6.26207  -0.39461  -0.65429 
 C                     5.24598  -1.11262  -1.29092 
 C                     3.95124  -0.59459  -1.35005 
 N                     0.11742   1.86234   0.22344 
 O                     0.32413   3.11295   0.33592 
 C                    -1.01414   1.18466   0.03567 
 C                    -2.3345    1.81974  -0.01025 
 C                    -2.48629   3.15074  -0.45061 
 C                    -3.7505    3.73845  -0.48307 
 C                    -4.87607   3.02601  -0.06191 
 C                    -4.73249   1.71193   0.39323 
 C                    -3.47641   1.1104    0.41569 
 H                    -0.90083  -2.35667   3.54009 
 H                     0.2783   -1.59253   2.47479 
 H                    -1.40688  -1.014     2.47673 
 H                    -2.51596  -4.55252   0.09509 
 H                    -3.72914  -4.19026  -2.04801 
 H                    -3.54291  -1.9832   -3.20498 
 H                    -2.14937  -0.20148  -2.22174 
 H                     1.76116   0.93512  -1.7773 
 H                     2.32081   2.3374   -0.8552 
 H                     4.47117   2.33505   0.30157 
 H                     6.76241   1.41291   0.41453 
 H                     7.26891  -0.79928  -0.60796 
 H                     5.45912  -2.07877  -1.73865 
 H                     3.16222  -1.16565  -1.82853 
 H                    -1.6144    3.7177   -0.74936 
 H                    -3.85213   4.76244  -0.82958 
 H                    -5.85659   3.49241  -0.08039 
 H                    -5.5989    1.15371   0.73463 
 H                    -3.38334   0.0921    0.77437 
 
                          Input orientation:                          
 ---------------------------------------------------------------------
 Center     Atomic      Atomic             Coordinates (Angstroms)
 Number     Number       Type             X           Y           Z
 ---------------------------------------------------------------------
      1          6           0       -0.769847   -1.898182    2.557817
      2          6           0       -1.061989   -2.953456    1.510157
      3          8           0       -0.863529   -4.131922    1.763547
      4          6           0       -1.677367   -2.590908    0.174095
      5          6           0       -2.454807   -3.599527   -0.418841
      6          6           0       -3.128897   -3.393482   -1.619281
      7          6           0       -3.027026   -2.159621   -2.266078
      8          6           0       -2.247221   -1.151413   -1.705852
      9          6           0       -1.566120   -1.345313   -0.488966
     10          6           0       -0.692052   -0.239482   -0.051768
     11          7           0        0.613525   -0.411194    0.131077
     12          8           0        1.294328   -1.481981    0.123352
     13          6           0        1.288209    0.918503    0.303788
     14          6           0        1.880022    1.006511    1.640070
     15          7           0        2.341838    1.073273    2.701440
     16          6           0        2.268727    1.243548   -0.857557
     17          6           0        3.656834    0.648738   -0.773200
     18          6           0        4.683787    1.365944   -0.142419
     19          6           0        5.978421    0.846735   -0.079514
     20          6           0        6.262069   -0.394605   -0.654288
     21          6           0        5.245975   -1.112624   -1.290923
     22          6           0        3.951243   -0.594591   -1.350048
     23          7           0        0.117418    1.862340    0.223439
     24          8           0        0.324132    3.112955    0.335920
     25          6           0       -1.014135    1.184657    0.035670
     26          6           0       -2.334496    1.819737   -0.010249
     27          6           0       -2.486294    3.150737   -0.450606
     28          6           0       -3.750500    3.738449   -0.483074
     29          6           0       -4.876066    3.026009   -0.061907
     30          6           0       -4.732488    1.711933    0.393225
     31          6           0       -3.476406    1.110398    0.415694
     32          1           0       -0.900831   -2.356668    3.540086
     33          1           0        0.278303   -1.592534    2.474788
     34          1           0       -1.406880   -1.014001    2.476731
     35          1           0       -2.515960   -4.552523    0.095089
     36          1           0       -3.729136   -4.190262   -2.048008
     37          1           0       -3.542914   -1.983198   -3.204983
     38          1           0       -2.149373   -0.201482   -2.221742
     39          1           0        1.761157    0.935122   -1.777300
     40          1           0        2.320805    2.337398   -0.855195
     41          1           0        4.471165    2.335046    0.301565
     42          1           0        6.762406    1.412905    0.414526
     43          1           0        7.268912   -0.799280   -0.607964
     44          1           0        5.459116   -2.078769   -1.738654
     45          1           0        3.162224   -1.165654   -1.828526
     46          1           0       -1.614402    3.717696   -0.749358
     47          1           0       -3.852129    4.762442   -0.829580
     48          1           0       -5.856592    3.492409   -0.080393
     49          1           0       -5.598899    1.153714    0.734634
     50          1           0       -3.383343    0.092103    0.774374
 ---------------------------------------------------------------------
                    Distance matrix (angstroms):
                    1          2          3          4          5
     1  C    0.000000
     2  C    1.515434   0.000000
     3  O    2.372601   1.221628   0.000000
     4  C    2.643027   1.514989   2.358689   0.000000
     5  C    3.820230   2.465438   2.752894   1.404741   0.000000
     6  C    5.024857   3.776124   4.137718   2.442798   1.392088
     7  C    5.332276   4.330300   4.980820   2.821707   2.411026
     8  C    4.573748   3.872318   4.778574   2.435381   2.773581
     9  C    3.197280   2.614721   3.651389   1.415462   2.424080
    10  C    3.093101   3.153112   4.298356   2.559505   3.812080
    11  N    3.164478   3.342500   4.323247   3.162466   4.458984
    12  O    3.218798   3.104947   3.790617   3.172265   4.339814
    13  C    4.153307   4.687304   5.680463   4.596458   5.911426
    14  C    4.037488   4.934941   5.826303   5.267402   6.651725
    15  N    4.304969   5.405529   6.184503   5.997308   7.387761
    16  C    5.546907   5.857865   6.751066   5.598126   6.779353
    17  C    6.097375   6.360567   7.051488   6.312398   7.451542
    18  C    6.905644   7.375782   8.039400   7.498076   8.700105
    19  C    7.747852   8.156953   8.660033   8.395999   9.539587
    20  C    7.875672   8.054463   8.401643   8.279167   9.290365
    21  C    7.184707   7.143187   7.468064   7.229403   8.139242
    22  C    6.265736   6.235183   6.737152   6.163566   7.136824
    23  N    4.514209   5.122356   6.266208   4.801573   6.071314
    24  O    5.589733   6.332575   7.479098   6.047002   7.304080
    25  C    3.990589   4.393220   5.592339   3.835874   5.017024
    26  C    4.781842   5.168586   6.382189   4.463137   5.435977
    27  C    6.122776   6.567679   7.782863   5.831904   6.750412
    28  C    7.064200   7.482156   8.678977   6.692571   7.451767
    29  C    6.926157   7.264473   8.406468   6.468163   7.063117
    30  C    5.781082   6.040360   7.141237   5.281688   5.835999
    31  C    4.578832   4.852027   6.010470   4.122448   4.891166
    32  H    1.091888   2.121966   2.511774   3.462336   4.430874
    33  H    1.094958   2.139861   2.873697   3.180343   4.457690
    34  H    1.092777   2.194243   3.244271   2.803914   4.020875
    35  H    4.019884   2.583305   2.385621   2.134810   1.084465
    36  H    5.935035   4.615615   4.768968   3.421320   2.151062
    37  H    6.395857   5.415620   6.040067   3.907396   3.399865
    38  H    5.256051   4.762650   5.743194   3.416457   3.858815
    39  H    5.764272   5.822247   6.715766   5.297573   6.338991
    40  H    6.256270   6.710538   7.671368   6.429076   7.631773
    41  H    7.104864   7.748854   8.509878   7.879449   9.149166
    42  H    8.502460   9.026997   9.524697   9.344415  10.525017
    43  H    8.709271   8.861762   9.103140   9.157372  10.120665
    44  H    7.569165   7.337892   7.513767   7.406098   8.166075
    45  H    5.936142   5.673360   6.156982   5.428027   6.281878
    46  H    6.571816   7.065043   8.276171   6.376144   7.372739
    47  H    8.083244   8.531959   9.734770   7.733609   8.487858
    48  H    7.867248   8.189459   9.298452   7.384946   7.872880
    49  H    5.996483   6.168779   7.170798   5.451129   5.814561
    50  H    3.737949   3.899422   5.017002   3.235620   3.989245
                    6          7          8          9         10
     6  C    0.000000
     7  C    1.396831   0.000000
     8  C    2.410751   1.392276   0.000000
     9  C    2.813340   2.440383   1.407944   0.000000
    10  C    4.282876   3.747293   2.446664   1.475805   0.000000
    11  N    5.095441   4.696484   3.479382   2.451099   1.329454
    12  O    5.124015   4.984242   3.999729   2.928442   2.349506
    13  C    6.465465   5.890697   4.563165   3.728340   2.321375
    14  C    7.421090   7.025774   5.734629   4.683990   3.321201
    15  N    8.279461   7.997033   6.740394   5.594675   4.302089
    16  C    7.156578   6.450619   5.181624   4.641564   3.408062
    17  C    7.943648   7.401996   6.242455   5.597881   4.496911
    18  C    9.266676   8.740490   7.537923   6.821462   5.611172
    19  C   10.163344   9.742552   8.619673   7.867199   6.758391
    20  C    9.905287   9.591686   8.607355   7.887441   6.981897
    21  C    8.686116   8.395813   7.504776   6.863084   6.128462
    22  C    7.618048   7.210039   6.233587   5.634389   4.834441
    23  N    6.446537   5.679911   4.289101   3.691999   2.269061
    24  O    7.621020   6.767622   5.381963   4.912193   3.524453
    25  C    5.307583   4.531442   3.163957   2.642097   1.462722
    26  C    5.513412   4.626408   3.422049   3.291977   2.634337
    27  C    6.678738   5.638105   4.487905   4.589407   3.856418
    28  C    7.248572   6.204011   5.259827   5.533190   5.036275
    29  C    6.832853   5.930268   5.202330   5.499689   5.307495
    30  C    5.717250   4.996941   4.333754   4.488975   4.509009
    31  C    4.954475   4.252866   3.335812   3.240080   3.129429
    32  H    5.714747   6.186362   5.548448   4.206983   4.174623
    33  H    5.622617   5.807116   4.904142   3.499550   3.025859
    34  H    5.040296   5.141163   4.268379   2.988391   2.739373
    35  H    2.158271   3.400335   3.857870   3.395514   4.685139
    36  H    1.085796   2.159633   3.398197   3.899101   5.368195
    37  H    2.162120   1.085729   2.148972   3.419263   4.594641
    38  H    3.392829   2.146287   1.085397   2.156628   2.614195
    39  H    6.532565   5.722153   4.519494   4.234496   3.221085
    40  H    7.945191   7.128328   5.810532   5.366998   4.045134
    41  H    9.709100   9.111404   7.830826   7.114688   5.780298
    42  H   11.183720  10.760184   9.604432   8.819774   7.649625
    43  H   10.764157  10.516949   9.585726   8.852689   7.999980
    44  H    8.688883   8.502901   7.762003   7.173118   6.638180
    45  H    6.677215   6.283808   5.410855   4.917716   4.343974
    46  H    7.322521   6.232078   5.002356   5.069931   4.122696
    47  H    8.225922   7.117533   6.190094   6.530431   5.967438
    48  H    7.564654   6.687982   6.102029   6.479092   6.371837
    49  H    5.684964   5.157227   4.743767   4.899555   5.161063
    50  H    4.235992   3.800207   2.998104   2.639032   2.834697
                   11         12         13         14         15
    11  N    0.000000
    12  O    1.268912   0.000000
    13  C    1.501040   2.407264   0.000000
    14  C    2.427130   2.972552   1.464117   0.000000
    15  N    3.434745   3.777981   2.623513   1.159413   0.000000
    16  C    2.540721   3.056165   1.554282   2.538783   3.563818
    17  C    3.347074   3.305330   2.615924   3.018101   3.739327
    18  C    4.449725   4.435058   3.453875   3.341790   3.695662
    19  C    5.514421   5.234959   4.706396   4.447401   4.583641
    20  C    5.702905   5.144469   5.232728   5.140967   5.365052
    21  C    4.896293   4.213326   4.725727   4.940758   5.399178
    22  C    3.656190   3.165054   3.480859   3.974203   4.667602
    23  N    2.328864   3.546776   1.506000   2.417863   3.422157
    24  O    3.541939   4.701053   2.397102   2.925527   3.718484
    25  C    2.281473   3.528122   2.333134   3.313907   4.287341
    26  C    3.699710   4.907907   3.746309   4.598592   5.456974
    27  C    4.757582   6.007046   4.449590   5.294653   6.128793
    28  C    6.053217   7.284980   5.827507   6.608631   7.372983
    29  C    6.479754   7.643956   6.524845   7.253952   7.971662
    30  C    5.758146   6.826158   6.073411   6.765909   7.468724
    31  C    4.373075   5.437444   4.769791   5.495563   6.251238
    32  H    4.207076   4.154259   5.098261   4.759640   4.794030
    33  H    2.645925   2.563938   3.469648   3.165011   3.378768
    34  H    3.153967   3.613021   3.964815   3.947936   4.296521
    35  H    5.190913   4.893600   6.666887   7.253584   7.876601
    36  H    6.155361   6.106126   7.536854   8.489465   9.333744
    37  H    5.556661   5.893042   6.638606   7.862642   8.880211
    38  H    3.635016   4.358695   4.410174   5.710417   6.784814
    39  H    2.602216   3.110112   2.134217   3.420182   4.518339
    40  H    3.382646   4.074170   2.103036   2.862149   3.774666
    41  H    4.738384   4.969280   3.483936   3.204781   3.447536
    42  H    6.420001   6.193951   5.497593   5.050227   4.988662
    43  H    6.707531   6.057768   6.288949   6.111847   6.223718
    44  H    5.454948   4.600944   5.527357   5.809014   6.274331
    45  H    3.302290   2.720097   3.521705   4.288765   5.119221
    46  H    4.773527   6.021542   4.167703   5.027016   5.878164
    47  H    6.901553   8.147817   6.517934   7.284487   8.027658
    48  H    7.559448   8.713307   7.603997   8.306316   8.989164
    49  H    6.434861   7.405210   6.904579   7.534968   8.181082
    50  H    4.079472   4.978170   4.767367   5.411893   6.119965
                   16         17         18         19         20
    16  C    0.000000
    17  C    1.512533   0.000000
    18  C    2.521690   1.402463   0.000000
    19  C    3.811121   2.431084   1.396285   0.000000
    20  C    4.321070   2.808906   2.419198   1.397049   0.000000
    21  C    3.821434   2.428127   2.788981   2.417246   1.397606
    22  C    2.540111   1.401891   2.416337   2.793050   2.421568
    23  N    2.485877   3.872155   4.607818   5.956055   6.604615
    24  O    2.949664   4.290619   4.720958   6.105680   6.967251
    25  C    3.402720   4.770685   5.703586   7.001664   7.477517
    26  C    4.715887   6.152184   7.034180   8.369953   8.900507
    27  C    5.139378   6.640940   7.395304   8.780520   9.441652
    28  C    6.526551   8.031132   8.768239  10.157597  10.833420
    29  C    7.406638   8.886379   9.703251  11.071108  11.666600
    30  C    7.127472   8.536490   9.437842  10.756190  11.243446
    31  C    5.886039   7.246359   8.183248   9.471457   9.912002
    32  H    6.507451   6.957673   7.655497   8.407580   8.529338
    33  H    4.807252   5.194920   5.916980   6.705657   6.857959
    34  H    5.451980   6.242432   7.044168   8.033642   8.306606
    35  H    7.575962   8.118524   9.323144  10.066627   9.741850
    36  H    8.180332   8.921525  10.260603  11.112289  10.778388
    37  H    7.049643   8.042203   9.395460  10.413112  10.255114
    38  H    4.844453   6.044269   7.312488   8.470474   8.558421
    39  H    1.094843   2.164214   3.376420   4.547044   4.825716
    40  H    1.095092   2.154825   2.652443   4.025160   4.799767
    41  H    2.717658   2.159141   1.086963   2.152234   3.401762
    42  H    4.673332   3.411630   2.152452   1.085936   2.158655
    43  H    5.407152   3.895018   3.404086   2.157311   1.086113
    44  H    4.689638   3.408756   3.874939   3.403086   2.158006
    45  H    2.746884   2.156472   3.401044   3.878108   3.403291
    46  H    4.605628   6.099590   6.750281   8.145064   8.885879
    47  H    7.060331   8.562141   9.212505  10.608255  11.354420
    48  H    8.466532   9.953478  10.752920  12.127124  12.739709
    49  H    8.027620   9.391334  10.322204  11.609970  12.041967
    50  H    5.994574   7.229725   8.218380   9.430865   9.762783
                   21         22         23         24         25
    21  C    0.000000
    22  C    1.395774   0.000000
    23  N    6.119297   4.817737   0.000000
    24  O    6.687800   5.453835   1.272565   0.000000
    25  C    6.798994   5.453523   1.332263   2.366314   0.000000
    26  C    8.228147   6.865461   2.463393   2.976667   1.465875
    27  C    8.869632   7.501890   2.982217   2.918655   2.503834
    28  C   10.252906   8.879399   4.356574   4.202930   3.778709
    29  C   11.004294   9.627535   5.135215   5.216118   4.279557
    30  C   10.506389   9.152390   4.855207   5.247433   3.772534
    31  C    9.161566   7.822711   3.676676   4.296590   2.492531
    32  H    7.916408   7.110622   5.462326   6.456314   4.983448
    33  H    6.252092   5.395901   4.126816   5.168992   3.915671
    34  H    7.646269   6.597698   3.959059   4.960972   3.308644
    35  H    8.602416   7.718702   6.935533   8.178244   5.930788
    36  H    9.518280   8.509067   7.522595   8.686143   6.372025
    37  H    9.036929   7.844195   6.319832   7.311827   5.189592
    38  H    7.509179   6.175103   3.921302   4.862649   2.882023
    39  H    4.071091   2.705373   2.750376   3.357633   3.324361
    40  H    4.544131   3.391131   2.498809   2.450907   3.639269
    41  H    3.875923   3.403075   4.380031   4.219503   5.610937
    42  H    3.403882   3.878969   6.662910   6.659408   7.789109
    43  H    2.157983   3.405806   7.675892   8.026610   8.541612
    44  H    1.085969   2.151158   6.922130   7.591174   7.463321
    45  H    2.152637   1.085175   4.759218   5.571902   5.142097
    46  H    8.407738   7.066332   2.718066   2.302489   2.718984
    47  H   10.839960   9.479520   5.027598   4.639004   4.647947
    48  H   12.080509  10.700898   6.199858   6.206340   5.365499
    49  H   11.262791   9.930140   5.782711   6.251391   4.637841
    50  H    8.954437   7.666868   3.961388   4.802412   2.711550
                   26         27         28         29         30
    26  C    0.000000
    27  C    1.410148   0.000000
    28  C    2.431067   1.394517   0.000000
    29  C    2.813777   2.424387   1.397087   0.000000
    30  C    2.434087   2.797784   2.416396   1.398054   0.000000
    31  C    1.410159   2.427711   2.790979   2.420065   1.392872
    32  H    5.665919   6.983611   7.839444   7.599346   6.413879
    33  H    4.964446   6.220896   7.307502   7.371111   6.352986
    34  H    3.882733   5.203795   6.069496   5.899289   4.778220
    35  H    6.375714   7.722621   8.402296   7.939074   6.651713
    36  H    6.497505   7.614894   8.081704   7.571962   6.465465
    37  H    5.111645   5.921176   6.339489   6.062044   5.293031
    38  H    3.001716   3.806286   4.594522   4.745149   4.143874
    39  H    4.547459   4.970906   6.317597   7.167085   6.890721
    40  H    4.759594   4.892179   6.241968   7.273132   7.190181
    41  H    6.832261   7.045378   8.377409   9.379780   9.225178
    42  H    9.115897   9.450236  10.804399  11.759384  11.498803
    43  H    9.972059  10.525751  11.917803  12.744862  12.302121
    44  H    8.884037   9.598768  10.965105  11.648443  11.080755
    45  H    6.514033   7.241246   8.581738   9.236075   8.691557
    46  H    2.160339   1.082077   2.152731   3.404331   3.879567
    47  H    3.410869   2.146327   1.085798   2.157074   3.402336
    48  H    3.899732   3.407742   2.158312   1.085957   2.158244
    49  H    3.413907   3.883453   3.402976   2.159272   1.085742
    50  H    2.168048   3.414750   3.874509   3.396379   2.142269
                   31         32         33         34         35
    31  C    0.000000
    32  H    5.330662   0.000000
    33  H    5.063946   1.763269   0.000000
    34  H    3.611632   1.785935   1.781726   0.000000
    35  H    5.752731   4.392997   4.715125   4.407200   0.000000
    36  H    5.850701   6.525961   6.577495   5.996230   2.489155
    37  H    4.762779   7.253691   6.856684   6.146858   4.306569
    38  H    3.230807   6.277129   5.466812   4.825674   4.943041
    39  H    5.680846   6.796812   5.164122   5.650869   7.205124
    40  H    6.060391   7.192474   5.541206   6.019073   8.471620
    41  H    8.042181   7.833169   6.142383   7.106256   9.813315
    42  H   10.243280   9.094174   7.437804   8.768112  11.035237
    43  H   10.961597   9.293895   7.681226   9.210365  10.503563
    44  H    9.729109   8.269900   6.695546   8.126814   8.548913
    45  H    7.368062   6.837319   5.197859   6.279725   6.885706
    46  H    3.409165   7.470369   6.494305   5.730591   8.361963
    47  H    3.876764   8.859225   8.268315   7.090714   9.455630
    48  H    3.403728   8.478156   8.367947   6.829828   8.712723
    49  H    2.146759   6.501168   6.716511   5.030598   6.517259
    50  H    1.083622   4.450675   4.374593   2.833353   4.773503
                   36         37         38         39         40
    36  H    0.000000
    37  H    2.498880   0.000000
    38  H    4.293740   2.466421   0.000000
    39  H    7.515728   6.219971   4.096540   0.000000
    40  H    8.979696   7.653251   5.319385   1.769141   0.000000
    41  H   10.739882   9.755438   7.525462   3.691288   2.441751
    42  H   12.146275  11.438268   9.432707   5.481320   4.711125
    43  H   11.598687  11.182207   9.574222   5.891592   5.863756
    44  H    9.432819   9.121173   7.851540   4.770737   5.489265
    45  H    7.529095   6.893612   5.412699   2.525643   3.731854
    46  H    8.288208   6.499957   4.220671   4.493749   4.171604
    47  H    9.036072   7.158339   5.429368   6.859703   6.632240
    48  H    8.211030   6.715537   5.654527   8.212753   8.294829
    49  H    6.308501   5.439474   4.740880   7.779976   8.163968
    50  H    5.140434   4.490837   3.253550   5.804102   6.343039
                   41         42         43         44         45
    41  H    0.000000
    42  H    2.472426   0.000000
    43  H    4.298678   2.489136   0.000000
    44  H    4.961885   4.304246   2.488155   0.000000
    45  H    4.301804   4.964027   4.299871   2.473372   0.000000
    46  H    6.328530   8.765706   9.966761   9.198498   6.915769
    47  H    8.743510  11.199801  12.436214  11.589990   9.238039
    48  H   10.399420  12.798765  13.819399  12.721364  10.300124
    49  H   10.148364  12.368165  13.084239  11.783285   9.418415
    50  H    8.182154  10.237687  10.778495   9.445479   7.155522
                   46         47         48         49         50
    46  H    0.000000
    47  H    2.470901   0.000000
    48  H    4.300517   2.488400   0.000000
    49  H    4.965124   4.303590   2.490014   0.000000
    50  H    4.312289   4.960292   4.290649   2.457089   0.000000
 Stoichiometry    C25H19N3O3
 Framework group  C1[X(C25H19N3O3)]
 Deg. of freedom   144
 Full point group                 C1      NOp   1
 Largest Abelian subgroup         C1      NOp   1
 Largest concise Abelian subgroup C1      NOp   1
                         Standard orientation:                         
 ---------------------------------------------------------------------
 Center     Atomic      Atomic             Coordinates (Angstroms)
 Number     Number       Type             X           Y           Z
 ---------------------------------------------------------------------
      1          6           0        0.769847    1.898182    2.557817
      2          6           0        1.061989    2.953456    1.510157
      3          8           0        0.863529    4.131922    1.763547
      4          6           0        1.677367    2.590908    0.174095
      5          6           0        2.454807    3.599527   -0.418841
      6          6           0        3.128897    3.393482   -1.619281
      7          6           0        3.027026    2.159621   -2.266078
      8          6           0        2.247221    1.151413   -1.705852
      9          6           0        1.566120    1.345313   -0.488966
     10          6           0        0.692052    0.239482   -0.051768
     11          7           0       -0.613525    0.411194    0.131077
     12          8           0       -1.294328    1.481981    0.123352
     13          6           0       -1.288209   -0.918503    0.303788
     14          6           0       -1.880022   -1.006511    1.640070
     15          7           0       -2.341838   -1.073273    2.701440
     16          6           0       -2.268727   -1.243548   -0.857557
     17          6           0       -3.656834   -0.648738   -0.773200
     18          6           0       -4.683787   -1.365944   -0.142419
     19          6           0       -5.978421   -0.846735   -0.079514
     20          6           0       -6.262069    0.394605   -0.654288
     21          6           0       -5.245975    1.112624   -1.290923
     22          6           0       -3.951243    0.594591   -1.350048
     23          7           0       -0.117418   -1.862340    0.223439
     24          8           0       -0.324132   -3.112955    0.335920
     25          6           0        1.014135   -1.184657    0.035670
     26          6           0        2.334496   -1.819737   -0.010249
     27          6           0        2.486294   -3.150737   -0.450606
     28          6           0        3.750500   -3.738449   -0.483074
     29          6           0        4.876066   -3.026009   -0.061907
     30          6           0        4.732488   -1.711933    0.393225
     31          6           0        3.476406   -1.110398    0.415694
     32          1           0        0.900831    2.356668    3.540086
     33          1           0       -0.278303    1.592534    2.474788
     34          1           0        1.406880    1.014001    2.476731
     35          1           0        2.515960    4.552523    0.095089
     36          1           0        3.729136    4.190262   -2.048008
     37          1           0        3.542914    1.983198   -3.204983
     38          1           0        2.149373    0.201482   -2.221742
     39          1           0       -1.761157   -0.935122   -1.777300
     40          1           0       -2.320805   -2.337398   -0.855195
     41          1           0       -4.471165   -2.335046    0.301565
     42          1           0       -6.762406   -1.412905    0.414526
     43          1           0       -7.268912    0.799280   -0.607964
     44          1           0       -5.459116    2.078769   -1.738654
     45          1           0       -3.162224    1.165654   -1.828526
     46          1           0        1.614402   -3.717696   -0.749358
     47          1           0        3.852129   -4.762442   -0.829580
     48          1           0        5.856592   -3.492409   -0.080393
     49          1           0        5.598899   -1.153714    0.734634
     50          1           0        3.383343   -0.092103    0.774374
 ---------------------------------------------------------------------
 Rotational constants (GHZ):           0.2081276           0.1143574           0.0881748
 Standard basis: 6-31+G(d,p) (6D, 7F)
 There are   684 symmetry adapted cartesian basis functions of A   symmetry.
 There are   684 symmetry adapted basis functions of A   symmetry.
   684 basis functions,  1125 primitive gaussians,   684 cartesian basis functions
   107 alpha electrons      107 beta electrons
       nuclear repulsion energy      2937.6420640607 Hartrees.
 NAtoms=   50 NActive=   50 NUniq=   50 SFac= 1.00D+00 NAtFMM=   60 NAOKFM=F Big=F
 Integral buffers will be    131072 words long.
 Regular integral format.
 Two-electron integral symmetry is turned on.
 One-electron integrals computed using PRISM.
 NBasis=   684 RedAO= T EigKep=  1.17D-06  NBF=   684
 NBsUse=   679 1.00D-06 EigRej=  8.16D-07 NBFU=   679
 ExpMin= 4.38D-02 ExpMax= 5.48D+03 ExpMxC= 8.25D+02 IAcc=3 IRadAn=         5 AccDes= 0.00D+00
 Harris functional with IExCor=  402 and IRadAn=       5 diagonalized for initial guess.
 HarFok:  IExCor=  402 AccDes= 0.00D+00 IRadAn=         5 IDoV= 1 UseB2=F ITyADJ=14
 ICtDFT=  3500011 ScaDFX=  1.000000  1.000000  1.000000  1.000000
 FoFCou: FMM=F IPFlag=           0 FMFlag=      100000 FMFlg1=           0
         NFxFlg=           0 DoJE=T BraDBF=F KetDBF=T FulRan=T
         wScrn=  0.000000 ICntrl=       500 IOpCl=  0 I1Cent=   200000004 NGrid=           0
         NMat0=    1 NMatS0=      1 NMatT0=    0 NMatD0=    1 NMtDS0=    0 NMtDT0=    0
 Petite list used in FoFCou.
 Requested convergence on RMS density matrix=1.00D-08 within 128 cycles.
 Requested convergence on MAX density matrix=1.00D-06.
 Requested convergence on             energy=1.00D-06.
 No special actions if energy rises.
 EnCoef did     5 forward-backward iterations
 EnCoef did     3 forward-backward iterations
 SCF Done:  E(RB3LYP) =  -1353.94663411     A.U. after   20 cycles
            NFock= 20  Conv=0.75D-08     -V/T= 2.0095
 DoSCS=F DFT=T ScalE2(SS,OS)=  1.000000  1.000000
 ExpMin= 4.38D-02 ExpMax= 5.48D+03 ExpMxC= 8.25D+02 IAcc=3 IRadAn=         5 AccDes= 0.00D+00
 HarFok:  IExCor=  205 AccDes= 0.00D+00 IRadAn=         5 IDoV=-2 UseB2=F ITyADJ=14
 ICtDFT= 12500011 ScaDFX=  1.000000  1.000000  1.000000  1.000000
 GSVD:  LWork=       -1209 too small for GESVD, short by        5270 words or        5270 for optimal perf.
 Range of M.O.s used for correlation:    32   679
 NBasis=   684 NAE=   107 NBE=   107 NFC=    31 NFV=     0
 NROrb=    648 NOA=    76 NOB=    76 NVA=   572 NVB=   572

 **** Warning!!: The largest alpha MO coefficient is  0.16699946D+03

 Orbital symmetries:
       Occupied  (A) (A) (A) (A) (A) (A) (A) (A) (A) (A) (A) (A)
                 (A) (A) (A) (A) (A) (A) (A) (A) (A) (A) (A) (A)
                 (A) (A) (A) (A) (A) (A) (A) (A) (A) (A) (A) (A)
                 (A) (A) (A) (A) (A) (A) (A) (A) (A) (A) (A) (A)
                 (A) (A) (A) (A) (A) (A) (A) (A) (A) (A) (A) (A)
                 (A) (A) (A) (A) (A) (A) (A) (A) (A) (A) (A) (A)
                 (A) (A) (A) (A) (A) (A) (A) (A) (A) (A) (A) (A)
                 (A) (A) (A) (A) (A) (A) (A) (A) (A) (A) (A) (A)
                 (A) (A) (A) (A) (A) (A) (A) (A) (A) (A) (A)
       Virtual   (A) (A) (A) (A) (A) (A) (A) (A) (A) (A) (A) (A)
                 (A) (A) (A) (A) (A) (A) (A) (A) (A) (A) (A) (A)
                 (A) (A) (A) (A) (A) (A) (A) (A) (A) (A) (A) (A)
                 (A) (A) (A) (A) (A) (A) (A) (A) (A) (A) (A) (A)
                 (A) (A) (A) (A) (A) (A) (A) (A) (A) (A) (A) (A)
                 (A) (A) (A) (A) (A) (A) (A) (A) (A) (A) (A) (A)
                 (A) (A) (A) (A) (A) (A) (A) (A) (A) (A) (A) (A)
                 (A) (A) (A) (A) (A) (A) (A) (A) (A) (A) (A) (A)
                 (A) (A) (A) (A) (A) (A) (A) (A) (A) (A) (A) (A)
                 (A) (A) (A) (A) (A) (A) (A) (A) (A) (A) (A) (A)
                 (A) (A) (A) (A) (A) (A) (A) (A) (A) (A) (A) (A)
                 (A) (A) (A) (A) (A) (A) (A) (A) (A) (A) (A) (A)
                 (A) (A) (A) (A) (A) (A) (A) (A) (A) (A) (A) (A)
                 (A) (A) (A) (A) (A) (A) (A) (A) (A) (A) (A) (A)
                 (A) (A) (A) (A) (A) (A) (A) (A) (A) (A) (A) (A)
                 (A) (A) (A) (A) (A) (A) (A) (A) (A) (A) (A) (A)
                 (A) (A) (A) (A) (A) (A) (A) (A) (A) (A) (A) (A)
                 (A) (A) (A) (A) (A) (A) (A) (A) (A) (A) (A) (A)
                 (A) (A) (A) (A) (A) (A) (A) (A) (A) (A) (A) (A)
                 (A) (A) (A) (A) (A) (A) (A) (A) (A) (A) (A) (A)
                 (A) (A) (A) (A) (A) (A) (A) (A) (A) (A) (A) (A)
                 (A) (A) (A) (A) (A) (A) (A) (A) (A) (A) (A) (A)
                 (A) (A) (A) (A) (A) (A) (A) (A) (A) (A) (A) (A)
                 (A) (A) (A) (A) (A) (A) (A) (A) (A) (A) (A) (A)
                 (A) (A) (A) (A) (A) (A) (A) (A) (A) (A) (A) (A)
                 (A) (A) (A) (A) (A) (A) (A) (A) (A) (A) (A) (A)
                 (A) (A) (A) (A) (A) (A) (A) (A) (A) (A) (A) (A)
                 (A) (A) (A) (A) (A) (A) (A) (A) (A) (A) (A) (A)
                 (A) (A) (A) (A) (A) (A) (A) (A) (A) (A) (A) (A)
                 (A) (A) (A) (A) (A) (A) (A) (A) (A) (A) (A) (A)
                 (A) (A) (A) (A) (A) (A) (A) (A) (A) (A) (A) (A)
                 (A) (A) (A) (A) (A) (A) (A) (A) (A) (A) (A) (A)
                 (A) (A) (A) (A) (A) (A) (A) (A) (A) (A) (A) (A)
                 (A) (A) (A) (A) (A) (A) (A) (A) (A) (A) (A) (A)
                 (A) (A) (A) (A) (A) (A) (A) (A) (A) (A) (A) (A)
                 (A) (A) (A) (A) (A) (A) (A) (A) (A) (A) (A) (A)
                 (A) (A) (A) (A) (A) (A) (A) (A) (A) (A) (A) (A)
                 (A) (A) (A) (A) (A) (A) (A) (A) (A) (A) (A) (A)
                 (A) (A) (A) (A) (A) (A) (A) (A) (A) (A) (A) (A)
                 (A) (A) (A) (A) (A) (A) (A) (A) (A) (A) (A) (A)
                 (A) (A) (A) (A) (A) (A) (A) (A) (A) (A) (A) (A)
                 (A) (A) (A) (A) (A) (A) (A) (A) (A) (A) (A) (A)
                 (A) (A) (A) (A) (A) (A) (A) (A) (A) (A) (A) (A)
                 (A) (A) (A) (A) (A) (A) (A) (A) (A) (A) (A) (A)
                 (A) (A) (A) (A) (A) (A) (A) (A) (A) (A) (A) (A)
                 (A) (A) (A) (A) (A) (A) (A) (A) (A) (A) (A) (A)
                 (A) (A) (A) (A) (A) (A) (A) (A) (A) (A) (A) (A)
                 (A) (A) (A) (A) (A) (A) (A) (A)
    24 initial guesses have been made.
 Convergence on wavefunction:    0.001000000000000
 Iteration     1 Dimension    24 NMult     0 NNew     24
 CISAX will form    24 AO SS matrices at one time.
 New state      1 was old state      2
 New state      2 was old state      6
 New state      3 was old state      4
 New state      4 was old state      3
 New state      5 was old state     20
 New state      6 was old state      5
 New state      7 was old state     12
 New state      8 was old state     10
 New state     10 was old state      8
 New state     11 was old state      7
 New state     12 was old state     13
 Vector   5 SDiff=1.13D+00 TDiff=7.58D+00 assumed to be singlet.
 Vector  11 SDiff=4.92D+00 TDiff=3.04D+00 assumed to be triplet.
 Iteration     2 Dimension    36 NMult    24 NNew     12
 New state      5 was old state      6
 New state      6 was old state      9
 Iteration     3 Dimension    48 NMult    36 NNew     12
 New state      3 was old state      4
 New state      4 was old state      3
 Iteration     4 Dimension    60 NMult    48 NNew     12
 Iteration     5 Dimension    72 NMult    60 NNew     12
 Iteration     6 Dimension    84 NMult    72 NNew     12
 Iteration     7 Dimension    92 NMult    84 NNew      8
 Iteration     8 Dimension    98 NMult    92 NNew      6
 Iteration     9 Dimension   102 NMult    98 NNew      4
 Iteration    10 Dimension   106 NMult   102 NNew      4
 ***********************************************************************
 Excited states from <AA,BB:AA,BB> singles matrix:
 ***********************************************************************
 
 Ground to excited state transition densities written to RWF  633
 Ground to excited state transition electric dipole moments (Au):
       state          X           Y           Z        Dip. S.      Osc.
         1        -0.0000      0.0000      0.0000      0.0000      0.0000
         2         0.0000      0.0000     -0.0000      0.0000      0.0000
         3        -0.0333      0.4348     -0.0398      0.1918      0.0138
         4         0.0000      0.0000      0.0000      0.0000      0.0000
         5        -0.6243      0.0281     -0.1032      0.4012      0.0318
         6        -0.3140      0.2874      0.0058      0.1812      0.0149
 Ground to excited state transition velocity dipole moments (Au):
       state          X           Y           Z        Dip. S.      Osc.
         1         0.0000     -0.0000     -0.0000      0.0000      0.0000
         2        -0.0000      0.0000      0.0000      0.0000      0.0000
         3         0.0054     -0.0466      0.0037      0.0022      0.0137
         4        -0.0000     -0.0000     -0.0000      0.0000      0.0000
         5         0.0707     -0.0033      0.0132      0.0052      0.0291
         6         0.0376     -0.0344      0.0012      0.0026      0.0141
 Ground to excited state transition magnetic dipole moments (Au):
       state          X           Y           Z
         1         0.0000     -0.0000     -0.0000
         2        -0.0000     -0.0000      0.0000
         3         0.0488     -0.0943     -0.2915
         4         0.0000      0.0000     -0.0000
         5        -0.2911      0.2087      0.2899
         6        -0.0286     -0.1559     -0.1416
 Ground to excited state transition velocity quadrupole moments (Au):
       state          XX          YY          ZZ          XY          XZ          YZ
         1         0.0000      0.0000      0.0000     -0.0000      0.0000      0.0000
         2        -0.0000      0.0000     -0.0000      0.0000      0.0000      0.0000
         3        -0.3131      0.3153      0.0347      0.3769     -0.0251     -0.0918
         4         0.0000      0.0000      0.0000     -0.0000      0.0000     -0.0000
         5        -0.3507      0.1888      0.0117     -0.0559     -0.0724      0.0335
         6        -0.3248      0.0484     -0.0153      0.0587     -0.1143     -0.1098
 <0|del|b> * <b|rxdel|0> + <0|del|b> * <b|delr+rdel|0>
 Rotatory Strengths (R) in cgs (10**-40 erg-esu-cm/Gauss)
       state          XX          YY          ZZ    R(velocity)    E-M Angle
         1         0.0000      0.0000      0.0000      0.0000       90.00
         2         0.0000     -0.0000      0.0000      0.0000       90.00
         3        11.5932     -8.9481     20.7207      7.7886       75.85
         4         0.0000      0.0000     -0.0000      0.0000       90.00
         5         6.3780    -40.6512    -69.6141    -34.6291      121.76
         6         3.8310    -15.6071     35.4301      7.8847       67.64
 1/2[<0|r|b>*<b|rxdel|0> + (<0|rxdel|b>*<b|r|0>)*]
 Rotatory Strengths (R) in cgs (10**-40 erg-esu-cm/Gauss)
       state          XX          YY          ZZ     R(length)
         1         0.0000      0.0000      0.0000      0.0000
         2         0.0000      0.0000      0.0000      0.0000
         3         1.1498     28.9926     -8.2093      7.3110
         4        -0.0000     -0.0000      0.0000      0.0000
         5      -128.5109     -4.1404     21.1624    -37.1630
         6        -6.3591     31.6901      0.5851      8.6387
  1/2[<0|del|b>*<b|r|0> + (<0|r|b>*<b|del|0>)*] (Au)
       state          X           Y           Z        Dip. S.   Osc.(frdel)
         1        -0.0000     -0.0000     -0.0000      0.0000      0.0000
         2        -0.0000      0.0000     -0.0000      0.0000      0.0000
         3        -0.0002     -0.0203     -0.0001      0.0206      0.0137
         4        -0.0000     -0.0000     -0.0000      0.0000      0.0000
         5        -0.0442     -0.0001     -0.0014      0.0456      0.0304
         6        -0.0118     -0.0099      0.0000      0.0217      0.0145

 Excitation energies and oscillator strengths:
 
 Excited State   1:      Triplet-A      0.6990 eV 1773.68 nm  f=0.0000  <S**2>=2.000
     107 ->108         0.78464
     107 <-108         0.38928
 This state for optimization and/or second-order correction.
 Total Energy, E(TD-HF/TD-DFT) =  -1353.92094547    
 Copying the excited state density for this state as the 1-particle RhoCI density.
 
 Excited State   2:      Triplet-A      2.4539 eV  505.26 nm  f=0.0000  <S**2>=2.000
      97 ->108        -0.18459
     103 ->108         0.40516
     106 ->108        -0.19439
     107 ->109         0.40348
     107 ->110        -0.23030
 
 Excited State   3:      Singlet-A      2.9403 eV  421.67 nm  f=0.0138  <S**2>=0.000
     107 ->108         0.68401
     107 ->109        -0.16691
     107 <-108        -0.10839
 
 Excited State   4:      Triplet-A      2.9816 eV  415.83 nm  f=0.0000  <S**2>=2.000
     100 ->108        -0.31765
     101 ->108        -0.18350
     102 ->108         0.25405
     104 ->108         0.33013
     104 ->109        -0.28072
     106 ->108        -0.24445
 
 Excited State   5:      Singlet-A      3.2360 eV  383.14 nm  f=0.0318  <S**2>=0.000
     100 ->108         0.26872
     101 ->108         0.15190
     102 ->108        -0.22766
     104 ->108        -0.23812
     106 ->108         0.51725
 
 Excited State   6:      Singlet-A      3.3516 eV  369.92 nm  f=0.0149  <S**2>=0.000
     100 ->108        -0.11106
     104 ->108         0.46045
     104 ->109        -0.18275
     106 ->108         0.30328
     107 ->109         0.33936
 SavETr:  write IOETrn=   770 NScale= 10 NData=  16 NLR=1 NState=    6 LETran=     118.

 **********************************************************************

            Population analysis using the SCF Density.

 **********************************************************************

 Orbital symmetries:
       Occupied  (A) (A) (A) (A) (A) (A) (A) (A) (A) (A) (A) (A)
                 (A) (A) (A) (A) (A) (A) (A) (A) (A) (A) (A) (A)
                 (A) (A) (A) (A) (A) (A) (A) (A) (A) (A) (A) (A)
                 (A) (A) (A) (A) (A) (A) (A) (A) (A) (A) (A) (A)
                 (A) (A) (A) (A) (A) (A) (A) (A) (A) (A) (A) (A)
                 (A) (A) (A) (A) (A) (A) (A) (A) (A) (A) (A) (A)
                 (A) (A) (A) (A) (A) (A) (A) (A) (A) (A) (A) (A)
                 (A) (A) (A) (A) (A) (A) (A) (A) (A) (A) (A) (A)
                 (A) (A) (A) (A) (A) (A) (A) (A) (A) (A) (A)
       Virtual   (A) (A) (A) (A) (A) (A) (A) (A) (A) (A) (A) (A)
                 (A) (A) (A) (A) (A) (A) (A) (A) (A) (A) (A) (A)
                 (A) (A) (A) (A) (A) (A) (A) (A) (A) (A) (A) (A)
                 (A) (A) (A) (A) (A) (A) (A) (A) (A) (A) (A) (A)
                 (A) (A) (A) (A) (A) (A) (A) (A) (A) (A) (A) (A)
                 (A) (A) (A) (A) (A) (A) (A) (A) (A) (A) (A) (A)
                 (A) (A) (A) (A) (A) (A) (A) (A) (A) (A) (A) (A)
                 (A) (A) (A) (A) (A) (A) (A) (A) (A) (A) (A) (A)
                 (A) (A) (A) (A) (A) (A) (A) (A) (A) (A) (A) (A)
                 (A) (A) (A) (A) (A) (A) (A) (A) (A) (A) (A) (A)
                 (A) (A) (A) (A) (A) (A) (A) (A) (A) (A) (A) (A)
                 (A) (A) (A) (A) (A) (A) (A) (A) (A) (A) (A) (A)
                 (A) (A) (A) (A) (A) (A) (A) (A) (A) (A) (A) (A)
                 (A) (A) (A) (A) (A) (A) (A) (A) (A) (A) (A) (A)
                 (A) (A) (A) (A) (A) (A) (A) (A) (A) (A) (A) (A)
                 (A) (A) (A) (A) (A) (A) (A) (A) (A) (A) (A) (A)
                 (A) (A) (A) (A) (A) (A) (A) (A) (A) (A) (A) (A)
                 (A) (A) (A) (A) (A) (A) (A) (A) (A) (A) (A) (A)
                 (A) (A) (A) (A) (A) (A) (A) (A) (A) (A) (A) (A)
                 (A) (A) (A) (A) (A) (A) (A) (A) (A) (A) (A) (A)
                 (A) (A) (A) (A) (A) (A) (A) (A) (A) (A) (A) (A)
                 (A) (A) (A) (A) (A) (A) (A) (A) (A) (A) (A) (A)
                 (A) (A) (A) (A) (A) (A) (A) (A) (A) (A) (A) (A)
                 (A) (A) (A) (A) (A) (A) (A) (A) (A) (A) (A) (A)
                 (A) (A) (A) (A) (A) (A) (A) (A) (A) (A) (A) (A)
                 (A) (A) (A) (A) (A) (A) (A) (A) (A) (A) (A) (A)
                 (A) (A) (A) (A) (A) (A) (A) (A) (A) (A) (A) (A)
                 (A) (A) (A) (A) (A) (A) (A) (A) (A) (A) (A) (A)
                 (A) (A) (A) (A) (A) (A) (A) (A) (A) (A) (A) (A)
                 (A) (A) (A) (A) (A) (A) (A) (A) (A) (A) (A) (A)
                 (A) (A) (A) (A) (A) (A) (A) (A) (A) (A) (A) (A)
                 (A) (A) (A) (A) (A) (A) (A) (A) (A) (A) (A) (A)
                 (A) (A) (A) (A) (A) (A) (A) (A) (A) (A) (A) (A)
                 (A) (A) (A) (A) (A) (A) (A) (A) (A) (A) (A) (A)
                 (A) (A) (A) (A) (A) (A) (A) (A) (A) (A) (A) (A)
                 (A) (A) (A) (A) (A) (A) (A) (A) (A) (A) (A) (A)
                 (A) (A) (A) (A) (A) (A) (A) (A) (A) (A) (A) (A)
                 (A) (A) (A) (A) (A) (A) (A) (A) (A) (A) (A) (A)
                 (A) (A) (A) (A) (A) (A) (A) (A) (A) (A) (A) (A)
                 (A) (A) (A) (A) (A) (A) (A) (A) (A) (A) (A) (A)
                 (A) (A) (A) (A) (A) (A) (A) (A) (A) (A) (A) (A)
                 (A) (A) (A) (A) (A) (A) (A) (A) (A) (A) (A) (A)
                 (A) (A) (A) (A) (A) (A) (A) (A) (A) (A) (A) (A)
                 (A) (A) (A) (A) (A) (A) (A) (A) (A) (A) (A) (A)
                 (A) (A) (A) (A) (A) (A) (A) (A) (A) (A) (A) (A)
                 (A) (A) (A) (A) (A) (A) (A) (A) (A) (A) (A) (A)
                 (A) (A) (A) (A) (A) (A) (A) (A) (A) (A) (A) (A)
                 (A) (A) (A) (A) (A) (A) (A) (A)
 The electronic state is 1-A.
 Alpha  occ. eigenvalues --  -19.17471 -19.17394 -19.15402 -14.51371 -14.50996
 Alpha  occ. eigenvalues --  -14.37669 -10.35010 -10.29475 -10.29058 -10.28935
 Alpha  occ. eigenvalues --  -10.26453 -10.24991 -10.24274 -10.24202 -10.23332
 Alpha  occ. eigenvalues --  -10.22960 -10.22657 -10.22556 -10.22380 -10.22215
 Alpha  occ. eigenvalues --  -10.22041 -10.22028 -10.22012 -10.21852 -10.21734
 Alpha  occ. eigenvalues --  -10.20412 -10.20277 -10.20215 -10.20198 -10.20112
 Alpha  occ. eigenvalues --  -10.19633  -1.16389  -1.13733  -1.05325  -0.97990
 Alpha  occ. eigenvalues --   -0.94037  -0.89918  -0.89187  -0.87530  -0.85310
 Alpha  occ. eigenvalues --   -0.85242  -0.80124  -0.79212  -0.78232  -0.77553
 Alpha  occ. eigenvalues --   -0.76930  -0.75598  -0.74788  -0.71145  -0.68527
 Alpha  occ. eigenvalues --   -0.67623  -0.64814  -0.63938  -0.62349  -0.62046
 Alpha  occ. eigenvalues --   -0.61654  -0.60938  -0.58813  -0.57629  -0.55293
 Alpha  occ. eigenvalues --   -0.53956  -0.53154  -0.51867  -0.51647  -0.49855
 Alpha  occ. eigenvalues --   -0.49562  -0.49328  -0.48789  -0.48089  -0.47516
 Alpha  occ. eigenvalues --   -0.46983  -0.46845  -0.46575  -0.45594  -0.45415
 Alpha  occ. eigenvalues --   -0.45093  -0.44655  -0.44473  -0.43282  -0.43033
 Alpha  occ. eigenvalues --   -0.42537  -0.41498  -0.41150  -0.40077  -0.39756
 Alpha  occ. eigenvalues --   -0.39266  -0.38331  -0.38292  -0.37830  -0.37357
 Alpha  occ. eigenvalues --   -0.37275  -0.36874  -0.36651  -0.36328  -0.35723
 Alpha  occ. eigenvalues --   -0.35163  -0.32866  -0.30800  -0.29693  -0.28735
 Alpha  occ. eigenvalues --   -0.28457  -0.27792  -0.27039  -0.26430  -0.26208
 Alpha  occ. eigenvalues --   -0.25830  -0.22762
 Alpha virt. eigenvalues --   -0.11401  -0.08085  -0.05787  -0.04171  -0.03639
 Alpha virt. eigenvalues --   -0.03113  -0.02286  -0.01678  -0.01268  -0.00878
 Alpha virt. eigenvalues --    0.00024   0.00372   0.00498   0.00681   0.01186
 Alpha virt. eigenvalues --    0.01906   0.02043   0.02373   0.02766   0.03114
 Alpha virt. eigenvalues --    0.03652   0.03697   0.04369   0.04386   0.04872
 Alpha virt. eigenvalues --    0.05340   0.05418   0.05852   0.06204   0.06437
 Alpha virt. eigenvalues --    0.06490   0.07013   0.07532   0.07601   0.07980
 Alpha virt. eigenvalues --    0.08055   0.08755   0.08964   0.09424   0.09852
 Alpha virt. eigenvalues --    0.10033   0.10162   0.10659   0.10798   0.11051
 Alpha virt. eigenvalues --    0.11318   0.11476   0.11600   0.11788   0.11928
 Alpha virt. eigenvalues --    0.12048   0.12438   0.13134   0.13185   0.13498
 Alpha virt. eigenvalues --    0.13689   0.14120   0.14176   0.14483   0.14704
 Alpha virt. eigenvalues --    0.15073   0.15160   0.15500   0.15935   0.16180
 Alpha virt. eigenvalues --    0.16290   0.16576   0.16635   0.16857   0.17194
 Alpha virt. eigenvalues --    0.17345   0.17539   0.17777   0.17938   0.18094
 Alpha virt. eigenvalues --    0.18414   0.18748   0.19009   0.19214   0.19395
 Alpha virt. eigenvalues --    0.19560   0.19774   0.19985   0.20109   0.20317
 Alpha virt. eigenvalues --    0.20569   0.20642   0.21199   0.21275   0.21337
 Alpha virt. eigenvalues --    0.21620   0.21715   0.22139   0.22321   0.22628
 Alpha virt. eigenvalues --    0.22717   0.23077   0.23414   0.23451   0.23819
 Alpha virt. eigenvalues --    0.23990   0.24121   0.24466   0.24557   0.24710
 Alpha virt. eigenvalues --    0.24956   0.25226   0.25532   0.25788   0.25906
 Alpha virt. eigenvalues --    0.26189   0.26598   0.26803   0.27213   0.27405
 Alpha virt. eigenvalues --    0.27496   0.27572   0.27948   0.28200   0.28339
 Alpha virt. eigenvalues --    0.28657   0.28731   0.28931   0.29280   0.29463
 Alpha virt. eigenvalues --    0.29885   0.30172   0.30390   0.30654   0.30860
 Alpha virt. eigenvalues --    0.31005   0.31312   0.31743   0.31785   0.32086
 Alpha virt. eigenvalues --    0.32350   0.32473   0.32739   0.33202   0.33514
 Alpha virt. eigenvalues --    0.33600   0.34263   0.34418   0.34699   0.34860
 Alpha virt. eigenvalues --    0.35292   0.35774   0.35825   0.36216   0.36521
 Alpha virt. eigenvalues --    0.37295   0.38031   0.38146   0.38866   0.39110
 Alpha virt. eigenvalues --    0.39429   0.39856   0.40231   0.40616   0.41040
 Alpha virt. eigenvalues --    0.41239   0.42076   0.42672   0.43389   0.43681
 Alpha virt. eigenvalues --    0.44212   0.44938   0.45321   0.46343   0.46675
 Alpha virt. eigenvalues --    0.46799   0.46924   0.47709   0.49838   0.50342
 Alpha virt. eigenvalues --    0.51347   0.53596   0.54504   0.56949   0.57423
 Alpha virt. eigenvalues --    0.57780   0.59052   0.59598   0.60585   0.61214
 Alpha virt. eigenvalues --    0.63822   0.66806   0.67672   0.67956   0.68580
 Alpha virt. eigenvalues --    0.68860   0.69202   0.69476   0.69688   0.70059
 Alpha virt. eigenvalues --    0.70713   0.70732   0.71145   0.71835   0.72274
 Alpha virt. eigenvalues --    0.72539   0.72967   0.73159   0.73384   0.73562
 Alpha virt. eigenvalues --    0.74016   0.74663   0.74754   0.75326   0.75751
 Alpha virt. eigenvalues --    0.75950   0.76620   0.77298   0.77694   0.78212
 Alpha virt. eigenvalues --    0.78625   0.79897   0.80250   0.80949   0.81137
 Alpha virt. eigenvalues --    0.81876   0.82293   0.82735   0.83595   0.84322
 Alpha virt. eigenvalues --    0.85190   0.85770   0.86203   0.86691   0.87470
 Alpha virt. eigenvalues --    0.87726   0.88082   0.88621   0.89300   0.89546
 Alpha virt. eigenvalues --    0.90141   0.90450   0.90645   0.91439   0.92029
 Alpha virt. eigenvalues --    0.92346   0.92717   0.93070   0.94307   0.94492
 Alpha virt. eigenvalues --    0.95297   0.95783   0.96390   0.96952   0.97865
 Alpha virt. eigenvalues --    0.98542   0.99157   0.99962   1.00183   1.01214
 Alpha virt. eigenvalues --    1.02039   1.02345   1.02685   1.03484   1.03996
 Alpha virt. eigenvalues --    1.05302   1.05654   1.05984   1.06714   1.07597
 Alpha virt. eigenvalues --    1.08525   1.09057   1.09183   1.09911   1.10537
 Alpha virt. eigenvalues --    1.10697   1.11221   1.12325   1.13148   1.14407
 Alpha virt. eigenvalues --    1.14658   1.15403   1.15752   1.16677   1.17703
 Alpha virt. eigenvalues --    1.18017   1.18750   1.19477   1.20980   1.22164
 Alpha virt. eigenvalues --    1.22503   1.23287   1.23607   1.24984   1.25150
 Alpha virt. eigenvalues --    1.25290   1.25969   1.26429   1.26990   1.28266
 Alpha virt. eigenvalues --    1.29024   1.29711   1.30292   1.30989   1.31542
 Alpha virt. eigenvalues --    1.32600   1.33162   1.33811   1.34291   1.35304
 Alpha virt. eigenvalues --    1.35474   1.35953   1.36651   1.36929   1.37108
 Alpha virt. eigenvalues --    1.37997   1.38425   1.38478   1.38854   1.39550
 Alpha virt. eigenvalues --    1.39955   1.40540   1.41008   1.41233   1.41920
 Alpha virt. eigenvalues --    1.42188   1.42230   1.43290   1.43627   1.44497
 Alpha virt. eigenvalues --    1.45368   1.45483   1.46601   1.47031   1.48397
 Alpha virt. eigenvalues --    1.49423   1.50218   1.51137   1.52495   1.53630
 Alpha virt. eigenvalues --    1.54994   1.55837   1.56989   1.59358   1.59858
 Alpha virt. eigenvalues --    1.61371   1.61769   1.64587   1.64835   1.66761
 Alpha virt. eigenvalues --    1.67098   1.69561   1.70136   1.71369   1.72824
 Alpha virt. eigenvalues --    1.73839   1.74465   1.75181   1.77509   1.78627
 Alpha virt. eigenvalues --    1.79053   1.79316   1.80864   1.81573   1.82846
 Alpha virt. eigenvalues --    1.83220   1.83975   1.84466   1.84730   1.85546
 Alpha virt. eigenvalues --    1.86380   1.87779   1.88485   1.89223   1.90045
 Alpha virt. eigenvalues --    1.90409   1.90721   1.91663   1.91790   1.92281
 Alpha virt. eigenvalues --    1.92939   1.94216   1.94907   1.95324   1.95636
 Alpha virt. eigenvalues --    1.96034   1.96674   1.97172   1.97483   1.98340
 Alpha virt. eigenvalues --    1.98593   1.99342   1.99454   2.00126   2.00399
 Alpha virt. eigenvalues --    2.01065   2.01233   2.01646   2.02298   2.02786
 Alpha virt. eigenvalues --    2.03323   2.03441   2.05013   2.05361   2.06078
 Alpha virt. eigenvalues --    2.06666   2.06848   2.08537   2.09696   2.10557
 Alpha virt. eigenvalues --    2.11353   2.11827   2.12957   2.13008   2.13630
 Alpha virt. eigenvalues --    2.14492   2.15980   2.17875   2.18706   2.19173
 Alpha virt. eigenvalues --    2.20679   2.22152   2.22821   2.24046   2.25701
 Alpha virt. eigenvalues --    2.25980   2.27289   2.27752   2.28206   2.29228
 Alpha virt. eigenvalues --    2.29960   2.30898   2.31946   2.32419   2.34801
 Alpha virt. eigenvalues --    2.35591   2.36136   2.36755   2.36828   2.37226
 Alpha virt. eigenvalues --    2.37321   2.38480   2.39077   2.39125   2.40252
 Alpha virt. eigenvalues --    2.40820   2.41366   2.42269   2.43644   2.44289
 Alpha virt. eigenvalues --    2.45016   2.45544   2.46323   2.46583   2.48035
 Alpha virt. eigenvalues --    2.48923   2.49918   2.50251   2.51049   2.51766
 Alpha virt. eigenvalues --    2.52940   2.53664   2.53785   2.54294   2.54740
 Alpha virt. eigenvalues --    2.55665   2.55869   2.56840   2.57632   2.58056
 Alpha virt. eigenvalues --    2.58920   2.59208   2.59641   2.59886   2.60761
 Alpha virt. eigenvalues --    2.61356   2.61705   2.62663   2.63913   2.64551
 Alpha virt. eigenvalues --    2.65271   2.66181   2.67839   2.69516   2.69891
 Alpha virt. eigenvalues --    2.70912   2.71602   2.73105   2.73665   2.74611
 Alpha virt. eigenvalues --    2.75640   2.77168   2.78217   2.78985   2.79762
 Alpha virt. eigenvalues --    2.80747   2.82457   2.83705   2.84217   2.86033
 Alpha virt. eigenvalues --    2.87724   2.88010   2.90257   2.91341   2.93228
 Alpha virt. eigenvalues --    2.98025   2.99497   3.00064   3.02643   3.04810
 Alpha virt. eigenvalues --    3.05177   3.06043   3.06498   3.07377   3.08972
 Alpha virt. eigenvalues --    3.10222   3.16581   3.18281   3.19635   3.20191
 Alpha virt. eigenvalues --    3.20766   3.22453   3.25209   3.25563   3.26635
 Alpha virt. eigenvalues --    3.28292   3.28572   3.28737   3.31391   3.33637
 Alpha virt. eigenvalues --    3.34371   3.34864   3.36431   3.36661   3.40356
 Alpha virt. eigenvalues --    3.44454   3.45195   3.48519   3.49247   3.50495
 Alpha virt. eigenvalues --    3.52943   3.53449   3.54368   3.83146   3.88179
 Alpha virt. eigenvalues --    3.89485   4.23993   4.29338   4.29927   4.31038
 Alpha virt. eigenvalues --    4.31707   4.32544   4.33643   4.36604   4.38130
 Alpha virt. eigenvalues --    4.39490   4.41310   4.42689   4.44484   4.46990
 Alpha virt. eigenvalues --    4.47734   4.49139   4.50974   4.51550   4.53257
 Alpha virt. eigenvalues --    4.53403   4.54613   4.62458   4.64096   4.66460
 Alpha virt. eigenvalues --    4.69964   4.83665   4.86721   4.86985   4.89227
 Alpha virt. eigenvalues --    5.03424   5.15160
          Condensed to atoms (all electrons):
               1          2          3          4          5          6
     1  C    6.240127  -0.459962  -0.162880  -0.684282  -0.082986  -0.053735
     2  C   -0.459962   9.141860   0.645449  -1.489218   0.229624  -0.385934
     3  O   -0.162880   0.645449   8.194823  -0.446164   0.207169   0.060453
     4  C   -0.684282  -1.489218  -0.446164  22.595304  -9.831475   0.927447
     5  C   -0.082986   0.229624   0.207169  -9.831475  17.429482  -1.304981
     6  C   -0.053735  -0.385934   0.060453   0.927447  -1.304981   7.448304
     7  C    0.030492   0.365679  -0.001414   0.374427  -1.301839   0.547128
     8  C   -0.172997   0.785643   0.011193  -1.709754   3.189389  -1.679018
     9  C    0.301499  -1.863029  -0.099797  -1.595928  -1.614324   0.445417
    10  C    0.060606   0.269600   0.002522  -2.130631  -1.978801  -0.068764
    11  N    0.171739  -0.621572  -0.007776   0.396295   0.504297   0.037484
    12  O   -0.108010   0.188797  -0.007030  -0.074985  -0.272273   0.017163
    13  C   -0.060838  -0.374027  -0.006212   1.637267   0.120917   0.029059
    14  C    0.029359  -0.081410   0.000312  -0.482644  -0.085300  -0.007417
    15  N    0.019928  -0.016782   0.000023   0.037432   0.004919   0.000053
    16  C   -0.097496   0.273412   0.000452  -0.448601  -0.128357   0.004385
    17  C    0.023955  -0.094342   0.000602   0.045316   0.098551  -0.012220
    18  C    0.004831  -0.016089   0.000097  -0.007798  -0.010933   0.000406
    19  C    0.000598  -0.001850  -0.000008   0.003233   0.000013   0.000055
    20  C   -0.000609   0.001660   0.000018  -0.002608   0.000411   0.000035
    21  C    0.002925  -0.022600  -0.000177   0.047537  -0.001448   0.003453
    22  C   -0.021743   0.072501  -0.000270  -0.058947   0.017399   0.000275
    23  N    0.005310   0.039420   0.000109  -0.100961  -0.037547  -0.001198
    24  O    0.003048   0.001531   0.000002   0.013595  -0.001299  -0.000151
    25  C    0.137907  -0.522898  -0.001209  -2.124452   0.661268  -0.038551
    26  C   -0.049079   0.078559   0.001546   2.523801  -1.203547   0.369161
    27  C   -0.001661   0.106937   0.000074   1.175964  -0.423342   0.136410
    28  C    0.000867  -0.013956  -0.000065  -0.183420   0.060864  -0.009648
    29  C    0.005839  -0.003656   0.000092   0.001248   0.040502  -0.024068
    30  C   -0.055397   0.188540  -0.000511   0.173618  -0.158867   0.004962
    31  C    0.142070  -0.427088  -0.000927  -3.026609   1.476658  -0.415601
    32  H    0.446633  -0.111385  -0.006375   0.048407  -0.028926  -0.002701
    33  H    0.412929  -0.101568  -0.001355   0.028574  -0.013596  -0.000538
    34  H    0.326322  -0.015295   0.007501   0.055759   0.024741   0.001741
    35  H    0.008616  -0.001904  -0.002129  -0.024302   0.298654  -0.027805
    36  H   -0.000055  -0.002301   0.000176   0.018727  -0.008006   0.295233
    37  H    0.000013   0.000538   0.000008   0.022189   0.006648   0.033547
    38  H    0.001670   0.004199   0.000019  -0.015207  -0.014980  -0.020391
    39  H   -0.000195   0.000290  -0.000000  -0.002942   0.000732  -0.000043
    40  H    0.000042  -0.000110  -0.000000   0.000074  -0.000025   0.000006
    41  H   -0.000010   0.000037  -0.000000  -0.000036  -0.000003  -0.000000
    42  H   -0.000000   0.000001  -0.000000   0.000001   0.000000   0.000000
    43  H   -0.000000   0.000001   0.000000  -0.000001   0.000000  -0.000000
    44  H   -0.000012   0.000015  -0.000000   0.000057   0.000005   0.000002
    45  H    0.000351  -0.001749   0.000002  -0.000930  -0.000863   0.000109
    46  H   -0.000039   0.000212   0.000000  -0.000737  -0.000076  -0.000031
    47  H   -0.000005   0.000002  -0.000000  -0.000029   0.000004  -0.000008
    48  H    0.000001  -0.000002   0.000000   0.000002  -0.000007   0.000015
    49  H   -0.000118   0.000508   0.000000  -0.000145   0.000482  -0.001175
    50  H    0.000621  -0.004026  -0.000006   0.022591   0.003189   0.000212
               7          8          9         10         11         12
     1  C    0.030492  -0.172997   0.301499   0.060606   0.171739  -0.108010
     2  C    0.365679   0.785643  -1.863029   0.269600  -0.621572   0.188797
     3  O   -0.001414   0.011193  -0.099797   0.002522  -0.007776  -0.007030
     4  C    0.374427  -1.709754  -1.595928  -2.130631   0.396295  -0.074985
     5  C   -1.301839   3.189389  -1.614324  -1.978801   0.504297  -0.272273
     6  C    0.547128  -1.679018   0.445417  -0.068764   0.037484   0.017163
     7  C   10.663551  -3.468561  -0.892434  -0.042157  -0.058589   0.055638
     8  C   -3.468561  14.369638  -3.980258  -0.570406  -0.021970   0.069317
     9  C   -0.892434  -3.980258  15.308764   0.026022  -0.427913   0.038523
    10  C   -0.042157  -0.570406   0.026022  15.622115  -2.532607   0.653674
    11  N   -0.058589  -0.021970  -0.427913  -2.532607  11.466479  -0.640637
    12  O    0.055638   0.069317   0.038523   0.653674  -0.640637   7.957040
    13  C    0.010078  -1.747917   3.102873  -6.528808  -3.633310  -0.665268
    14  C    0.041360   0.200430  -0.586329  -0.590686   0.207212   0.196766
    15  N   -0.001131  -0.013524   0.023662  -0.077537   0.011863  -0.051543
    16  C    0.106618   0.646386  -0.764012   2.087458   0.674909   0.640506
    17  C   -0.020917  -0.080683  -0.371652  -0.238024   0.273325  -0.342904
    18  C    0.000317  -0.011903   0.023892   0.402027  -0.559140   0.110010
    19  C    0.001196   0.001359   0.001204  -0.052510   0.044370  -0.010952
    20  C   -0.000959  -0.001423  -0.001834   0.020832   0.005509   0.003844
    21  C   -0.005519  -0.016812   0.009314  -0.237395   0.058655  -0.100786
    22  C   -0.016079   0.007327  -0.057627  -0.215317   0.638300   0.022540
    23  N    0.129919   0.209140  -0.510434   0.641152   0.888059  -0.055541
    24  O    0.000177  -0.028330   0.166659  -0.191343  -0.175712  -0.021070
    25  C   -0.689435   0.500172  -0.663669   1.709608   1.371995  -0.026141
    26  C   -0.242874  -0.633452   0.621808  -1.186843  -0.313849   0.004679
    27  C   -0.098481  -0.052875   1.319144  -2.064087   0.168079  -0.032503
    28  C    0.169417  -0.053224  -0.381141   0.739173  -0.048125  -0.006927
    29  C   -0.033561   0.029133  -0.031258   0.024405  -0.006707  -0.002012
    30  C    0.005915   0.446394  -0.013201  -0.739226   0.031087   0.034479
    31  C    0.217414  -0.307361  -1.214477   2.878535  -0.240848  -0.004596
    32  H   -0.000010   0.000183   0.012866  -0.003558  -0.003471   0.001290
    33  H    0.000123   0.003273  -0.009719  -0.036531   0.062725  -0.008022
    34  H   -0.001555   0.001883  -0.004139  -0.044954   0.000968  -0.001461
    35  H    0.019708  -0.025887   0.056332   0.010227   0.000539  -0.000161
    36  H    0.001504   0.021979  -0.013282  -0.002174  -0.000037   0.000004
    37  H    0.291909  -0.048382   0.007942  -0.002163   0.000054  -0.000005
    38  H   -0.089780   0.295713   0.019637   0.075265  -0.008993   0.000647
    39  H    0.001177   0.008684  -0.029824   0.045933   0.063152  -0.005288
    40  H   -0.000280  -0.003536   0.004358  -0.004767  -0.010292   0.001936
    41  H    0.000006   0.000022   0.000615   0.000487  -0.001664  -0.000015
    42  H   -0.000000  -0.000000   0.000000   0.000027   0.000044  -0.000001
    43  H   -0.000000  -0.000000  -0.000003   0.000001   0.000043  -0.000010
    44  H   -0.000005  -0.000009   0.000009  -0.000017  -0.000062   0.000060
    45  H    0.000602   0.001294   0.000669  -0.000624  -0.001199  -0.001324
    46  H    0.002660   0.006209   0.002706   0.005912  -0.000232  -0.000003
    47  H   -0.000156  -0.000120  -0.000163  -0.000645   0.000010   0.000000
    48  H    0.000039  -0.000156  -0.000039  -0.000005  -0.000001  -0.000000
    49  H   -0.000094   0.000144   0.000204   0.000427  -0.000020   0.000000
    50  H   -0.045343   0.010938  -0.014309   0.024711   0.001979   0.000190
              13         14         15         16         17         18
     1  C   -0.060838   0.029359   0.019928  -0.097496   0.023955   0.004831
     2  C   -0.374027  -0.081410  -0.016782   0.273412  -0.094342  -0.016089
     3  O   -0.006212   0.000312   0.000023   0.000452   0.000602   0.000097
     4  C    1.637267  -0.482644   0.037432  -0.448601   0.045316  -0.007798
     5  C    0.120917  -0.085300   0.004919  -0.128357   0.098551  -0.010933
     6  C    0.029059  -0.007417   0.000053   0.004385  -0.012220   0.000406
     7  C    0.010078   0.041360  -0.001131   0.106618  -0.020917   0.000317
     8  C   -1.747917   0.200430  -0.013524   0.646386  -0.080683  -0.011903
     9  C    3.102873  -0.586329   0.023662  -0.764012  -0.371652   0.023892
    10  C   -6.528808  -0.590686  -0.077537   2.087458  -0.238024   0.402027
    11  N   -3.633310   0.207212   0.011863   0.674909   0.273325  -0.559140
    12  O   -0.665268   0.196766  -0.051543   0.640506  -0.342904   0.110010
    13  C   52.432800  -8.342349   0.897502 -17.077647   1.008049   0.214335
    14  C   -8.342349  15.786769  -0.275740   0.037640  -0.395375   0.870925
    15  N    0.897502  -0.275740   7.154138  -0.467578   0.194190  -0.091903
    16  C  -17.077647   0.037640  -0.467578  22.751538  -6.981942   1.390490
    17  C    1.008049  -0.395375   0.194190  -6.981942  21.940939  -7.533554
    18  C    0.214335   0.870925  -0.091903   1.390490  -7.533554  25.819851
    19  C    0.334029  -0.133311  -0.016824  -0.855352   1.240675  -3.846147
    20  C   -0.248638   0.053771  -0.003467   0.109728  -1.229627   0.986751
    21  C    0.995494   0.011737   0.014750  -1.086186   0.523267  -0.695110
    22  C   -2.671177  -0.036895   0.041095   1.382783  -2.244921 -11.275098
    23  N   -6.662612   0.702384  -0.078043   2.017491   0.089574   0.188967
    24  O    1.345033  -0.057027  -0.003080  -0.295379  -0.077331   0.024443
    25  C  -11.078654  -0.455198  -0.012836   2.885427  -0.811547   0.013319
    26  C    3.174940  -0.182631   0.044071  -1.488826   0.249256   0.005506
    27  C    0.614258  -0.106965   0.008256  -0.209397  -0.076149  -0.019195
    28  C    0.261301   0.007892  -0.002761   0.096270   0.043840   0.015430
    29  C    0.030742  -0.002455   0.000457  -0.010653   0.001532  -0.000250
    30  C   -0.087881  -0.056963  -0.001034   0.040242  -0.008066   0.003251
    31  C   -0.450755  -0.090048   0.000493   0.172827   0.130880   0.031624
    32  H    0.011908  -0.004600  -0.000144   0.000884  -0.000112   0.000046
    33  H   -0.011344   0.026843   0.002447  -0.015679   0.000815  -0.000695
    34  H    0.012753  -0.004750  -0.000368   0.005880   0.000361  -0.000015
    35  H    0.000450   0.000120   0.000000  -0.000184   0.000001   0.000000
    36  H   -0.000041  -0.000005   0.000000   0.000005  -0.000006  -0.000000
    37  H    0.000129  -0.000028  -0.000000   0.000076   0.000001   0.000002
    38  H   -0.006412  -0.000542   0.000009  -0.002567   0.001126   0.000010
    39  H   -0.441514  -0.054531   0.001941   0.549500  -0.035329  -0.208265
    40  H    0.131450   0.050053  -0.002978   0.276648  -0.154933   0.211504
    41  H    0.112543  -0.053904   0.006215  -0.008821   0.059220   0.094455
    42  H    0.001103  -0.002979  -0.000097  -0.009144   0.048810   0.008294
    43  H   -0.001314   0.001132  -0.000042   0.000943  -0.011971   0.026819
    44  H    0.002238   0.000181   0.000010  -0.005898   0.028001   0.006054
    45  H   -0.007235  -0.004111  -0.000215   0.020577   0.073142   0.037317
    46  H   -0.001821  -0.006311   0.000085   0.005310  -0.001874   0.000156
    47  H    0.000146  -0.000026  -0.000000   0.000142   0.000013  -0.000001
    48  H    0.000026   0.000008  -0.000000  -0.000012  -0.000000  -0.000000
    49  H    0.000018   0.000027  -0.000000   0.000013  -0.000000  -0.000000
    50  H   -0.010850  -0.003008   0.000033   0.002199   0.000182  -0.000007
              19         20         21         22         23         24
     1  C    0.000598  -0.000609   0.002925  -0.021743   0.005310   0.003048
     2  C   -0.001850   0.001660  -0.022600   0.072501   0.039420   0.001531
     3  O   -0.000008   0.000018  -0.000177  -0.000270   0.000109   0.000002
     4  C    0.003233  -0.002608   0.047537  -0.058947  -0.100961   0.013595
     5  C    0.000013   0.000411  -0.001448   0.017399  -0.037547  -0.001299
     6  C    0.000055   0.000035   0.003453   0.000275  -0.001198  -0.000151
     7  C    0.001196  -0.000959  -0.005519  -0.016079   0.129919   0.000177
     8  C    0.001359  -0.001423  -0.016812   0.007327   0.209140  -0.028330
     9  C    0.001204  -0.001834   0.009314  -0.057627  -0.510434   0.166659
    10  C   -0.052510   0.020832  -0.237395  -0.215317   0.641152  -0.191343
    11  N    0.044370   0.005509   0.058655   0.638300   0.888059  -0.175712
    12  O   -0.010952   0.003844  -0.100786   0.022540  -0.055541  -0.021070
    13  C    0.334029  -0.248638   0.995494  -2.671177  -6.662612   1.345033
    14  C   -0.133311   0.053771   0.011737  -0.036895   0.702384  -0.057027
    15  N   -0.016824  -0.003467   0.014750   0.041095  -0.078043  -0.003080
    16  C   -0.855352   0.109728  -1.086186   1.382783   2.017491  -0.295379
    17  C    1.240675  -1.229627   0.523267  -2.244921   0.089574  -0.077331
    18  C   -3.846147   0.986751  -0.695110 -11.275098   0.188967   0.024443
    19  C    7.952280   0.180638   0.236667   0.757066   0.026759  -0.007203
    20  C    0.180638   5.397712   0.297025   0.200671   0.017459  -0.002016
    21  C    0.236667   0.297025   7.631095  -1.571670  -0.063188   0.008488
    22  C    0.757066   0.200671  -1.571670  20.603656   0.057796  -0.039622
    23  N    0.026759   0.017459  -0.063188   0.057796  10.161954  -0.236607
    24  O   -0.007203  -0.002016   0.008488  -0.039622  -0.236607   7.819709
    25  C   -0.083796   0.014594  -0.049583   0.161538   0.462665  -0.530384
    26  C    0.004374  -0.001676   0.011641  -0.039926  -0.456248  -0.050819
    27  C    0.008909  -0.000567   0.004917   0.029853  -0.253264   0.178780
    28  C    0.001170   0.000058  -0.000932  -0.014946   0.269016   0.038357
    29  C    0.000060  -0.000000   0.000017   0.000469   0.019370  -0.009449
    30  C   -0.000491   0.000021   0.000183  -0.005009  -0.080513   0.029936
    31  C   -0.006474   0.000738  -0.007174  -0.060391   0.024586  -0.101348
    32  H   -0.000004   0.000001  -0.000019  -0.000021   0.000365   0.000004
    33  H    0.000299  -0.000120   0.000877  -0.000080  -0.003209  -0.000170
    34  H   -0.000014   0.000007   0.000001  -0.000045  -0.004380   0.000065
    35  H    0.000000  -0.000000   0.000002  -0.000003   0.000017   0.000000
    36  H   -0.000000   0.000000   0.000000   0.000006  -0.000003  -0.000000
    37  H   -0.000000  -0.000000  -0.000000  -0.000021   0.000033   0.000000
    38  H   -0.000009   0.000001  -0.000086  -0.000846  -0.003141   0.000269
    39  H   -0.004731   0.002389   0.037819   0.269549   0.054570  -0.013006
    40  H    0.014763   0.003767  -0.014002  -0.141200  -0.032725   0.013677
    41  H    0.058551  -0.010021   0.000371   0.042705  -0.008025   0.000962
    42  H    0.261179  -0.005852   0.003978   0.004721  -0.000031  -0.000001
    43  H   -0.005096   0.279710  -0.007114   0.026084   0.000004  -0.000000
    44  H    0.000525   0.006129   0.266619   0.005753  -0.000016   0.000000
    45  H    0.000935  -0.004175   0.078392   0.101970  -0.001684  -0.000066
    46  H    0.000004  -0.000000   0.000008   0.000116  -0.000805  -0.007368
    47  H   -0.000000   0.000000  -0.000000  -0.000000   0.000521   0.000123
    48  H   -0.000000   0.000000  -0.000000   0.000000  -0.000011   0.000006
    49  H    0.000000  -0.000000   0.000000   0.000000   0.000005  -0.000003
    50  H    0.000001  -0.000000  -0.000002   0.000010  -0.004016  -0.000375
              25         26         27         28         29         30
     1  C    0.137907  -0.049079  -0.001661   0.000867   0.005839  -0.055397
     2  C   -0.522898   0.078559   0.106937  -0.013956  -0.003656   0.188540
     3  O   -0.001209   0.001546   0.000074  -0.000065   0.000092  -0.000511
     4  C   -2.124452   2.523801   1.175964  -0.183420   0.001248   0.173618
     5  C    0.661268  -1.203547  -0.423342   0.060864   0.040502  -0.158867
     6  C   -0.038551   0.369161   0.136410  -0.009648  -0.024068   0.004962
     7  C   -0.689435  -0.242874  -0.098481   0.169417  -0.033561   0.005915
     8  C    0.500172  -0.633452  -0.052875  -0.053224   0.029133   0.446394
     9  C   -0.663669   0.621808   1.319144  -0.381141  -0.031258  -0.013201
    10  C    1.709608  -1.186843  -2.064087   0.739173   0.024405  -0.739226
    11  N    1.371995  -0.313849   0.168079  -0.048125  -0.006707   0.031087
    12  O   -0.026141   0.004679  -0.032503  -0.006927  -0.002012   0.034479
    13  C  -11.078654   3.174940   0.614258   0.261301   0.030742  -0.087881
    14  C   -0.455198  -0.182631  -0.106965   0.007892  -0.002455  -0.056963
    15  N   -0.012836   0.044071   0.008256  -0.002761   0.000457  -0.001034
    16  C    2.885427  -1.488826  -0.209397   0.096270  -0.010653   0.040242
    17  C   -0.811547   0.249256  -0.076149   0.043840   0.001532  -0.008066
    18  C    0.013319   0.005506  -0.019195   0.015430  -0.000250   0.003251
    19  C   -0.083796   0.004374   0.008909   0.001170   0.000060  -0.000491
    20  C    0.014594  -0.001676  -0.000567   0.000058  -0.000000   0.000021
    21  C   -0.049583   0.011641   0.004917  -0.000932   0.000017   0.000183
    22  C    0.161538  -0.039926   0.029853  -0.014946   0.000469  -0.005009
    23  N    0.462665  -0.456248  -0.253264   0.269016   0.019370  -0.080513
    24  O   -0.530384  -0.050819   0.178780   0.038357  -0.009449   0.029936
    25  C   19.899349  -4.628836   2.537563  -2.041284  -0.423665   0.732832
    26  C   -4.628836  17.404162  -4.536318   0.331619  -0.421651   0.611423
    27  C    2.537563  -4.536318  31.236043  -9.152139  -0.666188   1.568759
    28  C   -2.041284   0.331619  -9.152139  11.583514   1.024743  -0.623310
    29  C   -0.423665  -0.421651  -0.666188   1.024743   5.645280  -0.125875
    30  C    0.732832   0.611423   1.568759  -0.623310  -0.125875  15.238085
    31  C   -1.133995  -4.179883 -15.727781   3.655232   0.688935 -10.910526
    32  H   -0.003314  -0.003362  -0.000145   0.000033   0.000005   0.001901
    33  H    0.024604  -0.012586  -0.001378   0.000169  -0.000044   0.001462
    34  H   -0.028372   0.054596   0.010350  -0.001445   0.000181  -0.019979
    35  H   -0.000212  -0.000972  -0.000118  -0.000003   0.000010   0.000181
[...]
    42  H    0.000062   0.000000  -0.000002  -0.000000   0.000000   0.000000
    43  H    0.000002  -0.000000   0.000000   0.000000   0.000000  -0.000000
    44  H   -0.000008   0.000003   0.000001   0.000000  -0.000000  -0.000000
    45  H    0.003073   0.000263  -0.000254  -0.000022  -0.000000   0.000011
    46  H    0.033657  -0.055939   0.253422   0.045357   0.008762  -0.003094
    47  H   -0.007918   0.033941  -0.013904   0.297459  -0.001018   0.007396
    48  H   -0.000197  -0.002681   0.029971   0.000476   0.269436  -0.013946
    49  H    0.002183   0.019420  -0.004315   0.000616   0.005124   0.283263
    50  H    0.100851  -0.003326   0.005706   0.008609  -0.007291   0.048762
              31         32         33         34         35         36
     1  C    0.142070   0.446633   0.412929   0.326322   0.008616  -0.000055
     2  C   -0.427088  -0.111385  -0.101568  -0.015295  -0.001904  -0.002301
     3  O   -0.000927  -0.006375  -0.001355   0.007501  -0.002129   0.000176
     4  C   -3.026609   0.048407   0.028574   0.055759  -0.024302   0.018727
     5  C    1.476658  -0.028926  -0.013596   0.024741   0.298654  -0.008006
     6  C   -0.415601  -0.002701  -0.000538   0.001741  -0.027805   0.295233
     7  C    0.217414  -0.000010   0.000123  -0.001555   0.019708   0.001504
     8  C   -0.307361   0.000183   0.003273   0.001883  -0.025887   0.021979
     9  C   -1.214477   0.012866  -0.009719  -0.004139   0.056332  -0.013282
    10  C    2.878535  -0.003558  -0.036531  -0.044954   0.010227  -0.002174
    11  N   -0.240848  -0.003471   0.062725   0.000968   0.000539  -0.000037
    12  O   -0.004596   0.001290  -0.008022  -0.001461  -0.000161   0.000004
    13  C   -0.450755   0.011908  -0.011344   0.012753   0.000450  -0.000041
    14  C   -0.090048  -0.004600   0.026843  -0.004750   0.000120  -0.000005
    15  N    0.000493  -0.000144   0.002447  -0.000368   0.000000   0.000000
    16  C    0.172827   0.000884  -0.015679   0.005880  -0.000184   0.000005
    17  C    0.130880  -0.000112   0.000815   0.000361   0.000001  -0.000006
    18  C    0.031624   0.000046  -0.000695  -0.000015   0.000000  -0.000000
    19  C   -0.006474  -0.000004   0.000299  -0.000014   0.000000  -0.000000
    20  C    0.000738   0.000001  -0.000120   0.000007  -0.000000   0.000000
    21  C   -0.007174  -0.000019   0.000877   0.000001   0.000002   0.000000
    22  C   -0.060391  -0.000021  -0.000080  -0.000045  -0.000003   0.000006
    23  N    0.024586   0.000365  -0.003209  -0.004380   0.000017  -0.000003
    24  O   -0.101348   0.000004  -0.000170   0.000065   0.000000  -0.000000
    25  C   -1.133995  -0.003314   0.024604  -0.028372  -0.000212   0.000138
    26  C   -4.179883  -0.003362  -0.012586   0.054596  -0.000972  -0.000468
    27  C  -15.727781  -0.000145  -0.001378   0.010350  -0.000118  -0.000084
    28  C    3.655232   0.000033   0.000169  -0.001445  -0.000003  -0.000002
    29  C    0.688935   0.000005  -0.000044   0.000181   0.000010   0.000013
    30  C  -10.910526   0.001901   0.001462  -0.019979   0.000181   0.000339
    31  C   34.638488   0.002860   0.007112  -0.036859   0.001032  -0.000210
    32  H    0.002860   0.503824  -0.017267  -0.026002  -0.000016  -0.000000
    33  H    0.007112  -0.017267   0.474698  -0.024509  -0.000008   0.000000
    34  H   -0.036859  -0.026002  -0.024509   0.555821  -0.000005  -0.000000
    35  H    0.001032  -0.000016  -0.000008  -0.000005   0.526684  -0.004890
    36  H   -0.000210  -0.000000   0.000000  -0.000000  -0.004890   0.560174
    37  H   -0.001662   0.000000  -0.000000  -0.000000  -0.000156  -0.004957
    38  H    0.069234  -0.000000  -0.000000  -0.000007   0.000015  -0.000175
    39  H    0.003892  -0.000000   0.000002   0.000000  -0.000000   0.000000
    40  H   -0.002914  -0.000000   0.000000   0.000000   0.000000  -0.000000
    41  H   -0.000077   0.000000  -0.000000  -0.000000   0.000000  -0.000000
    42  H    0.000000   0.000000   0.000000   0.000000  -0.000000   0.000000
    43  H   -0.000000  -0.000000  -0.000000  -0.000000  -0.000000   0.000000
    44  H   -0.000001   0.000000  -0.000000  -0.000000  -0.000000   0.000000
    45  H    0.000104   0.000000  -0.000000   0.000000  -0.000000  -0.000000
    46  H    0.020184  -0.000000   0.000000  -0.000000   0.000000   0.000000
    47  H   -0.003633   0.000000   0.000000   0.000000  -0.000000   0.000000
    48  H    0.027631  -0.000000  -0.000000  -0.000000   0.000000  -0.000000
    49  H    0.005050  -0.000000  -0.000000  -0.000001  -0.000000   0.000000
    50  H    0.150172  -0.000003   0.000023   0.000343  -0.000003   0.000001
              37         38         39         40         41         42
     1  C    0.000013   0.001670  -0.000195   0.000042  -0.000010  -0.000000
     2  C    0.000538   0.004199   0.000290  -0.000110   0.000037   0.000001
     3  O    0.000008   0.000019  -0.000000  -0.000000  -0.000000  -0.000000
     4  C    0.022189  -0.015207  -0.002942   0.000074  -0.000036   0.000001
     5  C    0.006648  -0.014980   0.000732  -0.000025  -0.000003   0.000000
     6  C    0.033547  -0.020391  -0.000043   0.000006  -0.000000   0.000000
     7  C    0.291909  -0.089780   0.001177  -0.000280   0.000006  -0.000000
     8  C   -0.048382   0.295713   0.008684  -0.003536   0.000022  -0.000000
     9  C    0.007942   0.019637  -0.029824   0.004358   0.000615   0.000000
    10  C   -0.002163   0.075265   0.045933  -0.004767   0.000487   0.000027
    11  N    0.000054  -0.008993   0.063152  -0.010292  -0.001664   0.000044
    12  O   -0.000005   0.000647  -0.005288   0.001936  -0.000015  -0.000001
    13  C    0.000129  -0.006412  -0.441514   0.131450   0.112543   0.001103
    14  C   -0.000028  -0.000542  -0.054531   0.050053  -0.053904  -0.002979
    15  N   -0.000000   0.000009   0.001941  -0.002978   0.006215  -0.000097
    16  C    0.000076  -0.002567   0.549500   0.276648  -0.008821  -0.009144
    17  C    0.000001   0.001126  -0.035329  -0.154933   0.059220   0.048810
    18  C    0.000002   0.000010  -0.208265   0.211504   0.094455   0.008294
    19  C   -0.000000  -0.000009  -0.004731   0.014763   0.058551   0.261179
    20  C   -0.000000   0.000001   0.002389   0.003767  -0.010021  -0.005852
    21  C   -0.000000  -0.000086   0.037819  -0.014002   0.000371   0.003978
    22  C   -0.000021  -0.000846   0.269549  -0.141200   0.042705   0.004721
    23  N    0.000033  -0.003141   0.054570  -0.032725  -0.008025  -0.000031
    24  O    0.000000   0.000269  -0.013006   0.013677   0.000962  -0.000001
    25  C   -0.001877   0.001221   0.060715  -0.028889   0.000539   0.000062
    26  C    0.004583   0.011334   0.004757   0.003986  -0.000169   0.000000
    27  C    0.002561  -0.007273  -0.009105   0.004324   0.000226  -0.000002
    28  C    0.000026   0.003724  -0.002461   0.002143   0.000019  -0.000000
    29  C   -0.000542   0.003338   0.000057   0.000056   0.000000   0.000000
    30  C   -0.004143  -0.022284  -0.000006  -0.000279  -0.000002   0.000000
    31  C   -0.001662   0.069234   0.003892  -0.002914  -0.000077   0.000000
    32  H    0.000000  -0.000000  -0.000000  -0.000000   0.000000   0.000000
    33  H   -0.000000  -0.000000   0.000002   0.000000  -0.000000   0.000000
    34  H   -0.000000  -0.000007   0.000000   0.000000  -0.000000   0.000000
    35  H   -0.000156   0.000015  -0.000000   0.000000   0.000000  -0.000000
    36  H   -0.004957  -0.000175   0.000000  -0.000000  -0.000000   0.000000
    37  H    0.561829  -0.005479  -0.000000  -0.000000   0.000000   0.000000
    38  H   -0.005479   0.586678  -0.000026  -0.000000  -0.000000  -0.000000
    39  H   -0.000000  -0.000026   0.575184  -0.028563   0.000093   0.000003
    40  H   -0.000000  -0.000000  -0.028563   0.498235   0.002397  -0.000005
    41  H    0.000000  -0.000000   0.000093   0.002397   0.584509  -0.005832
    42  H    0.000000  -0.000000   0.000003  -0.000005  -0.005832   0.571962
    43  H    0.000000   0.000000  -0.000000  -0.000000  -0.000163  -0.005565
    44  H   -0.000000  -0.000000  -0.000006   0.000002   0.000016  -0.000167
    45  H    0.000000   0.000000   0.002827   0.000089  -0.000163   0.000016
    46  H   -0.000000  -0.000000   0.000004   0.000018   0.000000   0.000000
    47  H    0.000000  -0.000000   0.000000   0.000000  -0.000000   0.000000
    48  H    0.000000   0.000000  -0.000000  -0.000000   0.000000   0.000000
    49  H   -0.000000  -0.000005   0.000000   0.000000   0.000000   0.000000
    50  H   -0.000010  -0.000202   0.000000   0.000000  -0.000000   0.000000
              43         44         45         46         47         48
     1  C   -0.000000  -0.000012   0.000351  -0.000039  -0.000005   0.000001
     2  C    0.000001   0.000015  -0.001749   0.000212   0.000002  -0.000002
     3  O    0.000000  -0.000000   0.000002   0.000000  -0.000000   0.000000
     4  C   -0.000001   0.000057  -0.000930  -0.000737  -0.000029   0.000002
     5  C    0.000000   0.000005  -0.000863  -0.000076   0.000004  -0.000007
     6  C   -0.000000   0.000002   0.000109  -0.000031  -0.000008   0.000015
     7  C   -0.000000  -0.000005   0.000602   0.002660  -0.000156   0.000039
     8  C   -0.000000  -0.000009   0.001294   0.006209  -0.000120  -0.000156
     9  C   -0.000003   0.000009   0.000669   0.002706  -0.000163  -0.000039
    10  C    0.000001  -0.000017  -0.000624   0.005912  -0.000645  -0.000005
    11  N    0.000043  -0.000062  -0.001199  -0.000232   0.000010  -0.000001
    12  O   -0.000010   0.000060  -0.001324  -0.000003   0.000000  -0.000000
    13  C   -0.001314   0.002238  -0.007235  -0.001821   0.000146   0.000026
    14  C    0.001132   0.000181  -0.004111  -0.006311  -0.000026   0.000008
    15  N   -0.000042   0.000010  -0.000215   0.000085  -0.000000  -0.000000
    16  C    0.000943  -0.005898   0.020577   0.005310   0.000142  -0.000012
    17  C   -0.011971   0.028001   0.073142  -0.001874   0.000013  -0.000000
    18  C    0.026819   0.006054   0.037317   0.000156  -0.000001  -0.000000
    19  C   -0.005096   0.000525   0.000935   0.000004  -0.000000  -0.000000
    20  C    0.279710   0.006129  -0.004175  -0.000000   0.000000   0.000000
    21  C   -0.007114   0.266619   0.078392   0.000008  -0.000000  -0.000000
    22  C    0.026084   0.005753   0.101970   0.000116  -0.000000   0.000000
    23  N    0.000004  -0.000016  -0.001684  -0.000805   0.000521  -0.000011
    24  O   -0.000000   0.000000  -0.000066  -0.007368   0.000123   0.000006
    25  C    0.000002  -0.000008   0.003073   0.033657  -0.007918  -0.000197
    26  C   -0.000000   0.000003   0.000263  -0.055939   0.033941  -0.002681
    27  C    0.000000   0.000001  -0.000254   0.253422  -0.013904   0.029971
    28  C    0.000000   0.000000  -0.000022   0.045357   0.297459   0.000476
    29  C    0.000000  -0.000000  -0.000000   0.008762  -0.001018   0.269436
    30  C   -0.000000  -0.000000   0.000011  -0.003094   0.007396  -0.013946
    31  C   -0.000000  -0.000001   0.000104   0.020184  -0.003633   0.027631
    32  H   -0.000000   0.000000   0.000000  -0.000000   0.000000  -0.000000
    33  H   -0.000000  -0.000000  -0.000000   0.000000   0.000000  -0.000000
    34  H   -0.000000  -0.000000   0.000000  -0.000000   0.000000  -0.000000
    35  H   -0.000000  -0.000000  -0.000000   0.000000  -0.000000   0.000000
    36  H    0.000000   0.000000  -0.000000   0.000000   0.000000  -0.000000
    37  H    0.000000  -0.000000   0.000000  -0.000000   0.000000   0.000000
    38  H    0.000000  -0.000000   0.000000  -0.000000  -0.000000   0.000000
    39  H   -0.000000  -0.000006   0.002827   0.000004   0.000000  -0.000000
    40  H   -0.000000   0.000002   0.000089   0.000018   0.000000  -0.000000
    41  H   -0.000163   0.000016  -0.000163   0.000000  -0.000000   0.000000
    42  H   -0.005565  -0.000167   0.000016   0.000000   0.000000   0.000000
    43  H    0.574664  -0.005579  -0.000159  -0.000000  -0.000000   0.000000
    44  H   -0.005579   0.571994  -0.005987   0.000000  -0.000000   0.000000
    45  H   -0.000159  -0.005987   0.576970  -0.000000   0.000000   0.000000
    46  H   -0.000000   0.000000  -0.000000   0.533348  -0.005469  -0.000143
    47  H   -0.000000  -0.000000   0.000000  -0.005469   0.563151  -0.005394
    48  H    0.000000   0.000000   0.000000  -0.000143  -0.005394   0.567492
    49  H    0.000000   0.000000  -0.000000   0.000014  -0.000161  -0.005394
    50  H   -0.000000   0.000000   0.000000  -0.000151   0.000015  -0.000164
              49         50
     1  C   -0.000118   0.000621
     2  C    0.000508  -0.004026
     3  O    0.000000  -0.000006
     4  C   -0.000145   0.022591
     5  C    0.000482   0.003189
     6  C   -0.001175   0.000212
     7  C   -0.000094  -0.045343
     8  C    0.000144   0.010938
     9  C    0.000204  -0.014309
    10  C    0.000427   0.024711
    11  N   -0.000020   0.001979
    12  O    0.000000   0.000190
    13  C    0.000018  -0.010850
    14  C    0.000027  -0.003008
    15  N   -0.000000   0.000033
    16  C    0.000013   0.002199
    17  C   -0.000000   0.000182
    18  C   -0.000000  -0.000007
    19  C    0.000000   0.000001
    20  C   -0.000000  -0.000000
    21  C    0.000000  -0.000002
    22  C    0.000000   0.000010
    23  N    0.000005  -0.004016
    24  O   -0.000003  -0.000375
    25  C    0.002183   0.100851
    26  C    0.019420  -0.003326
    27  C   -0.004315   0.005706
    28  C    0.000616   0.008609
    29  C    0.005124  -0.007291
    30  C    0.283263   0.048762
    31  C    0.005050   0.150172
    32  H   -0.000000  -0.000003
    33  H   -0.000000   0.000023
    34  H   -0.000001   0.000343
    35  H   -0.000000  -0.000003
    36  H    0.000000   0.000001
    37  H   -0.000000  -0.000010
    38  H   -0.000005  -0.000202
    39  H    0.000000   0.000000
    40  H    0.000000   0.000000
    41  H    0.000000  -0.000000
    42  H    0.000000   0.000000
    43  H    0.000000  -0.000000
    44  H    0.000000   0.000000
    45  H   -0.000000   0.000000
    46  H    0.000014  -0.000151
    47  H   -0.000161   0.000015
    48  H   -0.005394  -0.000164
    49  H    0.565616  -0.006191
    50  H   -0.006191   0.589296
 Mulliken charges:
               1
     1  C   -0.366187
     2  C    0.237740
     3  O   -0.388340
     4  C    0.293942
     5  C    0.127883
     6  C   -0.308539
     7  C   -0.025881
     8  C   -0.187284
     9  C   -0.353323
    10  C    0.239858
    11  N   -0.764447
    12  O    0.442361
    13  C   -0.364815
    14  C   -0.121384
    15  N   -0.345944
    16  C   -0.227004
    17  C    0.647854
    18  C   -0.215026
    19  C   -0.106144
    20  C   -0.069886
    21  C   -0.365429
    22  C    0.027668
    23  N   -0.412444
    24  O    0.204295
    25  C    0.071635
    26  C    0.126535
    27  C    0.056985
    28  C   -0.121585
    29  C   -0.029462
    30  C   -0.522440
    31  C    0.005487
    32  H    0.180222
    33  H    0.211445
    34  H    0.154884
    35  H    0.166167
    36  H    0.138397
    37  H    0.137336
    38  H    0.124295
    39  H    0.152567
    40  H    0.205971
    41  H    0.124918
    42  H    0.129475
    43  H    0.127615
    44  H    0.130094
    45  H    0.132048
    46  H    0.165953
    47  H    0.135727
    48  H    0.133050
    49  H    0.134507
    50  H    0.128649
 Sum of Mulliken charges =  -0.00000
 Mulliken charges with hydrogens summed into heavy atoms:
               1
     1  C    0.180364
     2  C    0.237740
     3  O   -0.388340
     4  C    0.293942
     5  C    0.294050
     6  C   -0.170142
     7  C    0.111455
     8  C   -0.062989
     9  C   -0.353323
    10  C    0.239858
    11  N   -0.764447
    12  O    0.442361
    13  C   -0.364815
    14  C   -0.121384
    15  N   -0.345944
    16  C    0.131533
    17  C    0.647854
    18  C   -0.090108
    19  C    0.023331
    20  C    0.057729
    21  C   -0.235335
    22  C    0.159716
    23  N   -0.412444
    24  O    0.204295
    25  C    0.071635
    26  C    0.126535
    27  C    0.222938
    28  C    0.014142
    29  C    0.103588
    30  C   -0.387933
    31  C    0.134136
 Electronic spatial extent (au):  <R**2>=          12478.3323
 Charge=             -0.0000 electrons
 Dipole moment (field-independent basis, Debye):
    X=              4.6626    Y=             -1.6961    Z=             -4.8675  Tot=              6.9504
 Quadrupole moment (field-independent basis, Debye-Ang):
   XX=           -153.4469   YY=           -194.1430   ZZ=           -185.3926
   XY=             -0.6138   XZ=              2.4500   YZ=             -3.2782
 Traceless Quadrupole moment (field-independent basis, Debye-Ang):
   XX=             24.2139   YY=            -16.4822   ZZ=             -7.7318
   XY=             -0.6138   XZ=              2.4500   YZ=             -3.2782
 Octapole moment (field-independent basis, Debye-Ang**2):
  XXX=              1.8956  YYY=            -49.7882  ZZZ=            -22.9177  XYY=             45.0855
  XXY=             -3.5062  XXZ=            -14.8006  XZZ=             40.1479  YZZ=             20.4190
  YYZ=            -65.1924  XYZ=             -2.7016
 Hexadecapole moment (field-independent basis, Debye-Ang**3):
 XXXX=          -9548.0928 YYYY=          -5232.0362 ZZZZ=          -1771.9934 XXXY=           -195.6135
 XXXZ=            -45.3485 YYYX=            -59.7454 YYYZ=           -116.1665 ZZZX=              8.6165
 ZZZY=             33.0828 XXYY=          -2306.9929 XXZZ=          -2183.8920 YYZZ=          -1196.2116
 XXYZ=           -102.4786 YYXZ=            -89.2086 ZZXY=             14.7830
 N-N= 2.937642064061D+03 E-N=-9.018156030421D+03  KE= 1.341221157930D+03
 Unable to Open any file for archive entry.
 1\1\GINC-N2\SP\RB3LYP TD-FC\6-31+G(d,p)\C25H19N3O3\HPCMGAC13\13-Aug-20
 25\0\\# td=(50-50,nstates=3) b3lyp/6-31+g(d,p) geom=connectivity\\Titl
 e Card Required\\0,1\C,0,-0.769847,-1.898182,2.557817\C,0,-1.061989,-2
 .953456,1.510157\O,0,-0.863529,-4.131922,1.763547\C,0,-1.677367,-2.590
 908,0.174095\C,0,-2.454807,-3.599527,-0.418841\C,0,-3.128897,-3.393482
 ,-1.619281\C,0,-3.027026,-2.159621,-2.266078\C,0,-2.247221,-1.151413,-
 1.705852\C,0,-1.56612,-1.345313,-0.488966\C,0,-0.692052,-0.239482,-0.0
 51768\N,0,0.613525,-0.411194,0.131077\O,0,1.294328,-1.481981,0.123352\
 C,0,1.288209,0.918503,0.303788\C,0,1.880022,1.006511,1.64007\N,0,2.341
 838,1.073273,2.70144\C,0,2.268727,1.243548,-0.857557\C,0,3.656834,0.64
 8738,-0.7732\C,0,4.683787,1.365944,-0.142419\C,0,5.978421,0.846735,-0.
 079514\C,0,6.262069,-0.394605,-0.654288\C,0,5.245975,-1.112624,-1.2909
 23\C,0,3.951243,-0.594591,-1.350048\N,0,0.117418,1.86234,0.223439\O,0,
 0.324132,3.112955,0.33592\C,0,-1.014135,1.184657,0.03567\C,0,-2.334496
 ,1.819737,-0.010249\C,0,-2.486294,3.150737,-0.450606\C,0,-3.7505,3.738
 449,-0.483074\C,0,-4.876066,3.026009,-0.061907\C,0,-4.732488,1.711933,
 0.393225\C,0,-3.476406,1.110398,0.415694\H,0,-0.900831,-2.356668,3.540
 086\H,0,0.278303,-1.592534,2.474788\H,0,-1.40688,-1.014001,2.476731\H,
 0,-2.51596,-4.552523,0.095089\H,0,-3.729136,-4.190262,-2.048008\H,0,-3
 .542914,-1.983198,-3.204983\H,0,-2.149373,-0.201482,-2.221742\H,0,1.76
 1157,0.935122,-1.7773\H,0,2.320805,2.337398,-0.855195\H,0,4.471165,2.3
 35046,0.301565\H,0,6.762406,1.412905,0.414526\H,0,7.268912,-0.79928,-0
 .607964\H,0,5.459116,-2.078769,-1.738654\H,0,3.162224,-1.165654,-1.828
 526\H,0,-1.614402,3.717696,-0.749358\H,0,-3.852129,4.762442,-0.82958\H
 ,0,-5.856592,3.492409,-0.080393\H,0,-5.598899,1.153714,0.734634\H,0,-3
 .383343,0.092103,0.774374\\Version=ES64L-G16RevC.02\State=1-A\HF=-1353
 .9466341\RMSD=7.497e-09\PG=C01 [X(C25H19N3O3)]\\@
 The archive entry for this job was punched.


 HE THAT RISETH LATE MUST TROT ALL DAY.

                  -- BENJAMIN FRANKLIN
 Job cpu time:       0 days  4 hours 32 minutes  6.0 seconds.
 Elapsed time:       0 days  0 hours 34 minutes 25.0 seconds.
 File lengths (MBytes):  RWF=   2475 Int=      0 D2E=      0 Chk=    119 Scr=      2
 Normal termination of Gaussian 16 at Wed Aug 13 16:10:39 2025.
