 Entering Gaussian System, Link 0=g16
 Input=M1096E.gjf
 Output=M1096E.log
 Initial command:
 /hpc/softwares/Gaussian/g16/l1.exe "/hpc/home/hpcmgac13/pbs.13274.admin1.x8z/Gau-3062754.inp" -scrdir="/hpc/home/hpcmgac13/pbs.13274.admin1.x8z/"
 Default linda workers: n2
 Default is to use   8 SMP processors on each worker.
 Entering Link 1 = /hpc/softwares/Gaussian/g16/l1.exe PID=   3062755.
  
 Copyright (c) 1988-2021, Gaussian, Inc.  All Rights Reserved.
  
 This is part of the Gaussian(R) 16 program.  It is based on
 the Gaussian(R) 09 system (copyright 2009, Gaussian, Inc.),
 the Gaussian(R) 03 system (copyright 2003, Gaussian, Inc.),
 the Gaussian(R) 98 system (copyright 1998, Gaussian, Inc.),
 the Gaussian(R) 94 system (copyright 1995, Gaussian, Inc.),
 the Gaussian 92(TM) system (copyright 1992, Gaussian, Inc.),
 the Gaussian 90(TM) system (copyright 1990, Gaussian, Inc.),
 the Gaussian 88(TM) system (copyright 1988, Gaussian, Inc.),
 the Gaussian 86(TM) system (copyright 1986, Carnegie Mellon
 University), and the Gaussian 82(TM) system (copyright 1983,
 Carnegie Mellon University). Gaussian is a federally registered
 trademark of Gaussian, Inc.
  
 This software contains proprietary and confidential information,
 including trade secrets, belonging to Gaussian, Inc.
  
 This software is provided under written license and may be
 used, copied, transmitted, or stored only in accord with that
 written license.
  
 The following legend is applicable only to US Government
 contracts under FAR:
  
                    RESTRICTED RIGHTS LEGEND
  
 Use, reproduction and disclosure by the US Government is
 subject to restrictions as set forth in subparagraphs (a)
 and (c) of the Commercial Computer Software - Restricted
 Rights clause in FAR 52.227-19.
  
 Gaussian, Inc.
 340 Quinnipiac St., Bldg. 40, Wallingford CT 06492
  
  
 ---------------------------------------------------------------
 Warning -- This program may not be used in any manner that
 competes with the business of Gaussian, Inc. or will provide
 assistance to any competitor of Gaussian, Inc.  The licensee
 of this program is prohibited from giving any competitor of
 Gaussian, Inc. access to this program.  By using this program,
 the user acknowledges that Gaussian, Inc. is engaged in the
 business of creating and licensing software in the field of
 computational chemistry and represents and warrants to the
 licensee that it is not a competitor of Gaussian, Inc. and that
 it will not use this program in any manner prohibited above.
 ---------------------------------------------------------------
  

 Cite this work as:
 Gaussian 16, Revision C.02,
 M. J. Frisch, G. W. Trucks, H. B. Schlegel, G. E. Scuseria, 
 M. A. Robb, J. R. Cheeseman, G. Scalmani, V. Barone, 
 G. A. Petersson, H. Nakatsuji, X. Li, M. Caricato, A. V. Marenich, 
 J. Bloino, B. G. Janesko, R. Gomperts, B. Mennucci, H. P. Hratchian, 
 J. V. Ortiz, A. F. Izmaylov, J. L. Sonnenberg, D. Williams-Young, 
 F. Ding, F. Lipparini, F. Egidi, J. Goings, B. Peng, A. Petrone, 
 T. Henderson, D. Ranasinghe, V. G. Zakrzewski, J. Gao, N. Rega, 
 G. Zheng, W. Liang, M. Hada, M. Ehara, K. Toyota, R. Fukuda, 
 J. Hasegawa, M. Ishida, T. Nakajima, Y. Honda, O. Kitao, H. Nakai, 
 T. Vreven, K. Throssell, J. A. Montgomery, Jr., J. E. Peralta, 
 F. Ogliaro, M. J. Bearpark, J. J. Heyd, E. N. Brothers, K. N. Kudin, 
 V. N. Staroverov, T. A. Keith, R. Kobayashi, J. Normand, 
 K. Raghavachari, A. P. Rendell, J. C. Burant, S. S. Iyengar, 
 J. Tomasi, M. Cossi, J. M. Millam, M. Klene, C. Adamo, R. Cammi, 
 J. W. Ochterski, R. L. Martin, K. Morokuma, O. Farkas, 
 J. B. Foresman, and D. J. Fox, Gaussian, Inc., Wallingford CT, 2019.
 
 ******************************************
 Gaussian 16:  ES64L-G16RevC.02  7-Dec-2021
                13-Aug-2025 
 ******************************************
 SetLPE:    new flags="-opt 'Tsnet.Node.lindarsharg: ssh'  -nodelist 'n2.head.cm.mguif.local' -env GAUSS_MDEF=2147483648 -env GAUSS_EXEDIR="/hpc/softwares/Gaussian/g16/bsd:/hpc/softwares/Gaussian/g16""
 Will use up to    1 processors via Linda.
 ----------------------------------------------------------
 # td=(50-50,nstates=3) b3lyp/6-31+g(d,p) geom=connectivity
 ----------------------------------------------------------
 1/38=1,57=2,172=1/1;
 2/12=2,17=6,18=5,40=1/2;
 3/5=1,6=6,7=111,11=9,25=1,30=1,74=-5/1,2,3,8;
 4//1;
 5/5=2,38=5/2;
 8/6=1,10=2,108=3/1;
 9/41=3,42=1,48=2,70=2/14;
 6/7=2,8=2,9=2,10=2/1;
 99/5=1,9=1/99;
 -------------------
 Title Card Required
 -------------------
 Symbolic Z-matrix:
 Charge =  0 Multiplicity = 1
 C                     2.23944  -2.68248   0.00051 
 C                     2.07143  -1.33679   0.00003 
 C                     3.20682  -0.44954  -0.0005 
 N                     4.11548   0.27677  -0.00086 
 C                     0.75999  -0.74454   0.00001 
 C                     0.16138   0.46776  -0.00038 
 C                     0.51107   1.91808   0.00015 
 C                    -0.01094   2.62098  -1.27264 
 C                    -0.01057   2.61963   1.27388 
 C                    -1.12751  -0.38448  -0.00013 
 S                    -2.80801   0.0185   -0.00043 
 C                    -3.53274  -1.66205  -0.00003 
 N                    -0.54177  -1.54816   0.00021 
 H                     1.36858  -3.32752   0.00088 
 H                     3.22697  -3.12854   0.0005 
 H                     1.6058    1.98216   0.00006 
 H                     0.28592   3.67527  -1.26937 
 H                     0.39229   2.15469  -2.1766 
 H                    -1.10482   2.58019  -1.3274 
 H                     0.28607   3.67399   1.27157 
 H                     0.39313   2.15247   2.1772 
 H                    -1.10442   2.57854   1.32906 
 H                    -4.61588  -1.52989  -0.00054 
 H                    -3.21547  -2.20386  -0.89199 
 H                    -3.21623  -2.20316   0.89263 
 
                          Input orientation:                          
 ---------------------------------------------------------------------
 Center     Atomic      Atomic             Coordinates (Angstroms)
 Number     Number       Type             X           Y           Z
 ---------------------------------------------------------------------
      1          6           0        2.239442   -2.682481    0.000509
      2          6           0        2.071434   -1.336786    0.000026
      3          6           0        3.206823   -0.449541   -0.000497
      4          7           0        4.115478    0.276766   -0.000859
      5          6           0        0.759986   -0.744538    0.000013
      6          6           0        0.161382    0.467757   -0.000375
      7          6           0        0.511065    1.918080    0.000148
      8          6           0       -0.010940    2.620984   -1.272639
      9          6           0       -0.010567    2.619633    1.273880
     10          6           0       -1.127510   -0.384479   -0.000128
     11         16           0       -2.808011    0.018495   -0.000428
     12          6           0       -3.532738   -1.662049   -0.000031
     13          7           0       -0.541768   -1.548160    0.000205
     14          1           0        1.368581   -3.327518    0.000884
     15          1           0        3.226969   -3.128537    0.000498
     16          1           0        1.605795    1.982162    0.000055
     17          1           0        0.285919    3.675273   -1.269365
     18          1           0        0.392293    2.154692   -2.176599
     19          1           0       -1.104822    2.580185   -1.327403
     20          1           0        0.286070    3.673991    1.271571
     21          1           0        0.393125    2.152472    2.177196
     22          1           0       -1.104417    2.578542    1.329062
     23          1           0       -4.615882   -1.529887   -0.000539
     24          1           0       -3.215466   -2.203862   -0.891993
     25          1           0       -3.216227   -2.203156    0.892630
 ---------------------------------------------------------------------
                    Distance matrix (angstroms):
                    1          2          3          4          5
     1  C    0.000000
     2  C    1.356142   0.000000
     3  C    2.433485   1.440941   0.000000
     4  N    3.503806   2.604163   1.163261   0.000000
     5  C    2.438117   1.438977   2.464556   3.507476   0.000000
     6  C    3.773902   2.627675   3.180589   3.958706   1.352030
     7  C    4.914514   3.609557   3.587860   3.960518   2.674228
     8  C    5.900158   4.649721   4.626064   4.913258   3.679770
     9  C    5.898850   4.648729   4.625523   4.913068   3.678877
    10  C    4.076417   3.337684   4.334821   5.284522   1.921532
    11  S    5.724688   5.064165   6.033016   6.928305   3.648674
    12  C    5.861684   5.613603   6.847763   7.890134   4.389682
    13  N    3.003633   2.621737   3.906264   5.002029   1.529827
    14  H    1.083730   2.111165   3.414951   4.531700   2.653710
    15  H    1.083594   2.132049   2.679072   3.519309   3.430664
    16  H    4.707484   3.351453   2.911438   3.034285   2.854871
    17  H    6.771253   5.469932   5.211122   5.274891   4.622855
    18  H    5.616939   4.443831   4.408971   4.703462   3.643950
    19  H    6.375195   5.214723   5.434170   5.858071   4.036499
    20  H    6.770229   5.469208   5.210803   5.274901   4.622213
    21  H    5.614590   4.442039   4.407915   4.702989   3.642441
    22  H    6.373759   5.213651   5.433581   5.857829   4.035496
    23  H    6.951542   6.690103   7.896953   8.916313   5.432930
    24  H    5.548122   5.431283   6.717009   7.790403   4.327762
    25  H    5.548870   5.432007   6.717768   7.791164   4.328349
                    6          7          8          9         10
     6  C    0.000000
     7  C    1.491883   0.000000
     8  C    2.506938   1.544846   0.000000
     9  C    2.506763   1.544885   2.546519   0.000000
    10  C    1.545170   2.826076   3.449467   3.448963   0.000000
    11  S    3.003187   3.824224   4.026795   4.026844   1.728141
    12  C    4.264106   5.400895   5.689197   5.688703   2.723473
    13  N    2.135027   3.622606   4.391318   4.390321   1.302784
    14  H    3.982643   5.315226   6.237757   6.236279   3.859009
    15  H    4.725585   5.731010   6.720262   6.718973   5.146974
    16  H    2.092786   1.096604   2.154455   2.154443   3.615515
    17  H    3.451667   2.179468   1.095291   2.769544   4.482224
    18  H    2.763154   2.192788   1.094152   3.504893   3.673448
    19  H    2.797611   2.193596   1.096012   2.822344   3.248293
    20  H    3.451569   2.179533   2.769484   1.095294   4.481808
    21  H    2.762930   2.192804   3.504873   1.094160   3.672763
    22  H    2.797331   2.193628   2.822471   1.096012   3.247580
    23  H    5.178111   6.178516   6.328780   6.328632   3.671607
    24  H    4.397230   5.627909   5.804569   6.182919   2.909491
    25  H    4.397667   5.627950   6.183412   5.803525   2.909870
                   11         12         13         14         15
    11  S    0.000000
    12  C    1.830152   0.000000
    13  N    2.755044   2.993138   0.000000
    14  H    5.351610   5.176554   2.610661   0.000000
    15  H    6.806232   6.916952   4.086682   1.869010   0.000000
    16  H    4.830908   6.299587   4.132215   5.314976   5.361665
    17  H    4.955263   6.684337   5.438853   7.198942   7.520250
    18  H    4.420521   5.891590   4.395686   5.979063   6.378687
    19  H    3.350220   5.064903   4.372963   6.540873   7.288158
    20  H    4.955196   6.683830   5.438065   7.197750   7.519235
    21  H    4.420766   5.890950   4.394086   5.976465   6.376342
    22  H    3.350167   5.064173   4.371739   6.539214   7.286751
    23  H    2.380312   1.091177   4.074155   6.248622   8.004124
    24  H    2.428946   1.090788   2.893894   4.803469   6.569363
    25  H    2.428976   1.090789   2.894507   4.804151   6.570160
                   16         17         18         19         20
    16  H    0.000000
    17  H    2.494018   0.000000
    18  H    2.498034   1.773853   0.000000
    19  H    3.076885   1.771086   1.773001   0.000000
    20  H    2.494136   2.540936   3.769540   3.144147   0.000000
    21  H    2.497903   3.769509   4.353796   3.835231   1.773876
    22  H    3.076878   3.144468   3.835290   2.656466   1.771092
    23  H    7.144491   7.261630   6.587350   5.566040   7.261387
    24  H    6.446945   6.853199   5.801994   5.247047   7.175717
    25  H    6.447129   7.176014   6.436802   5.680399   6.852046
                   21         22         23         24         25
    21  H    0.000000
    22  H    1.772992   0.000000
    23  H    6.587294   5.565736   0.000000
    24  H    6.435798   5.679877   1.791674   0.000000
    25  H    5.800778   5.245460   1.791669   1.784623   0.000000
 Stoichiometry    C10H12N2S
 Framework group  C1[X(C10H12N2S)]
 Deg. of freedom    69
 Full point group                 C1      NOp   1
 Largest Abelian subgroup         C1      NOp   1
 Largest concise Abelian subgroup C1      NOp   1
                         Standard orientation:                         
 ---------------------------------------------------------------------
 Center     Atomic      Atomic             Coordinates (Angstroms)
 Number     Number       Type             X           Y           Z
 ---------------------------------------------------------------------
      1          6           0        2.239442   -2.682481    0.000509
      2          6           0        2.071434   -1.336786    0.000026
      3          6           0        3.206823   -0.449541   -0.000497
      4          7           0        4.115478    0.276766   -0.000859
      5          6           0        0.759986   -0.744538    0.000013
      6          6           0        0.161382    0.467757   -0.000375
      7          6           0        0.511065    1.918080    0.000148
      8          6           0       -0.010940    2.620984   -1.272639
      9          6           0       -0.010567    2.619633    1.273880
     10          6           0       -1.127510   -0.384479   -0.000128
     11         16           0       -2.808011    0.018495   -0.000428
     12          6           0       -3.532738   -1.662049   -0.000031
     13          7           0       -0.541768   -1.548160    0.000205
     14          1           0        1.368581   -3.327518    0.000884
     15          1           0        3.226969   -3.128537    0.000498
     16          1           0        1.605795    1.982162    0.000055
     17          1           0        0.285919    3.675273   -1.269365
     18          1           0        0.392293    2.154692   -2.176599
     19          1           0       -1.104822    2.580185   -1.327403
     20          1           0        0.286070    3.673991    1.271571
     21          1           0        0.393125    2.152472    2.177196
     22          1           0       -1.104417    2.578542    1.329062
     23          1           0       -4.615882   -1.529887   -0.000539
     24          1           0       -3.215466   -2.203862   -0.891993
     25          1           0       -3.216227   -2.203156    0.892630
 ---------------------------------------------------------------------
 Rotational constants (GHZ):           0.9330444           0.4950266           0.3488239
 Standard basis: 6-31+G(d,p) (6D, 7F)
 There are   311 symmetry adapted cartesian basis functions of A   symmetry.
 There are   311 symmetry adapted basis functions of A   symmetry.
   311 basis functions,   524 primitive gaussians,   311 cartesian basis functions
    51 alpha electrons       51 beta electrons
       nuclear repulsion energy       822.6038429530 Hartrees.
 NAtoms=   25 NActive=   25 NUniq=   25 SFac= 1.00D+00 NAtFMM=   60 NAOKFM=F Big=F
 Integral buffers will be    131072 words long.
 Regular integral format.
 Two-electron integral symmetry is turned on.
 One-electron integrals computed using PRISM.
 NBasis=   311 RedAO= T EigKep=  1.69D-06  NBF=   311
 NBsUse=   310 1.00D-06 EigRej=  9.28D-07 NBFU=   310
 ExpMin= 4.05D-02 ExpMax= 2.19D+04 ExpMxC= 3.30D+03 IAcc=3 IRadAn=         5 AccDes= 0.00D+00
 Harris functional with IExCor=  402 and IRadAn=       5 diagonalized for initial guess.
 HarFok:  IExCor=  402 AccDes= 0.00D+00 IRadAn=         5 IDoV= 1 UseB2=F ITyADJ=14
 ICtDFT=  3500011 ScaDFX=  1.000000  1.000000  1.000000  1.000000
 FoFCou: FMM=F IPFlag=           0 FMFlag=      100000 FMFlg1=           0
         NFxFlg=           0 DoJE=T BraDBF=F KetDBF=T FulRan=T
         wScrn=  0.000000 ICntrl=       500 IOpCl=  0 I1Cent=   200000004 NGrid=           0
         NMat0=    1 NMatS0=      1 NMatT0=    0 NMatD0=    1 NMtDS0=    0 NMtDT0=    0
 Petite list used in FoFCou.
 Requested convergence on RMS density matrix=1.00D-08 within 128 cycles.
 Requested convergence on MAX density matrix=1.00D-06.
 Requested convergence on             energy=1.00D-06.
 No special actions if energy rises.
 SCF Done:  E(RB3LYP) =  -895.887544753     A.U. after   17 cycles
            NFock= 17  Conv=0.65D-08     -V/T= 2.0069
 DoSCS=F DFT=T ScalE2(SS,OS)=  1.000000  1.000000
 ExpMin= 4.05D-02 ExpMax= 2.19D+04 ExpMxC= 3.30D+03 IAcc=3 IRadAn=         5 AccDes= 0.00D+00
 HarFok:  IExCor=  205 AccDes= 0.00D+00 IRadAn=         5 IDoV=-2 UseB2=F ITyADJ=14
 ICtDFT= 12500011 ScaDFX=  1.000000  1.000000  1.000000  1.000000
 Range of M.O.s used for correlation:    18   310
 NBasis=   311 NAE=    51 NBE=    51 NFC=    17 NFV=     0
 NROrb=    293 NOA=    34 NOB=    34 NVA=   259 NVB=   259

 **** Warning!!: The largest alpha MO coefficient is  0.12943838D+03

 Orbital symmetries:
       Occupied  (A) (A) (A) (A) (A) (A) (A) (A) (A) (A) (A) (A)
                 (A) (A) (A) (A) (A) (A) (A) (A) (A) (A) (A) (A)
                 (A) (A) (A) (A) (A) (A) (A) (A) (A) (A) (A) (A)
                 (A) (A) (A) (A) (A) (A) (A) (A) (A) (A) (A) (A)
                 (A) (A) (A)
       Virtual   (A) (A) (A) (A) (A) (A) (A) (A) (A) (A) (A) (A)
                 (A) (A) (A) (A) (A) (A) (A) (A) (A) (A) (A) (A)
                 (A) (A) (A) (A) (A) (A) (A) (A) (A) (A) (A) (A)
                 (A) (A) (A) (A) (A) (A) (A) (A) (A) (A) (A) (A)
                 (A) (A) (A) (A) (A) (A) (A) (A) (A) (A) (A) (A)
                 (A) (A) (A) (A) (A) (A) (A) (A) (A) (A) (A) (A)
                 (A) (A) (A) (A) (A) (A) (A) (A) (A) (A) (A) (A)
                 (A) (A) (A) (A) (A) (A) (A) (A) (A) (A) (A) (A)
                 (A) (A) (A) (A) (A) (A) (A) (A) (A) (A) (A) (A)
                 (A) (A) (A) (A) (A) (A) (A) (A) (A) (A) (A) (A)
                 (A) (A) (A) (A) (A) (A) (A) (A) (A) (A) (A) (A)
                 (A) (A) (A) (A) (A) (A) (A) (A) (A) (A) (A) (A)
                 (A) (A) (A) (A) (A) (A) (A) (A) (A) (A) (A) (A)
                 (A) (A) (A) (A) (A) (A) (A) (A) (A) (A) (A) (A)
                 (A) (A) (A) (A) (A) (A) (A) (A) (A) (A) (A) (A)
                 (A) (A) (A) (A) (A) (A) (A) (A) (A) (A) (A) (A)
                 (A) (A) (A) (A) (A) (A) (A) (A) (A) (A) (A) (A)
                 (A) (A) (A) (A) (A) (A) (A) (A) (A) (A) (A) (A)
                 (A) (A) (A) (A) (A) (A) (A) (A) (A) (A) (A) (A)
                 (A) (A) (A) (A) (A) (A) (A) (A) (A) (A) (A) (A)
                 (A) (A) (A) (A) (A) (A) (A) (A) (A) (A) (A) (A)
                 (A) (A) (A) (A) (A) (A) (A)
    24 initial guesses have been made.
 Convergence on wavefunction:    0.001000000000000
 Iteration     1 Dimension    24 NMult     0 NNew     24
 CISAX will form    24 AO SS matrices at one time.
 New state      1 was old state      2
 New state      2 was old state      4
 New state      3 was old state      1
 New state      4 was old state      8
 New state      5 was old state      6
 New state      6 was old state      3
 New state      8 was old state     14
 New state      9 was old state     10
 New state     10 was old state      9
 New state     11 was old state      5
 Vector   5 SDiff=2.99D+00 TDiff=5.61D+00 assumed to be singlet.
 Vector  11 SDiff=3.02D+00 TDiff=4.85D+00 assumed to be singlet.
 Iteration     2 Dimension    36 NMult    24 NNew     12
 New state      2 was old state      3
 New state      3 was old state      2
 New state      5 was old state      6
 New state      6 was old state      7
 Iteration     3 Dimension    48 NMult    36 NNew     12
 Iteration     4 Dimension    60 NMult    48 NNew     12
 Iteration     5 Dimension    72 NMult    60 NNew     12
 Iteration     6 Dimension    78 NMult    72 NNew      6
 ***********************************************************************
 Excited states from <AA,BB:AA,BB> singles matrix:
 ***********************************************************************
 
 Ground to excited state transition densities written to RWF  633
 Ground to excited state transition electric dipole moments (Au):
       state          X           Y           Z        Dip. S.      Osc.
         1         0.0000     -0.0000     -0.0000      0.0000      0.0000
         2        -0.3803      0.7102     -0.0001      0.6491      0.0409
         3        -0.0000      0.0000     -0.0000      0.0000      0.0000
         4         0.0000     -0.0000     -0.0000      0.0000      0.0000
         5         0.2974     -0.3525     -0.0002      0.2127      0.0195
         6         0.0010     -0.0005      0.0839      0.0070      0.0007
 Ground to excited state transition velocity dipole moments (Au):
       state          X           Y           Z        Dip. S.      Osc.
         1        -0.0000      0.0000      0.0000      0.0000      0.0000
         2         0.0331     -0.0623      0.0000      0.0050      0.0351
         3         0.0000      0.0000      0.0000      0.0000      0.0000
         4        -0.0000      0.0000      0.0000      0.0000      0.0000
         5        -0.0349      0.0466      0.0000      0.0034      0.0164
         6        -0.0001      0.0001     -0.0123      0.0002      0.0007
 Ground to excited state transition magnetic dipole moments (Au):
       state          X           Y           Z
         1         0.0000      0.0000      0.0000
         2        -0.0001     -0.0002     -0.8487
         3         0.0000     -0.0000      0.0000
         4         0.0000     -0.0000      0.0000
         5        -0.0002      0.0001     -0.2828
         6         0.2635     -0.1546     -0.0004
 Ground to excited state transition velocity quadrupole moments (Au):
       state          XX          YY          ZZ          XY          XZ          YZ
         1        -0.0000     -0.0000      0.0000      0.0000      0.0000     -0.0000
         2         0.4203     -0.0306     -0.0305     -0.2401     -0.0000     -0.0001
         3         0.0000     -0.0000     -0.0000      0.0000      0.0000      0.0000
         4         0.0000     -0.0000      0.0000      0.0000      0.0000     -0.0000
         5        -0.0518     -0.2174     -0.0134      0.1381     -0.0000      0.0000
         6         0.0003     -0.0004     -0.0000      0.0004      0.0231      0.0292
 <0|del|b> * <b|rxdel|0> + <0|del|b> * <b|delr+rdel|0>
 Rotatory Strengths (R) in cgs (10**-40 erg-esu-cm/Gauss)
       state          XX          YY          ZZ    R(velocity)    E-M Angle
         1         0.0000     -0.0000      0.0000      0.0000       90.00
         2         0.0105     -0.0542      0.0517      0.0027       90.00
         3         0.0000      0.0000      0.0000      0.0000       90.00
         4        -0.0000     -0.0000     -0.0000     -0.0000       90.00
         5         0.0005     -0.0249      0.0272      0.0009       90.00
         6        -0.0301     -0.0787     -0.1029     -0.0706       90.00
 1/2[<0|r|b>*<b|rxdel|0> + (<0|rxdel|b>*<b|r|0>)*]
 Rotatory Strengths (R) in cgs (10**-40 erg-esu-cm/Gauss)
       state          XX          YY          ZZ     R(length)
         1        -0.0000      0.0000      0.0000      0.0000
         2        -0.0372      0.1215     -0.0766      0.0026
         3         0.0000      0.0000      0.0000      0.0000
         4        -0.0000     -0.0000      0.0000     -0.0000
         5         0.0407      0.0245     -0.0434      0.0073
         6        -0.1895     -0.0526      0.0211     -0.0737
  1/2[<0|del|b>*<b|r|0> + (<0|r|b>*<b|del|0>)*] (Au)
       state          X           Y           Z        Dip. S.   Osc.(frdel)
         1        -0.0000     -0.0000     -0.0000      0.0000      0.0000
         2        -0.0126     -0.0443     -0.0000      0.0568      0.0379
         3        -0.0000      0.0000     -0.0000      0.0000      0.0000
         4        -0.0000     -0.0000     -0.0000      0.0000      0.0000
         5        -0.0104     -0.0164     -0.0000      0.0268      0.0179
         6        -0.0000     -0.0000     -0.0010      0.0010      0.0007

 Excitation energies and oscillator strengths:
 
 Excited State   1:      Triplet-A      0.8215 eV 1509.17 nm  f=0.0000  <S**2>=2.000
      50 -> 52         0.12160
      51 -> 52         0.74933
      51 -> 53         0.10766
      51 <- 52         0.30468
 This state for optimization and/or second-order correction.
 Total Energy, E(TD-HF/TD-DFT) =  -895.857353662    
 Copying the excited state density for this state as the 1-particle RhoCI density.
 
 Excited State   2:      Singlet-A      2.5714 eV  482.17 nm  f=0.0409  <S**2>=0.000
      51 -> 52         0.69323
      51 -> 53         0.13117
 
 Excited State   3:      Triplet-A      2.7466 eV  451.41 nm  f=0.0000  <S**2>=2.000
      48 -> 52         0.17414
      50 -> 52        -0.42812
      51 -> 53         0.50520
 
 Excited State   4:      Triplet-A      3.4539 eV  358.97 nm  f=0.0000  <S**2>=2.000
      49 -> 52         0.67963
      49 -> 53         0.17717
 
 Excited State   5:      Singlet-A      3.7461 eV  330.97 nm  f=0.0195  <S**2>=0.000
      50 -> 52         0.26840
      51 -> 53         0.64279
 
 Excited State   6:      Singlet-A      3.8313 eV  323.61 nm  f=0.0007  <S**2>=0.000
      49 -> 52         0.69724
      49 -> 53         0.10896
 SavETr:  write IOETrn=   770 NScale= 10 NData=  16 NLR=1 NState=    6 LETran=     118.

 **********************************************************************

            Population analysis using the SCF Density.

 **********************************************************************

 Orbital symmetries:
       Occupied  (A) (A) (A) (A) (A) (A) (A) (A) (A) (A) (A) (A)
                 (A) (A) (A) (A) (A) (A) (A) (A) (A) (A) (A) (A)
                 (A) (A) (A) (A) (A) (A) (A) (A) (A) (A) (A) (A)
                 (A) (A) (A) (A) (A) (A) (A) (A) (A) (A) (A) (A)
                 (A) (A) (A)
       Virtual   (A) (A) (A) (A) (A) (A) (A) (A) (A) (A) (A) (A)
                 (A) (A) (A) (A) (A) (A) (A) (A) (A) (A) (A) (A)
                 (A) (A) (A) (A) (A) (A) (A) (A) (A) (A) (A) (A)
                 (A) (A) (A) (A) (A) (A) (A) (A) (A) (A) (A) (A)
                 (A) (A) (A) (A) (A) (A) (A) (A) (A) (A) (A) (A)
                 (A) (A) (A) (A) (A) (A) (A) (A) (A) (A) (A) (A)
                 (A) (A) (A) (A) (A) (A) (A) (A) (A) (A) (A) (A)
                 (A) (A) (A) (A) (A) (A) (A) (A) (A) (A) (A) (A)
                 (A) (A) (A) (A) (A) (A) (A) (A) (A) (A) (A) (A)
                 (A) (A) (A) (A) (A) (A) (A) (A) (A) (A) (A) (A)
                 (A) (A) (A) (A) (A) (A) (A) (A) (A) (A) (A) (A)
                 (A) (A) (A) (A) (A) (A) (A) (A) (A) (A) (A) (A)
                 (A) (A) (A) (A) (A) (A) (A) (A) (A) (A) (A) (A)
                 (A) (A) (A) (A) (A) (A) (A) (A) (A) (A) (A) (A)
                 (A) (A) (A) (A) (A) (A) (A) (A) (A) (A) (A) (A)
                 (A) (A) (A) (A) (A) (A) (A) (A) (A) (A) (A) (A)
                 (A) (A) (A) (A) (A) (A) (A) (A) (A) (A) (A) (A)
                 (A) (A) (A) (A) (A) (A) (A) (A) (A) (A) (A) (A)
                 (A) (A) (A) (A) (A) (A) (A) (A) (A) (A) (A) (A)
                 (A) (A) (A) (A) (A) (A) (A) (A) (A) (A) (A) (A)
                 (A) (A) (A) (A) (A) (A) (A) (A) (A) (A) (A) (A)
                 (A) (A) (A) (A) (A) (A) (A)
 The electronic state is 1-A.
 Alpha  occ. eigenvalues --  -88.92421 -14.35501 -14.33817 -10.28477 -10.26038
 Alpha  occ. eigenvalues --  -10.25398 -10.24715 -10.23540 -10.23031 -10.22755
 Alpha  occ. eigenvalues --  -10.21738 -10.19048 -10.19048  -7.98431  -5.94919
 Alpha  occ. eigenvalues --   -5.94492  -5.94032  -0.98747  -0.92237  -0.84387
 Alpha  occ. eigenvalues --   -0.82146  -0.81889  -0.72830  -0.70221  -0.69692
 Alpha  occ. eigenvalues --   -0.66811  -0.62254  -0.60297  -0.53145  -0.50190
 Alpha  occ. eigenvalues --   -0.48653  -0.46608  -0.45557  -0.44813  -0.43799
 Alpha  occ. eigenvalues --   -0.43792  -0.43173  -0.41048  -0.39732  -0.39398
 Alpha  occ. eigenvalues --   -0.38291  -0.37887  -0.37727  -0.36042  -0.35591
 Alpha  occ. eigenvalues --   -0.34967  -0.33758  -0.31387  -0.28456  -0.27339
 Alpha  occ. eigenvalues --   -0.21436
 Alpha virt. eigenvalues --   -0.09888  -0.04602  -0.01866  -0.00385   0.00749
 Alpha virt. eigenvalues --    0.01525   0.02158   0.02173   0.02747   0.03200
 Alpha virt. eigenvalues --    0.03694   0.04625   0.04792   0.05158   0.05254
 Alpha virt. eigenvalues --    0.05753   0.05946   0.06798   0.07590   0.07996
 Alpha virt. eigenvalues --    0.08194   0.08358   0.09138   0.09235   0.10268
 Alpha virt. eigenvalues --    0.10843   0.10974   0.11458   0.12073   0.12721
 Alpha virt. eigenvalues --    0.13045   0.13222   0.13333   0.14345   0.14555
 Alpha virt. eigenvalues --    0.14841   0.15162   0.15894   0.16259   0.17053
 Alpha virt. eigenvalues --    0.18390   0.18771   0.18834   0.19163   0.19653
 Alpha virt. eigenvalues --    0.20081   0.20412   0.21240   0.21550   0.22416
 Alpha virt. eigenvalues --    0.22538   0.23256   0.24318   0.24808   0.24839
 Alpha virt. eigenvalues --    0.25664   0.25837   0.26607   0.27087   0.27113
 Alpha virt. eigenvalues --    0.27323   0.27672   0.28633   0.28655   0.29549
 Alpha virt. eigenvalues --    0.29663   0.30965   0.31784   0.32978   0.34815
 Alpha virt. eigenvalues --    0.35339   0.35682   0.36525   0.37147   0.38571
 Alpha virt. eigenvalues --    0.39484   0.42278   0.44059   0.47114   0.48679
 Alpha virt. eigenvalues --    0.50891   0.52259   0.57837   0.57843   0.64157
 Alpha virt. eigenvalues --    0.64307   0.64838   0.66945   0.67018   0.67221
 Alpha virt. eigenvalues --    0.68822   0.69160   0.69206   0.70970   0.71956
 Alpha virt. eigenvalues --    0.72973   0.74341   0.74768   0.75115   0.75584
 Alpha virt. eigenvalues --    0.77249   0.77530   0.79879   0.82322   0.82819
 Alpha virt. eigenvalues --    0.83393   0.84632   0.85815   0.86216   0.87834
 Alpha virt. eigenvalues --    0.88128   0.92021   0.92544   0.93780   0.94713
 Alpha virt. eigenvalues --    0.94733   0.96028   0.97239   0.97963   0.99664
 Alpha virt. eigenvalues --    0.99774   1.01072   1.01524   1.02138   1.03749
 Alpha virt. eigenvalues --    1.04802   1.05708   1.06136   1.07448   1.08589
 Alpha virt. eigenvalues --    1.10578   1.11915   1.13659   1.14071   1.14389
 Alpha virt. eigenvalues --    1.17977   1.20220   1.21908   1.22685   1.24249
 Alpha virt. eigenvalues --    1.25772   1.29017   1.30234   1.32690   1.33558
 Alpha virt. eigenvalues --    1.35629   1.35910   1.42040   1.42235   1.43100
 Alpha virt. eigenvalues --    1.44665   1.47708   1.47962   1.50083   1.50993
 Alpha virt. eigenvalues --    1.53258   1.54342   1.57289   1.58028   1.59751
 Alpha virt. eigenvalues --    1.63445   1.69174   1.71949   1.73948   1.76684
 Alpha virt. eigenvalues --    1.79723   1.84005   1.84067   1.85202   1.86782
 Alpha virt. eigenvalues --    1.89738   1.92626   1.93567   1.93757   1.96483
 Alpha virt. eigenvalues --    2.00828   2.01167   2.02595   2.03657   2.04061
 Alpha virt. eigenvalues --    2.04968   2.05884   2.07171   2.07819   2.08653
 Alpha virt. eigenvalues --    2.09843   2.10377   2.12081   2.12211   2.14356
 Alpha virt. eigenvalues --    2.14713   2.17741   2.20083   2.20537   2.26203
 Alpha virt. eigenvalues --    2.28323   2.30773   2.32964   2.33525   2.34183
 Alpha virt. eigenvalues --    2.36517   2.37708   2.38048   2.40399   2.45903
 Alpha virt. eigenvalues --    2.49712   2.50573   2.51683   2.54929   2.55754
 Alpha virt. eigenvalues --    2.56771   2.60088   2.61799   2.67751   2.70027
 Alpha virt. eigenvalues --    2.70348   2.72337   2.73467   2.75325   2.78738
 Alpha virt. eigenvalues --    2.80995   2.81400   2.82802   2.85836   2.87654
 Alpha virt. eigenvalues --    2.88725   2.88929   2.89517   2.93942   2.98937
 Alpha virt. eigenvalues --    3.05947   3.13477   3.21846   3.24739   3.26478
 Alpha virt. eigenvalues --    3.27359   3.27790   3.37628   3.39541   3.42281
 Alpha virt. eigenvalues --    3.42767   3.43541   3.48411   3.51143   3.54747
 Alpha virt. eigenvalues --    3.60584   3.95683   4.17824   4.24040   4.28168
 Alpha virt. eigenvalues --    4.35525   4.40031   4.42286   4.43723   4.51066
 Alpha virt. eigenvalues --    4.52647   4.60823   4.73732   4.84493
          Condensed to atoms (all electrons):
               1          2          3          4          5          6
     1  C    7.055849   1.111192  -1.274923   0.015644  -1.359346   0.351215
     2  C    1.111192  12.676824  -2.555792   0.169723  -6.363030   2.205404
     3  C   -1.274923  -2.555792  10.182805  -0.066337   1.004091  -0.946791
     4  N    0.015644   0.169723  -0.066337   7.294064   0.028865   0.107128
     5  C   -1.359346  -6.363030   1.004091   0.028865  13.845542  -0.889486
     6  C    0.351215   2.205404  -0.946791   0.107128  -0.889486   8.386087
     7  C    0.035673   0.412621   0.213713  -0.063384  -0.402189  -0.426593
     8  C    0.023709   0.161842  -0.065569  -0.000619  -0.083670   0.104986
     9  C    0.023992   0.162079  -0.065826  -0.000616  -0.082685   0.104995
    10  C   -0.756856  -2.789248   0.138315   0.021412   0.441504  -2.197845
    11  S   -0.038100  -0.081236   0.041580  -0.000937  -0.411965  -0.719158
    12  C    0.000550   0.040289  -0.002471   0.000059  -0.049889  -0.012952
    13  N    0.042698   0.018270   0.012360   0.001498   0.201479   0.111800
    14  H    0.550880  -0.117491  -0.000108  -0.000107  -0.024176   0.011233
    15  H    0.427762  -0.106783   0.008966   0.001211   0.030540  -0.004271
    16  H    0.001060  -0.010004  -0.003930   0.001738   0.028653   0.002571
    17  H   -0.000101  -0.002792  -0.002074   0.000131  -0.008323  -0.003989
    18  H    0.002775   0.045131  -0.006804   0.000201  -0.035128   0.029860
    19  H   -0.000170  -0.011248   0.000879  -0.000018   0.023658   0.049434
    20  H   -0.000102  -0.002816  -0.002069   0.000130  -0.008284  -0.003907
    21  H    0.002788   0.045311  -0.006849   0.000202  -0.035312   0.029970
    22  H   -0.000168  -0.011222   0.000880  -0.000018   0.023672   0.049407
    23  H   -0.000197  -0.001961   0.000043  -0.000000  -0.007930  -0.009728
    24  H    0.000501   0.002902  -0.000233   0.000000  -0.001264  -0.001912
    25  H    0.000504   0.002901  -0.000232   0.000000  -0.001244  -0.001879
               7          8          9         10         11         12
     1  C    0.035673   0.023709   0.023992  -0.756856  -0.038100   0.000550
     2  C    0.412621   0.161842   0.162079  -2.789248  -0.081236   0.040289
     3  C    0.213713  -0.065569  -0.065826   0.138315   0.041580  -0.002471
     4  N   -0.063384  -0.000619  -0.000616   0.021412  -0.000937   0.000059
     5  C   -0.402189  -0.083670  -0.082685   0.441504  -0.411965  -0.049889
     6  C   -0.426593   0.104986   0.104995  -2.197845  -0.719158  -0.012952
     7  C    6.808554   0.025365   0.025928  -0.719363   0.074586  -0.003311
     8  C    0.025365   5.494596  -0.144814  -0.229289  -0.054712   0.000010
     9  C    0.025928  -0.144814   5.494754  -0.231197  -0.054944  -0.000012
    10  C   -0.719363  -0.229289  -0.231197  12.528163   0.447144   0.012591
    11  S    0.074586  -0.054712  -0.054944   0.447144  16.730524   0.120975
    12  C   -0.003311   0.000010  -0.000012   0.012591   0.120975   5.329940
    13  N    0.038575   0.008892   0.009009  -0.318605  -0.282616  -0.008628
    14  H    0.004997   0.000140   0.000141  -0.061763   0.001088  -0.000788
    15  H    0.001464   0.000015   0.000016  -0.006623  -0.000237   0.000008
    16  H    0.285361  -0.004960  -0.004980  -0.014395  -0.004931   0.000058
    17  H   -0.058260   0.398023   0.005764   0.026088  -0.000552   0.000098
    18  H   -0.069909   0.437248   0.008223  -0.047993  -0.002767  -0.000046
    19  H   -0.117394   0.451320  -0.015451  -0.031605   0.001123  -0.000754
    20  H   -0.058411   0.005875   0.397980   0.026063  -0.000542   0.000097
    21  H   -0.069999   0.008259   0.437306  -0.048080  -0.002760  -0.000047
    22  H   -0.117335  -0.015509   0.451413  -0.031717   0.001128  -0.000756
    23  H   -0.000191  -0.000147  -0.000147   0.018920  -0.036007   0.385535
    24  H    0.000817  -0.000411   0.000132  -0.020846  -0.027326   0.394041
    25  H    0.000812   0.000133  -0.000412  -0.020910  -0.027267   0.393986
              13         14         15         16         17         18
     1  C    0.042698   0.550880   0.427762   0.001060  -0.000101   0.002775
     2  C    0.018270  -0.117491  -0.106783  -0.010004  -0.002792   0.045131
     3  C    0.012360  -0.000108   0.008966  -0.003930  -0.002074  -0.006804
     4  N    0.001498  -0.000107   0.001211   0.001738   0.000131   0.000201
     5  C    0.201479  -0.024176   0.030540   0.028653  -0.008323  -0.035128
     6  C    0.111800   0.011233  -0.004271   0.002571  -0.003989   0.029860
     7  C    0.038575   0.004997   0.001464   0.285361  -0.058260  -0.069909
     8  C    0.008892   0.000140   0.000015  -0.004960   0.398023   0.437248
     9  C    0.009009   0.000141   0.000016  -0.004980   0.005764   0.008223
    10  C   -0.318605  -0.061763  -0.006623  -0.014395   0.026088  -0.047993
    11  S   -0.282616   0.001088  -0.000237  -0.004931  -0.000552  -0.002767
    12  C   -0.008628  -0.000788   0.000008   0.000058   0.000098  -0.000046
    13  N    7.406306  -0.008303  -0.000052   0.001739  -0.000058   0.000149
    14  H   -0.008303   0.489903  -0.028928  -0.000001  -0.000000  -0.000000
    15  H   -0.000052  -0.028928   0.512397   0.000001   0.000000   0.000000
    16  H    0.001739  -0.000001   0.000001   0.571332  -0.003850  -0.004000
    17  H   -0.000058  -0.000000   0.000000  -0.003850   0.551368  -0.025270
    18  H    0.000149  -0.000000   0.000000  -0.004000  -0.025270   0.539763
    19  H    0.001135  -0.000000  -0.000000   0.004836  -0.028288  -0.028497
    20  H   -0.000059  -0.000000   0.000000  -0.003847   0.002758   0.000095
    21  H    0.000152  -0.000000   0.000000  -0.004002   0.000095  -0.000143
    22  H    0.001137  -0.000000  -0.000000   0.004836  -0.000204   0.000026
    23  H    0.001655   0.000000  -0.000000  -0.000000  -0.000000   0.000000
    24  H   -0.000338  -0.000001  -0.000000  -0.000000  -0.000000   0.000000
    25  H   -0.000342  -0.000001  -0.000000  -0.000000   0.000000  -0.000000
              19         20         21         22         23         24
     1  C   -0.000170  -0.000102   0.002788  -0.000168  -0.000197   0.000501
     2  C   -0.011248  -0.002816   0.045311  -0.011222  -0.001961   0.002902
     3  C    0.000879  -0.002069  -0.006849   0.000880   0.000043  -0.000233
     4  N   -0.000018   0.000130   0.000202  -0.000018  -0.000000   0.000000
     5  C    0.023658  -0.008284  -0.035312   0.023672  -0.007930  -0.001264
     6  C    0.049434  -0.003907   0.029970   0.049407  -0.009728  -0.001912
     7  C   -0.117394  -0.058411  -0.069999  -0.117335  -0.000191   0.000817
     8  C    0.451320   0.005875   0.008259  -0.015509  -0.000147  -0.000411
     9  C   -0.015451   0.397980   0.437306   0.451413  -0.000147   0.000132
    10  C   -0.031605   0.026063  -0.048080  -0.031717   0.018920  -0.020846
    11  S    0.001123  -0.000542  -0.002760   0.001128  -0.036007  -0.027326
    12  C   -0.000754   0.000097  -0.000047  -0.000756   0.385535   0.394041
    13  N    0.001135  -0.000059   0.000152   0.001137   0.001655  -0.000338
    14  H   -0.000000  -0.000000  -0.000000  -0.000000   0.000000  -0.000001
    15  H   -0.000000   0.000000   0.000000  -0.000000  -0.000000  -0.000000
    16  H    0.004836  -0.003847  -0.004002   0.004836  -0.000000  -0.000000
    17  H   -0.028288   0.002758   0.000095  -0.000204  -0.000000  -0.000000
    18  H   -0.028497   0.000095  -0.000143   0.000026   0.000000   0.000000
    19  H    0.543890  -0.000205   0.000026   0.002857  -0.000000   0.000000
    20  H   -0.000205   0.551369  -0.025269  -0.028287  -0.000000   0.000000
    21  H    0.000026  -0.025269   0.539769  -0.028501   0.000000  -0.000000
    22  H    0.002857  -0.028287  -0.028501   0.543872  -0.000000  -0.000000
    23  H   -0.000000  -0.000000   0.000000  -0.000000   0.515119  -0.022656
    24  H    0.000000   0.000000  -0.000000  -0.000000  -0.022656   0.491724
    25  H   -0.000000  -0.000000   0.000000   0.000000  -0.022660  -0.025123
              25
     1  C    0.000504
     2  C    0.002901
     3  C   -0.000232
     4  N    0.000000
     5  C   -0.001244
     6  C   -0.001879
     7  C    0.000812
     8  C    0.000133
     9  C   -0.000412
    10  C   -0.020910
    11  S   -0.027267
    12  C    0.393986
    13  N   -0.000342
    14  H   -0.000001
    15  H   -0.000000
    16  H   -0.000000
    17  H    0.000000
    18  H   -0.000000
    19  H   -0.000000
    20  H   -0.000000
    21  H    0.000000
    22  H    0.000000
    23  H   -0.022660
    24  H   -0.025123
    25  H    0.491754
 Mulliken charges:
               1
     1  C   -0.216828
     2  C    0.999133
     3  C   -0.603624
     4  N   -0.509971
     5  C    0.135918
     6  C   -0.325578
     7  C    0.177872
     8  C   -0.520715
     9  C   -0.520648
    10  C   -0.133862
    11  S    0.327907
    12  C   -0.598584
    13  N   -0.237855
    14  H    0.183286
    15  H    0.164515
    16  H    0.156715
    17  H    0.149436
    18  H    0.157085
    19  H    0.154470
    20  H    0.149429
    21  H    0.157085
    22  H    0.154489
    23  H    0.180351
    24  H    0.209994
    25  H    0.209980
 Sum of Mulliken charges =  -0.00000
 Mulliken charges with hydrogens summed into heavy atoms:
               1
     1  C    0.130973
     2  C    0.999133
     3  C   -0.603624
     4  N   -0.509971
     5  C    0.135918
     6  C   -0.325578
     7  C    0.334587
     8  C   -0.059724
     9  C   -0.059645
    10  C   -0.133862
    11  S    0.327907
    12  C    0.001741
    13  N   -0.237855
 Electronic spatial extent (au):  <R**2>=           3172.9301
 Charge=              0.0000 electrons
 Dipole moment (field-independent basis, Debye):
    X=             -3.8551    Y=             -0.9250    Z=              0.0017  Tot=              3.9645
 Quadrupole moment (field-independent basis, Debye-Ang):
   XX=            -92.6950   YY=            -79.2887   ZZ=            -87.5286
   XY=             -3.1224   XZ=              0.0060   YZ=              0.0006
 Traceless Quadrupole moment (field-independent basis, Debye-Ang):
   XX=             -6.1909   YY=              7.2154   ZZ=             -1.0245
   XY=             -3.1224   XZ=              0.0060   YZ=              0.0006
 Octapole moment (field-independent basis, Debye-Ang**2):
  XXX=           -138.5509  YYY=             -5.7323  ZZZ=              0.0014  XYY=              8.6396
  XXY=            -51.1956  XXZ=              0.0245  XZZ=             -3.9752  YZZ=              1.5293
  YYZ=              0.0059  XYZ=             -0.0003
 Hexadecapole moment (field-independent basis, Debye-Ang**3):
 XXXX=          -2872.1967 YYYY=          -1440.9767 ZZZZ=           -287.9201 XXXY=            -24.8017
 XXXZ=              0.1289 YYYX=            -26.0914 YYYZ=             -0.0075 ZZZX=             -0.0054
 ZZZY=             -0.0026 XXYY=           -626.4075 XXZZ=           -502.2590 YYZZ=           -310.3787
 XXYZ=              0.0084 YYXZ=              0.0188 ZZXY=             14.2423
 N-N= 8.226038429530D+02 E-N=-3.743461463079D+03  KE= 8.897260948516D+02
 Unable to Open any file for archive entry.
 1\1\GINC-N2\SP\RB3LYP TD-FC\6-31+G(d,p)\C10H12N2S1\HPCMGAC13\13-Aug-20
 25\0\\# td=(50-50,nstates=3) b3lyp/6-31+g(d,p) geom=connectivity\\Titl
 e Card Required\\0,1\C,0,2.239442,-2.682481,0.000509\C,0,2.071434,-1.3
 36786,0.000026\C,0,3.206823,-0.449541,-0.000497\N,0,4.115478,0.276766,
 -0.000859\C,0,0.759986,-0.744538,0.000013\C,0,0.161382,0.467757,-0.000
 375\C,0,0.511065,1.91808,0.000148\C,0,-0.01094,2.620984,-1.272639\C,0,
 -0.010567,2.619633,1.27388\C,0,-1.12751,-0.384479,-0.000128\S,0,-2.808
 011,0.018495,-0.000428\C,0,-3.532738,-1.662049,-0.000031\N,0,-0.541768
 ,-1.54816,0.000205\H,0,1.368581,-3.327518,0.000884\H,0,3.226969,-3.128
 537,0.000498\H,0,1.605795,1.982162,0.000055\H,0,0.285919,3.675273,-1.2
 69365\H,0,0.392293,2.154692,-2.176599\H,0,-1.104822,2.580185,-1.327403
 \H,0,0.28607,3.673991,1.271571\H,0,0.393125,2.152472,2.177196\H,0,-1.1
 04417,2.578542,1.329062\H,0,-4.615882,-1.529887,-0.000539\H,0,-3.21546
 6,-2.203862,-0.891993\H,0,-3.216227,-2.203156,0.89263\\Version=ES64L-G
 16RevC.02\State=1-A\HF=-895.8875448\RMSD=6.486e-09\PG=C01 [X(C10H12N2S
 1)]\\@
 The archive entry for this job was punched.


 WE MIGHT AS WELL ATTEMPT TO INTRODUCE A NEW PLANET 
 INTO THE SOLAR SYSTEM, OR TO ANNIHILATE ONE ALREADYIN EXISTENCE, 
 AS TO CREATE OR DESTROY A PARTICLE OF HYDROGEN.
 ALL THE CHANGES WE CAN PRODUCE CONSIST IN SEPARATING PARTICLES
 THAT ARE IN A STATE OF ... COMBINATION, AND JOINING 
 THOSE THAT WERE PREVIOUSLY AT A DISTANCE.

                                    -- JOHN DALTON, 1810
 Job cpu time:       0 days  0 hours 23 minutes 56.2 seconds.
 Elapsed time:       0 days  0 hours  3 minutes  3.8 seconds.
 File lengths (MBytes):  RWF=    614 Int=      0 D2E=      0 Chk=     26 Scr=      2
 Normal termination of Gaussian 16 at Wed Aug 13 15:40:13 2025.
