 Entering Gaussian System, Link 0=g16
 Input=M1116E.gjf
 Output=M1116E.log
 Initial command:
 /hpc/softwares/Gaussian/g16/l1.exe "/hpc/home/hpcmgac13/pbs.13275.admin1.x8z/Gau-3062907.inp" -scrdir="/hpc/home/hpcmgac13/pbs.13275.admin1.x8z/"
 Default linda workers: n2
 Default is to use   8 SMP processors on each worker.
 Entering Link 1 = /hpc/softwares/Gaussian/g16/l1.exe PID=   3062908.
  
 Copyright (c) 1988-2021, Gaussian, Inc.  All Rights Reserved.
  
 This is part of the Gaussian(R) 16 program.  It is based on
 the Gaussian(R) 09 system (copyright 2009, Gaussian, Inc.),
 the Gaussian(R) 03 system (copyright 2003, Gaussian, Inc.),
 the Gaussian(R) 98 system (copyright 1998, Gaussian, Inc.),
 the Gaussian(R) 94 system (copyright 1995, Gaussian, Inc.),
 the Gaussian 92(TM) system (copyright 1992, Gaussian, Inc.),
 the Gaussian 90(TM) system (copyright 1990, Gaussian, Inc.),
 the Gaussian 88(TM) system (copyright 1988, Gaussian, Inc.),
 the Gaussian 86(TM) system (copyright 1986, Carnegie Mellon
 University), and the Gaussian 82(TM) system (copyright 1983,
 Carnegie Mellon University). Gaussian is a federally registered
 trademark of Gaussian, Inc.
  
 This software contains proprietary and confidential information,
 including trade secrets, belonging to Gaussian, Inc.
  
 This software is provided under written license and may be
 used, copied, transmitted, or stored only in accord with that
 written license.
  
 The following legend is applicable only to US Government
 contracts under FAR:
  
                    RESTRICTED RIGHTS LEGEND
  
 Use, reproduction and disclosure by the US Government is
 subject to restrictions as set forth in subparagraphs (a)
 and (c) of the Commercial Computer Software - Restricted
 Rights clause in FAR 52.227-19.
  
 Gaussian, Inc.
 340 Quinnipiac St., Bldg. 40, Wallingford CT 06492
  
  
 ---------------------------------------------------------------
 Warning -- This program may not be used in any manner that
 competes with the business of Gaussian, Inc. or will provide
 assistance to any competitor of Gaussian, Inc.  The licensee
 of this program is prohibited from giving any competitor of
 Gaussian, Inc. access to this program.  By using this program,
 the user acknowledges that Gaussian, Inc. is engaged in the
 business of creating and licensing software in the field of
 computational chemistry and represents and warrants to the
 licensee that it is not a competitor of Gaussian, Inc. and that
 it will not use this program in any manner prohibited above.
 ---------------------------------------------------------------
  

 Cite this work as:
 Gaussian 16, Revision C.02,
 M. J. Frisch, G. W. Trucks, H. B. Schlegel, G. E. Scuseria, 
 M. A. Robb, J. R. Cheeseman, G. Scalmani, V. Barone, 
 G. A. Petersson, H. Nakatsuji, X. Li, M. Caricato, A. V. Marenich, 
 J. Bloino, B. G. Janesko, R. Gomperts, B. Mennucci, H. P. Hratchian, 
 J. V. Ortiz, A. F. Izmaylov, J. L. Sonnenberg, D. Williams-Young, 
 F. Ding, F. Lipparini, F. Egidi, J. Goings, B. Peng, A. Petrone, 
 T. Henderson, D. Ranasinghe, V. G. Zakrzewski, J. Gao, N. Rega, 
 G. Zheng, W. Liang, M. Hada, M. Ehara, K. Toyota, R. Fukuda, 
 J. Hasegawa, M. Ishida, T. Nakajima, Y. Honda, O. Kitao, H. Nakai, 
 T. Vreven, K. Throssell, J. A. Montgomery, Jr., J. E. Peralta, 
 F. Ogliaro, M. J. Bearpark, J. J. Heyd, E. N. Brothers, K. N. Kudin, 
 V. N. Staroverov, T. A. Keith, R. Kobayashi, J. Normand, 
 K. Raghavachari, A. P. Rendell, J. C. Burant, S. S. Iyengar, 
 J. Tomasi, M. Cossi, J. M. Millam, M. Klene, C. Adamo, R. Cammi, 
 J. W. Ochterski, R. L. Martin, K. Morokuma, O. Farkas, 
 J. B. Foresman, and D. J. Fox, Gaussian, Inc., Wallingford CT, 2019.
 
 ******************************************
 Gaussian 16:  ES64L-G16RevC.02  7-Dec-2021
                13-Aug-2025 
 ******************************************
 SetLPE:    new flags="-opt 'Tsnet.Node.lindarsharg: ssh'  -nodelist 'n2.head.cm.mguif.local' -env GAUSS_MDEF=2147483648 -env GAUSS_EXEDIR="/hpc/softwares/Gaussian/g16/bsd:/hpc/softwares/Gaussian/g16""
 Will use up to    1 processors via Linda.
 ----------------------------------------------------------
 # td=(50-50,nstates=3) b3lyp/6-31+g(d,p) geom=connectivity
 ----------------------------------------------------------
 1/38=1,57=2,172=1/1;
 2/12=2,17=6,18=5,40=1/2;
 3/5=1,6=6,7=111,11=9,25=1,30=1,74=-5/1,2,3,8;
 4//1;
 5/5=2,38=5/2;
 8/6=1,10=2,108=3/1;
 9/41=3,42=1,48=2,70=2/14;
 6/7=2,8=2,9=2,10=2/1;
 99/5=1,9=1/99;
 -------------------
 Title Card Required
 -------------------
 Symbolic Z-matrix:
 Charge =  0 Multiplicity = 1
 C                     5.19249   0.20628  -0.0029 
 C                     3.75859   0.74851  -0.00037 
 C                     2.6634   -0.31078   0.0003 
 C                     3.11664  -1.66777   0.00101 
 N                     3.50077  -2.76945   0.00167 
 C                     1.29047  -0.11156   0.00036 
 C                     0.38758  -1.24428   0.00044 
 C                    -0.96933  -1.12021   0.0001 
 O                    -1.83603  -2.15006  -0.00009 
 C                    -1.34235  -3.49085  -0.00001 
 C                    -1.59783   0.19932  -0.00008 
 C                    -2.97882   0.38903  -0.00033 
 C                    -3.50264   1.71978  -0.00039 
 N                    -3.90401   2.81428  -0.00036 
 C                    -3.98063  -0.62864  -0.00054 
 N                    -4.88079  -1.36886  -0.0007 
 C                    -0.71406   1.33067   0.00015 
 C                     0.64774   1.20861   0.00036 
 O                     1.48507   2.26757   0.00076 
 C                     0.93987   3.59198   0.00115 
 H                     5.89508   1.04502  -0.00347 
 H                     5.40106  -0.40474   0.88044 
 H                     5.39829  -0.40361  -0.88767 
 H                     3.60722   1.39815  -0.86937 
 H                     3.60973   1.39664   0.87024 
 H                     0.83098  -2.23049   0.0007 
 H                    -0.74455  -3.68531   0.89751 
 H                    -2.22924  -4.12341  -0.00067 
 H                    -0.74351  -3.685    -0.89689 
 H                    -1.16786   2.3119    0.00021 
 H                     1.80115   4.25943   0.00162 
 H                     0.33562   3.76489  -0.89561 
 H                     0.33521   3.76416   0.89778 
 
                          Input orientation:                          
 ---------------------------------------------------------------------
 Center     Atomic      Atomic             Coordinates (Angstroms)
 Number     Number       Type             X           Y           Z
 ---------------------------------------------------------------------
      1          6           0        5.192487    0.206281   -0.002895
      2          6           0        3.758592    0.748507   -0.000374
      3          6           0        2.663404   -0.310783    0.000299
      4          6           0        3.116644   -1.667768    0.001014
      5          7           0        3.500765   -2.769445    0.001665
      6          6           0        1.290470   -0.111556    0.000359
      7          6           0        0.387578   -1.244281    0.000441
      8          6           0       -0.969333   -1.120211    0.000102
      9          8           0       -1.836027   -2.150063   -0.000085
     10          6           0       -1.342349   -3.490851   -0.000010
     11          6           0       -1.597825    0.199317   -0.000075
     12          6           0       -2.978815    0.389032   -0.000332
     13          6           0       -3.502642    1.719780   -0.000391
     14          7           0       -3.904008    2.814277   -0.000358
     15          6           0       -3.980626   -0.628641   -0.000535
     16          7           0       -4.880793   -1.368863   -0.000697
     17          6           0       -0.714064    1.330673    0.000145
     18          6           0        0.647736    1.208611    0.000356
     19          8           0        1.485068    2.267570    0.000756
     20          6           0        0.939869    3.591978    0.001153
     21          1           0        5.895075    1.045015   -0.003466
     22          1           0        5.401061   -0.404735    0.880443
     23          1           0        5.398286   -0.403612   -0.887670
     24          1           0        3.607216    1.398147   -0.869366
     25          1           0        3.609728    1.396641    0.870242
     26          1           0        0.830984   -2.230488    0.000695
     27          1           0       -0.744553   -3.685313    0.897508
     28          1           0       -2.229243   -4.123409   -0.000669
     29          1           0       -0.743510   -3.684997   -0.896887
     30          1           0       -1.167860    2.311899    0.000207
     31          1           0        1.801145    4.259425    0.001616
     32          1           0        0.335618    3.764885   -0.895612
     33          1           0        0.335214    3.764162    0.897784
 ---------------------------------------------------------------------
                    Distance matrix (angstroms):
                    1          2          3          4          5
     1  C    0.000000
     2  C    1.532994   0.000000
     3  C    2.581400   1.523658   0.000000
     4  C    2.796641   2.500097   1.430677   0.000000
     5  N    3.422994   3.527388   2.597344   1.166723   0.000000
     6  C    3.914942   2.613682   1.387314   2.399314   3.456845
     7  C    5.019093   3.915985   2.459838   2.761728   3.466707
     8  C    6.302985   5.083835   3.721821   4.122503   4.764635
     9  O    7.412987   6.300910   4.860847   4.976099   5.372614
    10  C    7.508187   6.632628   5.114576   4.817287   4.896548
    11  C    6.790316   5.384497   4.291652   5.070722   5.899930
    12  C    8.173346   6.746990   5.685453   6.433121   7.208394
    13  C    8.825868   7.325905   6.491788   7.435754   8.318705
    14  N    9.462974   7.936173   7.273026   8.329363   9.274083
    15  C    9.211032   7.860791   6.651629   7.172937   7.781662
    16  N   10.195688   8.895068   7.618034   8.003021   8.497773
    17  C    6.012621   4.510385   3.755219   4.864666   5.880115
    18  C    4.653970   3.144697   2.524178   3.790655   4.895376
    19  O    4.241920   2.734313   2.834851   4.260156   5.425362
    20  C    5.435781   4.003814   4.266394   5.692388   6.857543
    21  H    1.094123   2.156962   3.504554   3.883155   4.503649
    22  H    1.094134   2.191691   2.877194   2.754489   3.158359
    23  H    1.094143   2.191636   2.876923   2.755674   3.160485
    24  H    2.164348   1.095488   2.137180   3.224602   4.258973
    25  H    2.164359   1.095541   2.137201   3.223242   4.257061
    26  H    4.996055   4.176757   2.653871   2.353911   2.723638
    27  H    7.155674   6.383045   4.879202   4.447812   4.434419
    28  H    8.592339   7.719439   6.202750   5.882915   5.887802
    29  H    7.153833   6.381897   4.878250   4.447047   4.433904
    30  H    6.699825   5.168571   4.642956   5.847626   6.900443
    31  H    5.284808   4.019720   4.650838   6.071421   7.231440
    32  H    6.086853   4.649380   4.778317   6.168611   7.315786
    33  H    6.087926   4.649772   4.778193   6.168177   7.315173
                    6          7          8          9         10
     6  C    0.000000
     7  C    1.448544   0.000000
     8  C    2.474691   1.362571   0.000000
     9  O    3.732358   2.401012   1.346014   0.000000
    10  C    4.283850   2.835441   2.399807   1.428786   0.000000
    11  C    2.904977   2.454751   1.461560   2.361425   3.699001
    12  C    4.298533   3.741699   2.513132   2.784415   4.210880
    13  C    5.131054   4.890754   3.805680   4.213465   5.640704
    14  N    5.961803   5.906742   4.908413   5.377845   6.805640
    15  C    5.296398   4.411374   3.051152   2.629454   3.892654
    16  N    6.298040   5.269844   3.919356   3.143386   4.125945
    17  C    2.469450   2.800715   2.464142   3.657092   4.862287
    18  C    1.468315   2.466650   2.835194   4.177292   5.103468
    19  O    2.387071   3.679345   4.183437   5.526767   6.415115
    20  C    3.720092   4.867692   5.084268   6.377824   7.441437
    21  H    4.747637   5.964345   7.197799   8.365314   8.541335
    22  H    4.213960   5.158900   6.470612   7.496462   7.468125
    23  H    4.212843   5.157777   6.469020   7.494877   7.466937
    24  H    2.898782   4.255004   5.295555   6.555482   7.011154
    25  H    2.900054   4.255969   5.297121   6.556891   7.011989
    26  H    2.168179   1.081302   2.115149   2.668223   2.512348
    27  H    4.209268   2.836386   2.726832   2.086620   1.095771
    28  H    5.336979   3.890647   3.256773   2.012142   1.089363
    29  H    4.208516   2.835781   2.726484   2.086593   1.095760
    30  H    3.452031   3.881469   3.437847   4.511713   5.805373
    31  H    4.400712   5.682337   6.051118   7.369570   8.363512
    32  H    4.091614   5.088944   5.135111   6.364324   7.500892
    33  H    4.091342   5.088464   5.134664   6.363844   7.500364
                   11         12         13         14         15
    11  C    0.000000
    12  C    1.393960   0.000000
    13  C    2.437239   1.430135   0.000000
    14  N    3.486617   2.595726   1.165769   0.000000
    15  C    2.522549   1.428035   2.396570   3.443770   0.000000
    16  N    3.638278   2.589926   3.382161   4.295669   1.165431
    17  C    1.435618   2.452710   2.815594   3.518071   3.809113
    18  C    2.461954   3.718008   4.181738   4.826649   4.979682
    19  O    3.712398   4.843053   5.017701   5.416736   6.185616
    20  C    4.236749   5.061121   4.820895   4.905911   6.482661
    21  H    7.540475   8.898104   9.421911   9.957526  10.016517
    22  H    7.079873   8.463342   9.195943   9.885452   9.425620
    23  H    7.077918   8.461175   9.193616   9.883057   9.423462
    24  H    5.411591   6.719326   7.169982   7.692794   7.901777
    25  H    5.413838   6.721761   7.172742   7.695704   7.904018
    26  H    3.435559   4.623468   5.863867   6.918801   5.071243
    27  H    4.077264   4.732687   6.134192   7.282375   4.541133
    28  H    4.368598   4.574274   5.980335   7.136969   3.909059
    29  H    4.077011   4.732664   6.134177   7.282381   4.541330
    30  H    2.155893   2.641397   2.408695   2.781886   4.069205
    31  H    5.295043   6.150444   5.880473   5.885340   7.571134
    32  H    4.153729   4.814912   4.440283   4.436165   6.223680
    33  H    4.153422   4.814655   4.440198   4.436208   6.223357
                   16         17         18         19         20
    16  N    0.000000
    17  C    4.964789   0.000000
    18  C    6.099837   1.367259   0.000000
    19  O    7.331291   2.390389   1.350007   0.000000
    20  C    7.647879   2.801606   2.401204   1.432236   0.000000
    21  H   11.042923   6.615310   5.249890   4.576333   5.571455
    22  H   10.364481   6.417267   5.096228   4.821832   6.053850
    23  H   10.362331   6.415355   5.094662   4.820559   6.052456
    24  H    8.969795   4.408408   3.090447   2.452860   3.561662
    25  H    8.971928   4.410963   3.092807   2.455342   3.564122
    26  H    5.776400   3.881886   3.443978   4.545366   5.823484
    27  H    4.825059   5.095714   5.166608   6.419672   7.523277
    28  H    3.823381   5.660634   6.058667   7.391936   8.340891
    29  H    4.825427   5.095339   5.166044   6.419141   7.522939
    30  H    5.228181   1.081081   2.124531   2.653298   2.465994
    31  H    8.736471   3.860553   3.261567   2.016778   1.089625
    32  H    7.373411   2.798142   2.726667   2.089656   1.095082
    33  H    7.373055   2.797965   2.726516   2.089644   1.095081
                   21         22         23         24         25
    21  H    0.000000
    22  H    1.768366   0.000000
    23  H    1.768371   1.768116   0.000000
    24  H    2.471595   3.087085   2.540591   0.000000
    25  H    2.471804   2.540459   3.087087   1.739610   0.000000
    26  H    6.031082   4.999293   4.998691   4.650964   4.651193
    27  H    8.201976   6.966423   7.189638   6.921077   6.692291
    28  H    9.628975   8.533841   8.532459   8.081242   8.082266
    29  H    8.200123   7.188517   6.963421   6.690884   6.920728
    30  H    7.175657   7.162795   7.160768   4.938871   4.941660
    31  H    5.205067   5.957023   5.956019   3.493911   3.495857
    32  H    6.253094   6.796971   6.557975   4.038006   4.409832
    33  H    6.254444   6.560702   6.796535   4.407589   4.040836
                   26         27         28         29         30
    26  H    0.000000
    27  H    2.324458   0.000000
    28  H    3.598353   1.789680   0.000000
    29  H    2.323851   1.794395   1.789641   0.000000
    30  H    4.962727   6.078724   6.522248   6.078455   0.000000
    31  H    6.562026   8.390594   9.301394   8.390257   3.550753
    32  H    6.082208   7.738701   8.342938   7.527633   2.274666
    33  H    6.081643   7.527322   8.342508   7.737859   2.274630
                   31         32         33
    31  H    0.000000
    32  H    1.788116   0.000000
    33  H    1.788115   1.793396   0.000000
 Stoichiometry    C15H13N3O2
 Framework group  C1[X(C15H13N3O2)]
 Deg. of freedom    93
 Full point group                 C1      NOp   1
 Largest Abelian subgroup         C1      NOp   1
 Largest concise Abelian subgroup C1      NOp   1
                         Standard orientation:                         
 ---------------------------------------------------------------------
 Center     Atomic      Atomic             Coordinates (Angstroms)
 Number     Number       Type             X           Y           Z
 ---------------------------------------------------------------------
      1          6           0       -5.192487    0.206281    0.002895
      2          6           0       -3.758592    0.748507    0.000374
      3          6           0       -2.663404   -0.310783   -0.000299
      4          6           0       -3.116644   -1.667768   -0.001014
      5          7           0       -3.500765   -2.769445   -0.001665
      6          6           0       -1.290470   -0.111556   -0.000359
      7          6           0       -0.387578   -1.244281   -0.000441
      8          6           0        0.969333   -1.120211   -0.000102
      9          8           0        1.836027   -2.150063    0.000085
     10          6           0        1.342349   -3.490851    0.000010
     11          6           0        1.597825    0.199317    0.000075
     12          6           0        2.978815    0.389032    0.000332
     13          6           0        3.502642    1.719780    0.000391
     14          7           0        3.904008    2.814277    0.000358
     15          6           0        3.980626   -0.628641    0.000535
     16          7           0        4.880793   -1.368863    0.000697
     17          6           0        0.714064    1.330673   -0.000145
     18          6           0       -0.647736    1.208611   -0.000356
     19          8           0       -1.485068    2.267570   -0.000756
     20          6           0       -0.939869    3.591978   -0.001153
     21          1           0       -5.895075    1.045015    0.003466
     22          1           0       -5.401061   -0.404735   -0.880443
     23          1           0       -5.398286   -0.403612    0.887670
     24          1           0       -3.607216    1.398147    0.869366
     25          1           0       -3.609728    1.396641   -0.870242
     26          1           0       -0.830984   -2.230488   -0.000695
     27          1           0        0.744553   -3.685313   -0.897508
     28          1           0        2.229243   -4.123409    0.000669
     29          1           0        0.743510   -3.684997    0.896887
     30          1           0        1.167860    2.311899   -0.000207
     31          1           0       -1.801145    4.259425   -0.001616
     32          1           0       -0.335618    3.764885    0.895612
     33          1           0       -0.335214    3.764162   -0.897784
 ---------------------------------------------------------------------
 Rotational constants (GHZ):           0.5203541           0.2307055           0.1604829
 Standard basis: 6-31+G(d,p) (6D, 7F)
 There are   445 symmetry adapted cartesian basis functions of A   symmetry.
 There are   445 symmetry adapted basis functions of A   symmetry.
   445 basis functions,   731 primitive gaussians,   445 cartesian basis functions
    70 alpha electrons       70 beta electrons
       nuclear repulsion energy      1413.9172618757 Hartrees.
 NAtoms=   33 NActive=   33 NUniq=   33 SFac= 1.00D+00 NAtFMM=   60 NAOKFM=F Big=F
 Integral buffers will be    131072 words long.
 Regular integral format.
 Two-electron integral symmetry is turned on.
 One-electron integrals computed using PRISM.
 NBasis=   445 RedAO= T EigKep=  2.70D-06  NBF=   445
 NBsUse=   438 1.00D-06 EigRej=  8.93D-07 NBFU=   438
 ExpMin= 4.38D-02 ExpMax= 5.48D+03 ExpMxC= 8.25D+02 IAcc=3 IRadAn=         5 AccDes= 0.00D+00
 Harris functional with IExCor=  402 and IRadAn=       5 diagonalized for initial guess.
 HarFok:  IExCor=  402 AccDes= 0.00D+00 IRadAn=         5 IDoV= 1 UseB2=F ITyADJ=14
 ICtDFT=  3500011 ScaDFX=  1.000000  1.000000  1.000000  1.000000
 FoFCou: FMM=F IPFlag=           0 FMFlag=      100000 FMFlg1=           0
         NFxFlg=           0 DoJE=T BraDBF=F KetDBF=T FulRan=T
         wScrn=  0.000000 ICntrl=       500 IOpCl=  0 I1Cent=   200000004 NGrid=           0
         NMat0=    1 NMatS0=      1 NMatT0=    0 NMatD0=    1 NMtDS0=    0 NMtDT0=    0
 Petite list used in FoFCou.
 Requested convergence on RMS density matrix=1.00D-08 within 128 cycles.
 Requested convergence on MAX density matrix=1.00D-06.
 Requested convergence on             energy=1.00D-06.
 No special actions if energy rises.
 SCF Done:  E(RB3LYP) =  -894.068172898     A.U. after   16 cycles
            NFock= 16  Conv=0.81D-08     -V/T= 2.0095
 DoSCS=F DFT=T ScalE2(SS,OS)=  1.000000  1.000000
 ExpMin= 4.38D-02 ExpMax= 5.48D+03 ExpMxC= 8.25D+02 IAcc=3 IRadAn=         5 AccDes= 0.00D+00
 HarFok:  IExCor=  205 AccDes= 0.00D+00 IRadAn=         5 IDoV=-2 UseB2=F ITyADJ=14
 ICtDFT= 12500011 ScaDFX=  1.000000  1.000000  1.000000  1.000000
 Range of M.O.s used for correlation:    21   438
 NBasis=   445 NAE=    70 NBE=    70 NFC=    20 NFV=     0
 NROrb=    418 NOA=    50 NOB=    50 NVA=   368 NVB=   368

 **** Warning!!: The largest alpha MO coefficient is  0.12859529D+03


 **** Warning!!: The smallest alpha delta epsilon is  0.97641043D-01

 Orbital symmetries:
       Occupied  (A) (A) (A) (A) (A) (A) (A) (A) (A) (A) (A) (A)
                 (A) (A) (A) (A) (A) (A) (A) (A) (A) (A) (A) (A)
                 (A) (A) (A) (A) (A) (A) (A) (A) (A) (A) (A) (A)
                 (A) (A) (A) (A) (A) (A) (A) (A) (A) (A) (A) (A)
                 (A) (A) (A) (A) (A) (A) (A) (A) (A) (A) (A) (A)
                 (A) (A) (A) (A) (A) (A) (A) (A) (A) (A)
       Virtual   (A) (A) (A) (A) (A) (A) (A) (A) (A) (A) (A) (A)
                 (A) (A) (A) (A) (A) (A) (A) (A) (A) (A) (A) (A)
                 (A) (A) (A) (A) (A) (A) (A) (A) (A) (A) (A) (A)
                 (A) (A) (A) (A) (A) (A) (A) (A) (A) (A) (A) (A)
                 (A) (A) (A) (A) (A) (A) (A) (A) (A) (A) (A) (A)
                 (A) (A) (A) (A) (A) (A) (A) (A) (A) (A) (A) (A)
                 (A) (A) (A) (A) (A) (A) (A) (A) (A) (A) (A) (A)
                 (A) (A) (A) (A) (A) (A) (A) (A) (A) (A) (A) (A)
                 (A) (A) (A) (A) (A) (A) (A) (A) (A) (A) (A) (A)
                 (A) (A) (A) (A) (A) (A) (A) (A) (A) (A) (A) (A)
                 (A) (A) (A) (A) (A) (A) (A) (A) (A) (A) (A) (A)
                 (A) (A) (A) (A) (A) (A) (A) (A) (A) (A) (A) (A)
                 (A) (A) (A) (A) (A) (A) (A) (A) (A) (A) (A) (A)
                 (A) (A) (A) (A) (A) (A) (A) (A) (A) (A) (A) (A)
                 (A) (A) (A) (A) (A) (A) (A) (A) (A) (A) (A) (A)
                 (A) (A) (A) (A) (A) (A) (A) (A) (A) (A) (A) (A)
                 (A) (A) (A) (A) (A) (A) (A) (A) (A) (A) (A) (A)
                 (A) (A) (A) (A) (A) (A) (A) (A) (A) (A) (A) (A)
                 (A) (A) (A) (A) (A) (A) (A) (A) (A) (A) (A) (A)
                 (A) (A) (A) (A) (A) (A) (A) (A) (A) (A) (A) (A)
                 (A) (A) (A) (A) (A) (A) (A) (A) (A) (A) (A) (A)
                 (A) (A) (A) (A) (A) (A) (A) (A) (A) (A) (A) (A)
                 (A) (A) (A) (A) (A) (A) (A) (A) (A) (A) (A) (A)
                 (A) (A) (A) (A) (A) (A) (A) (A) (A) (A) (A) (A)
                 (A) (A) (A) (A) (A) (A) (A) (A) (A) (A) (A) (A)
                 (A) (A) (A) (A) (A) (A) (A) (A) (A) (A) (A) (A)
                 (A) (A) (A) (A) (A) (A) (A) (A) (A) (A) (A) (A)
                 (A) (A) (A) (A) (A) (A) (A) (A) (A) (A) (A) (A)
                 (A) (A) (A) (A) (A) (A) (A) (A) (A) (A) (A) (A)
                 (A) (A) (A) (A) (A) (A) (A) (A) (A) (A) (A) (A)
                 (A) (A) (A) (A) (A) (A) (A) (A)
    24 initial guesses have been made.
 Convergence on wavefunction:    0.001000000000000
 Iteration     1 Dimension    24 NMult     0 NNew     24
 CISAX will form    24 AO SS matrices at one time.
 New state      1 was old state      2
 New state      2 was old state      4
 New state      4 was old state      6
 New state      5 was old state      1
 New state      6 was old state     10
 New state      7 was old state      8
 New state      8 was old state     12
 New state      9 was old state      5
 New state     10 was old state      7
 New state     11 was old state     20
 New state     12 was old state     16
 Vector   6 SDiff=3.87D+00 TDiff=6.19D+00 assumed to be singlet.
 Vector  12 SDiff=3.98D+00 TDiff=5.69D+00 assumed to be singlet.
 Iteration     2 Dimension    36 NMult    24 NNew     12
 New state      4 was old state      5
 New state      5 was old state      4
 New state      6 was old state      9
 Iteration     3 Dimension    48 NMult    36 NNew     12
 Iteration     4 Dimension    60 NMult    48 NNew     12
 Iteration     5 Dimension    72 NMult    60 NNew     12
 Iteration     6 Dimension    80 NMult    72 NNew      8
 Iteration     7 Dimension    82 NMult    80 NNew      2
 ***********************************************************************
 Excited states from <AA,BB:AA,BB> singles matrix:
 ***********************************************************************
 
 Ground to excited state transition densities written to RWF  633
 Ground to excited state transition electric dipole moments (Au):
       state          X           Y           Z        Dip. S.      Osc.
         1         0.0000     -0.0000      0.0000      0.0000      0.0000
         2         0.0000      0.0000      0.0000      0.0000      0.0000
         3         0.7023      0.2735      0.0000      0.5679      0.0374
         4         3.4542      0.4323      0.0005     12.1183      0.8845
         5        -0.0000     -0.0000      0.0000      0.0000      0.0000
         6        -0.2486     -0.0861     -0.0000      0.0692      0.0073
 Ground to excited state transition velocity dipole moments (Au):
       state          X           Y           Z        Dip. S.      Osc.
         1        -0.0000      0.0000     -0.0000      0.0000      0.0000
         2         0.0000      0.0000      0.0000      0.0000      0.0000
         3        -0.0664     -0.0269     -0.0000      0.0051      0.0346
         4        -0.3645     -0.0447     -0.0001      0.1348      0.8211
         5         0.0000      0.0000     -0.0000      0.0000      0.0000
         6         0.0380      0.0145      0.0000      0.0017      0.0070
 Ground to excited state transition magnetic dipole moments (Au):
       state          X           Y           Z
         1         0.0000      0.0000      0.0000
         2         0.0000      0.0000     -0.0000
         3         0.0001      0.0001     -0.4166
         4        -0.0000      0.0002      0.2382
         5        -0.0000      0.0000      0.0000
         6         0.0000      0.0000     -0.1618
 Ground to excited state transition velocity quadrupole moments (Au):
       state          XX          YY          ZZ          XY          XZ          YZ
         1        -0.0000     -0.0000     -0.0000     -0.0000     -0.0000     -0.0000
         2        -0.0000     -0.0000     -0.0000      0.0000     -0.0000      0.0000
         3         0.3802     -0.1988      0.0115      0.2565      0.0000      0.0001
         4        -0.5669      0.0862      0.0155      0.0286     -0.0001      0.0001
         5         0.0000      0.0000     -0.0000     -0.0000      0.0000     -0.0000
         6        -0.3647     -0.0354     -0.0071     -0.0956     -0.0001     -0.0000
 <0|del|b> * <b|rxdel|0> + <0|del|b> * <b|delr+rdel|0>
 Rotatory Strengths (R) in cgs (10**-40 erg-esu-cm/Gauss)
       state          XX          YY          ZZ    R(velocity)    E-M Angle
         1         0.0000     -0.0000      0.0000      0.0000       90.00
         2         0.0000      0.0000      0.0000      0.0000       90.00
         3         0.0007     -0.0256      0.0004     -0.0082       90.00
         4        -0.0888     -0.0938      0.1473     -0.0118       90.00
         5        -0.0000     -0.0000     -0.0000     -0.0000       90.00
         6        -0.0004     -0.0025      0.0049      0.0007       90.00
 1/2[<0|r|b>*<b|rxdel|0> + (<0|rxdel|b>*<b|r|0>)*]
 Rotatory Strengths (R) in cgs (10**-40 erg-esu-cm/Gauss)
       state          XX          YY          ZZ     R(length)
         1        -0.0000      0.0000     -0.0000     -0.0000
         2        -0.0000     -0.0000      0.0000     -0.0000
         3        -0.0318     -0.0136      0.0127     -0.0109
         4         0.0955     -0.0463     -0.0895     -0.0134
         5        -0.0000      0.0000     -0.0000     -0.0000
         6         0.0048      0.0015     -0.0046      0.0006
  1/2[<0|del|b>*<b|r|0> + (<0|r|b>*<b|del|0>)*] (Au)
       state          X           Y           Z        Dip. S.   Osc.(frdel)
         1        -0.0000     -0.0000     -0.0000      0.0000      0.0000
         2         0.0000      0.0000      0.0000     -0.0000     -0.0000
         3        -0.0467     -0.0074     -0.0000      0.0540      0.0360
         4        -1.2590     -0.0193     -0.0000      1.2783      0.8522
         5        -0.0000     -0.0000     -0.0000      0.0000      0.0000
         6        -0.0094     -0.0012     -0.0000      0.0107      0.0071

 Excitation energies and oscillator strengths:
 
 Excited State   1:      Triplet-A      0.9184 eV 1349.93 nm  f=0.0000  <S**2>=2.000
      70 -> 71         0.74397
      70 <- 71         0.25921
 This state for optimization and/or second-order correction.
 Total Energy, E(TD-HF/TD-DFT) =  -894.034420588    
 Copying the excited state density for this state as the 1-particle RhoCI density.
 
 Excited State   2:      Triplet-A      2.0419 eV  607.20 nm  f=0.0000  <S**2>=2.000
      69 -> 71         0.69668
 
 Excited State   3:      Singlet-A      2.6902 eV  460.88 nm  f=0.0374  <S**2>=0.000
      69 -> 71         0.67220
      70 -> 71         0.20298
 
 Excited State   4:      Singlet-A      2.9790 eV  416.19 nm  f=0.8845  <S**2>=0.000
      69 -> 71        -0.20171
      70 -> 71         0.68513
      70 <- 71        -0.14727
 
 Excited State   5:      Triplet-A      3.3124 eV  374.31 nm  f=0.0000  <S**2>=2.000
      68 -> 71         0.58834
      70 -> 72         0.36081
 
 Excited State   6:      Singlet-A      4.2979 eV  288.47 nm  f=0.0073  <S**2>=0.000
      68 -> 71         0.56362
      70 -> 72        -0.41931
 SavETr:  write IOETrn=   770 NScale= 10 NData=  16 NLR=1 NState=    6 LETran=     118.

 **********************************************************************

            Population analysis using the SCF Density.

 **********************************************************************

 Orbital symmetries:
       Occupied  (A) (A) (A) (A) (A) (A) (A) (A) (A) (A) (A) (A)
                 (A) (A) (A) (A) (A) (A) (A) (A) (A) (A) (A) (A)
                 (A) (A) (A) (A) (A) (A) (A) (A) (A) (A) (A) (A)
                 (A) (A) (A) (A) (A) (A) (A) (A) (A) (A) (A) (A)
                 (A) (A) (A) (A) (A) (A) (A) (A) (A) (A) (A) (A)
                 (A) (A) (A) (A) (A) (A) (A) (A) (A) (A)
       Virtual   (A) (A) (A) (A) (A) (A) (A) (A) (A) (A) (A) (A)
                 (A) (A) (A) (A) (A) (A) (A) (A) (A) (A) (A) (A)
                 (A) (A) (A) (A) (A) (A) (A) (A) (A) (A) (A) (A)
                 (A) (A) (A) (A) (A) (A) (A) (A) (A) (A) (A) (A)
                 (A) (A) (A) (A) (A) (A) (A) (A) (A) (A) (A) (A)
                 (A) (A) (A) (A) (A) (A) (A) (A) (A) (A) (A) (A)
                 (A) (A) (A) (A) (A) (A) (A) (A) (A) (A) (A) (A)
                 (A) (A) (A) (A) (A) (A) (A) (A) (A) (A) (A) (A)
                 (A) (A) (A) (A) (A) (A) (A) (A) (A) (A) (A) (A)
                 (A) (A) (A) (A) (A) (A) (A) (A) (A) (A) (A) (A)
                 (A) (A) (A) (A) (A) (A) (A) (A) (A) (A) (A) (A)
                 (A) (A) (A) (A) (A) (A) (A) (A) (A) (A) (A) (A)
                 (A) (A) (A) (A) (A) (A) (A) (A) (A) (A) (A) (A)
                 (A) (A) (A) (A) (A) (A) (A) (A) (A) (A) (A) (A)
                 (A) (A) (A) (A) (A) (A) (A) (A) (A) (A) (A) (A)
                 (A) (A) (A) (A) (A) (A) (A) (A) (A) (A) (A) (A)
                 (A) (A) (A) (A) (A) (A) (A) (A) (A) (A) (A) (A)
                 (A) (A) (A) (A) (A) (A) (A) (A) (A) (A) (A) (A)
                 (A) (A) (A) (A) (A) (A) (A) (A) (A) (A) (A) (A)
                 (A) (A) (A) (A) (A) (A) (A) (A) (A) (A) (A) (A)
                 (A) (A) (A) (A) (A) (A) (A) (A) (A) (A) (A) (A)
                 (A) (A) (A) (A) (A) (A) (A) (A) (A) (A) (A) (A)
                 (A) (A) (A) (A) (A) (A) (A) (A) (A) (A) (A) (A)
                 (A) (A) (A) (A) (A) (A) (A) (A) (A) (A) (A) (A)
                 (A) (A) (A) (A) (A) (A) (A) (A) (A) (A) (A) (A)
                 (A) (A) (A) (A) (A) (A) (A) (A) (A) (A) (A) (A)
                 (A) (A) (A) (A) (A) (A) (A) (A) (A) (A) (A) (A)
                 (A) (A) (A) (A) (A) (A) (A) (A) (A) (A) (A) (A)
                 (A) (A) (A) (A) (A) (A) (A) (A) (A) (A) (A) (A)
                 (A) (A) (A) (A) (A) (A) (A) (A) (A) (A) (A) (A)
                 (A) (A) (A) (A) (A) (A) (A) (A)
 The electronic state is 1-A.
 Alpha  occ. eigenvalues --  -19.23784 -19.22421 -14.36723 -14.36160 -14.35016
 Alpha  occ. eigenvalues --  -10.31120 -10.30152 -10.28232 -10.27996 -10.27622
 Alpha  occ. eigenvalues --  -10.27554 -10.26750 -10.26714 -10.25712 -10.25552
 Alpha  occ. eigenvalues --  -10.24767 -10.23393 -10.23218 -10.22842 -10.20179
 Alpha  occ. eigenvalues --   -1.12287  -1.11226  -0.93780  -0.93533  -0.91541
 Alpha  occ. eigenvalues --   -0.90705  -0.86957  -0.82785  -0.80518  -0.78313
 Alpha  occ. eigenvalues --   -0.76446  -0.74102  -0.70674  -0.66887  -0.65489
 Alpha  occ. eigenvalues --   -0.63359  -0.59732  -0.58474  -0.56713  -0.54022
 Alpha  occ. eigenvalues --   -0.53060  -0.51626  -0.50619  -0.50292  -0.48837
 Alpha  occ. eigenvalues --   -0.48223  -0.47382  -0.46903  -0.44317  -0.44146
 Alpha  occ. eigenvalues --   -0.41837  -0.41816  -0.40626  -0.39706  -0.39221
 Alpha  occ. eigenvalues --   -0.39139  -0.38961  -0.38611  -0.38143  -0.37589
 Alpha  occ. eigenvalues --   -0.37451  -0.36696  -0.35727  -0.35457  -0.35417
 Alpha  occ. eigenvalues --   -0.34020  -0.33285  -0.32379  -0.26492  -0.23954
 Alpha virt. eigenvalues --   -0.14190  -0.04782  -0.02096  -0.02013  -0.01418
 Alpha virt. eigenvalues --   -0.00554  -0.00236   0.00538   0.00807   0.01556
 Alpha virt. eigenvalues --    0.01802   0.02344   0.02781   0.03011   0.03782
 Alpha virt. eigenvalues --    0.03997   0.04161   0.04638   0.04698   0.05166
 Alpha virt. eigenvalues --    0.05771   0.06381   0.06677   0.07021   0.07283
 Alpha virt. eigenvalues --    0.07398   0.08044   0.08260   0.08551   0.09333
 Alpha virt. eigenvalues --    0.09631   0.09898   0.10447   0.10679   0.10873
 Alpha virt. eigenvalues --    0.11404   0.11595   0.11632   0.12633   0.12897
 Alpha virt. eigenvalues --    0.13378   0.13433   0.14239   0.14311   0.15156
 Alpha virt. eigenvalues --    0.15418   0.15869   0.16109   0.16191   0.16602
 Alpha virt. eigenvalues --    0.16823   0.16970   0.18141   0.18172   0.18408
 Alpha virt. eigenvalues --    0.18952   0.19794   0.19972   0.20469   0.20845
 Alpha virt. eigenvalues --    0.21564   0.21605   0.21829   0.22522   0.23021
 Alpha virt. eigenvalues --    0.23160   0.23491   0.23897   0.24426   0.24603
 Alpha virt. eigenvalues --    0.25453   0.25755   0.25795   0.26018   0.26337
 Alpha virt. eigenvalues --    0.26577   0.26809   0.26993   0.27053   0.27230
 Alpha virt. eigenvalues --    0.27401   0.27583   0.27913   0.28171   0.28575
 Alpha virt. eigenvalues --    0.29290   0.29989   0.30186   0.30269   0.30386
 Alpha virt. eigenvalues --    0.30984   0.31668   0.32015   0.32472   0.33256
 Alpha virt. eigenvalues --    0.33790   0.34005   0.34717   0.35326   0.35653
 Alpha virt. eigenvalues --    0.36277   0.37802   0.38638   0.41046   0.42075
 Alpha virt. eigenvalues --    0.42580   0.43930   0.45361   0.46533   0.48109
 Alpha virt. eigenvalues --    0.49964   0.54650   0.58185   0.60684   0.61890
 Alpha virt. eigenvalues --    0.63601   0.63805   0.63847   0.64355   0.65995
 Alpha virt. eigenvalues --    0.66014   0.67537   0.67651   0.68235   0.68981
 Alpha virt. eigenvalues --    0.69347   0.71265   0.71642   0.71998   0.72650
 Alpha virt. eigenvalues --    0.72858   0.73005   0.74021   0.75435   0.75916
 Alpha virt. eigenvalues --    0.76965   0.78320   0.78490   0.78946   0.79222
 Alpha virt. eigenvalues --    0.80788   0.81325   0.83356   0.85079   0.86171
 Alpha virt. eigenvalues --    0.86216   0.86356   0.87568   0.88741   0.89328
 Alpha virt. eigenvalues --    0.90398   0.90983   0.93072   0.94501   0.94822
 Alpha virt. eigenvalues --    0.95176   0.96193   0.98066   0.98590   1.00285
 Alpha virt. eigenvalues --    1.00423   1.01819   1.01875   1.02474   1.03214
 Alpha virt. eigenvalues --    1.03916   1.04132   1.05653   1.05948   1.07010
 Alpha virt. eigenvalues --    1.08114   1.08511   1.08946   1.09762   1.11187
 Alpha virt. eigenvalues --    1.11645   1.12689   1.13058   1.14983   1.15650
 Alpha virt. eigenvalues --    1.16264   1.16973   1.17932   1.18960   1.20453
 Alpha virt. eigenvalues --    1.21066   1.22245   1.23498   1.24693   1.25503
 Alpha virt. eigenvalues --    1.25736   1.27500   1.27605   1.28740   1.29789
 Alpha virt. eigenvalues --    1.30270   1.31701   1.32131   1.32546   1.34830
 Alpha virt. eigenvalues --    1.35943   1.37933   1.40421   1.43250   1.43791
 Alpha virt. eigenvalues --    1.44860   1.45937   1.47540   1.48204   1.50418
 Alpha virt. eigenvalues --    1.50982   1.52315   1.52996   1.53327   1.56982
 Alpha virt. eigenvalues --    1.58062   1.60460   1.61555   1.62449   1.62506
 Alpha virt. eigenvalues --    1.65366   1.66372   1.68625   1.68709   1.68913
 Alpha virt. eigenvalues --    1.70064   1.74326   1.74841   1.76010   1.77980
 Alpha virt. eigenvalues --    1.78882   1.81020   1.81842   1.82361   1.83710
 Alpha virt. eigenvalues --    1.83835   1.86259   1.86677   1.88850   1.89449
 Alpha virt. eigenvalues --    1.90415   1.90774   1.91108   1.91795   1.92032
 Alpha virt. eigenvalues --    1.93978   1.94996   1.95866   1.97140   1.97950
 Alpha virt. eigenvalues --    1.98500   1.98545   1.98897   1.99819   1.99964
 Alpha virt. eigenvalues --    2.01889   2.02931   2.03253   2.03267   2.04074
 Alpha virt. eigenvalues --    2.04944   2.06708   2.08658   2.09640   2.10077
 Alpha virt. eigenvalues --    2.10689   2.12603   2.13290   2.13441   2.16661
 Alpha virt. eigenvalues --    2.17567   2.17677   2.18251   2.21923   2.22972
 Alpha virt. eigenvalues --    2.23306   2.23503   2.25287   2.28282   2.29851
 Alpha virt. eigenvalues --    2.31840   2.33199   2.35964   2.37650   2.41576
 Alpha virt. eigenvalues --    2.43239   2.47793   2.49543   2.50199   2.51238
 Alpha virt. eigenvalues --    2.52327   2.54618   2.55020   2.56036   2.57492
 Alpha virt. eigenvalues --    2.59123   2.61914   2.63558   2.64112   2.64955
 Alpha virt. eigenvalues --    2.64981   2.66435   2.69059   2.69114   2.72744
 Alpha virt. eigenvalues --    2.74905   2.75888   2.75910   2.77228   2.79305
 Alpha virt. eigenvalues --    2.80483   2.81759   2.82051   2.82247   2.83274
 Alpha virt. eigenvalues --    2.83782   2.84926   2.86304   2.88675   2.92053
 Alpha virt. eigenvalues --    2.92658   2.97470   3.01406   3.03691   3.06107
 Alpha virt. eigenvalues --    3.07372   3.08865   3.10824   3.12922   3.18839
 Alpha virt. eigenvalues --    3.20438   3.22551   3.23667   3.24064   3.28886
 Alpha virt. eigenvalues --    3.29953   3.34081   3.38436   3.39395   3.39618
 Alpha virt. eigenvalues --    3.39768   3.44439   3.45607   3.47826   3.49424
 Alpha virt. eigenvalues --    3.52627   3.53301   3.64537   4.21416   4.24386
 Alpha virt. eigenvalues --    4.26620   4.28704   4.31511   4.32388   4.34172
 Alpha virt. eigenvalues --    4.36969   4.41337   4.44352   4.47325   4.52141
 Alpha virt. eigenvalues --    4.59077   4.61552   4.63406   4.66776   4.72236
 Alpha virt. eigenvalues --    4.75571   4.81645   5.00419
          Condensed to atoms (all electrons):
               1          2          3          4          5          6
     1  C    6.239259  -0.806713   0.203636  -0.140161  -0.002862   0.079779
     2  C   -0.806713   7.900659  -0.002014   0.031625  -0.039823   0.180350
     3  C    0.203636  -0.002014   9.249691  -1.351357   0.262617   3.904128
     4  C   -0.140161   0.031625  -1.351357  12.273720  -0.338505  -0.830691
     5  N   -0.002862  -0.039823   0.262617  -0.338505   7.310570   0.081722
     6  C    0.079779   0.180350   3.904128  -0.830691   0.081722  12.154849
     7  C   -0.063459  -0.692635  -0.745292   0.347817   0.024224   1.164207
     8  C   -0.021618  -0.149652  -0.819615  -0.236000   0.041028  -0.574705
     9  O   -0.000260  -0.002356  -0.009713  -0.008339   0.000026   0.068291
    10  C    0.000675   0.001018   0.028928   0.029298  -0.001442   0.076717
    11  C   -0.049872  -0.414430  -2.465274  -0.760418   0.030253  -5.921713
    12  C   -0.003109  -0.097328  -0.877450  -0.172109   0.003273  -3.572462
    13  C   -0.001318  -0.015287  -0.121883  -0.037589   0.000527  -0.878452
    14  N    0.000022   0.000306   0.002778   0.000520  -0.000002   0.034823
    15  C    0.000884   0.008818   0.004937  -0.007077  -0.000194  -0.233194
    16  N   -0.000005  -0.000167  -0.001801   0.000101   0.000002  -0.006871
    17  C    0.002301  -0.273913  -0.649411  -0.259106   0.006362  -0.456064
    18  C   -0.145316  -0.169250  -1.009956  -1.786693   0.101534   0.057054
    19  O    0.035599   0.080084  -0.310508  -0.089499   0.000100  -0.186409
    20  C   -0.002313  -0.016947   0.024813  -0.000734   0.000145  -0.047964
    21  H    0.470988  -0.097756  -0.019655   0.018790  -0.000197   0.000020
    22  H    0.492309  -0.142115   0.017087   0.001197  -0.000682   0.002235
    23  H    0.493205  -0.142866   0.017229   0.000984  -0.000690   0.002359
    24  H   -0.000216   0.456050  -0.062106   0.024513  -0.000437  -0.003295
    25  H   -0.000198   0.455941  -0.062173   0.024332  -0.000440  -0.003114
    26  H    0.002787  -0.019318  -0.072780   0.074066  -0.000406  -0.067847
    27  H    0.000023   0.000884   0.013004  -0.001214   0.000117   0.024263
    28  H   -0.000004  -0.000192  -0.005686   0.000615   0.000005  -0.016609
    29  H    0.000023   0.000880   0.012981  -0.001200   0.000115   0.024286
    30  H   -0.000002  -0.001041   0.000277  -0.000537   0.000003   0.025765
    31  H   -0.000146   0.000542   0.023141   0.002099  -0.000001   0.018845
    32  H    0.000119   0.000647  -0.011888  -0.000983   0.000000  -0.020089
    33  H    0.000110   0.000606  -0.011901  -0.000984   0.000000  -0.020162
               7          8          9         10         11         12
     1  C   -0.063459  -0.021618  -0.000260   0.000675  -0.049872  -0.003109
     2  C   -0.692635  -0.149652  -0.002356   0.001018  -0.414430  -0.097328
     3  C   -0.745292  -0.819615  -0.009713   0.028928  -2.465274  -0.877450
     4  C    0.347817  -0.236000  -0.008339   0.029298  -0.760418  -0.172109
     5  N    0.024224   0.041028   0.000026  -0.001442   0.030253   0.003273
     6  C    1.164207  -0.574705   0.068291   0.076717  -5.921713  -3.572462
     7  C    9.054500  -0.362179   0.052815   0.021660  -1.144578  -1.769220
     8  C   -0.362179   8.699571   0.295271  -0.091473   1.013519  -1.348815
     9  O    0.052815   0.295271   8.544356   0.032090  -0.147809  -0.304390
    10  C    0.021660  -0.091473   0.032090   4.992851  -0.139065  -0.061748
    11  C   -1.144578   1.013519  -0.147809  -0.139065  12.101620   4.240056
    12  C   -1.769220  -1.348815  -0.304390  -0.061748   4.240056  12.046982
    13  C   -0.349668  -1.940990  -0.060720  -0.025641  -1.015618  -0.462081
    14  N    0.009353   0.120266   0.000066   0.000590   0.110002   0.156053
    15  C   -0.358508   0.228520  -0.009131   0.059931  -2.032810  -0.835017
    16  N   -0.005689  -0.081531   0.012370  -0.002956   0.135574   0.377436
    17  C    0.950563   0.102789   0.052543  -0.007372   1.160803  -1.396109
    18  C    0.274365   1.170425  -0.006131  -0.030154   0.493266  -0.766774
    19  O    0.033802  -0.013230   0.000331   0.000033   0.047483  -0.013549
    20  C    0.013381  -0.024243  -0.000063  -0.000217   0.018749  -0.000618
    21  H   -0.002652  -0.000011  -0.000000   0.000001  -0.000256  -0.000008
    22  H   -0.002896  -0.000570   0.000000   0.000005  -0.000540  -0.000015
    23  H   -0.002996  -0.000573   0.000000   0.000005  -0.000546  -0.000015
    24  H   -0.031111  -0.002207  -0.000000   0.000019  -0.011174  -0.000820
    25  H   -0.031147  -0.002188  -0.000000   0.000019  -0.011126  -0.000815
    26  H    0.374538  -0.000002  -0.016842   0.007354   0.010325   0.002006
    27  H    0.082909  -0.087663  -0.039063   0.406838  -0.023328  -0.020571
    28  H   -0.103135   0.093810  -0.070826   0.417380   0.018479   0.040087
    29  H    0.082860  -0.087600  -0.039089   0.406854  -0.023346  -0.020576
    30  H    0.001841   0.019209  -0.000743   0.000405  -0.083354  -0.067950
    31  H   -0.003781   0.001306  -0.000000   0.000005  -0.014842  -0.005075
    32  H    0.001382  -0.004203   0.000001  -0.000016   0.019191   0.010769
    33  H    0.001397  -0.004221   0.000001  -0.000016   0.019273   0.010797
              13         14         15         16         17         18
     1  C   -0.001318   0.000022   0.000884  -0.000005   0.002301  -0.145316
     2  C   -0.015287   0.000306   0.008818  -0.000167  -0.273913  -0.169250
     3  C   -0.121883   0.002778   0.004937  -0.001801  -0.649411  -1.009956
     4  C   -0.037589   0.000520  -0.007077   0.000101  -0.259106  -1.786693
     5  N    0.000527  -0.000002  -0.000194   0.000002   0.006362   0.101534
     6  C   -0.878452   0.034823  -0.233194  -0.006871  -0.456064   0.057054
     7  C   -0.349668   0.009353  -0.358508  -0.005689   0.950563   0.274365
     8  C   -1.940990   0.120266   0.228520  -0.081531   0.102789   1.170425
     9  O   -0.060720   0.000066  -0.009131   0.012370   0.052543  -0.006131
    10  C   -0.025641   0.000590   0.059931  -0.002956  -0.007372  -0.030154
    11  C   -1.015618   0.110002  -2.032810   0.135574   1.160803   0.493266
    12  C   -0.462081   0.156053  -0.835017   0.377436  -1.396109  -0.766774
    13  C   12.929138  -0.306921  -1.241018   0.001903   0.341169  -0.368667
    14  N   -0.306921   7.306702   0.001872   0.000534   0.008049   0.038084
    15  C   -1.241018   0.001872  12.408327  -0.289491  -1.607124  -0.156484
    16  N    0.001903   0.000534  -0.289491   7.322704   0.067821  -0.000079
    17  C    0.341169   0.008049  -1.607124   0.067821   8.045947   0.205514
    18  C   -0.368667   0.038084  -0.156484  -0.000079   0.205514   7.735472
    19  O   -0.008316   0.000089  -0.002779   0.000005   0.016178   0.311525
    20  C    0.027443  -0.001359  -0.011613   0.000157  -0.049114  -0.066519
    21  H    0.000001   0.000000  -0.000000  -0.000000  -0.000530  -0.007450
    22  H   -0.000001   0.000000   0.000000  -0.000000  -0.000041  -0.007720
    23  H   -0.000001   0.000000   0.000000  -0.000000  -0.000043  -0.007809
    24  H   -0.000069   0.000000   0.000015  -0.000000  -0.011575  -0.039788
    25  H   -0.000068   0.000000   0.000015  -0.000000  -0.011527  -0.039720
    26  H   -0.000033   0.000002  -0.001514   0.000006   0.000663   0.015124
    27  H   -0.001471   0.000002   0.005049  -0.000379   0.001373  -0.003576
    28  H    0.003175  -0.000004  -0.011530   0.002857  -0.003713   0.001026
    29  H   -0.001473   0.000002   0.005045  -0.000379   0.001373  -0.003582
    30  H    0.068655   0.001438  -0.000946  -0.000031   0.364138  -0.006456
    31  H    0.000076   0.000010  -0.000093  -0.000000  -0.067442   0.057140
    32  H    0.001027   0.000013   0.000284   0.000001   0.053677  -0.058595
    33  H    0.001022   0.000012   0.000283   0.000001   0.053793  -0.058663
              19         20         21         22         23         24
     1  C    0.035599  -0.002313   0.470988   0.492309   0.493205  -0.000216
     2  C    0.080084  -0.016947  -0.097756  -0.142115  -0.142866   0.456050
     3  C   -0.310508   0.024813  -0.019655   0.017087   0.017229  -0.062106
     4  C   -0.089499  -0.000734   0.018790   0.001197   0.000984   0.024513
     5  N    0.000100   0.000145  -0.000197  -0.000682  -0.000690  -0.000437
     6  C   -0.186409  -0.047964   0.000020   0.002235   0.002359  -0.003295
     7  C    0.033802   0.013381  -0.002652  -0.002896  -0.002996  -0.031111
     8  C   -0.013230  -0.024243  -0.000011  -0.000570  -0.000573  -0.002207
     9  O    0.000331  -0.000063  -0.000000   0.000000   0.000000  -0.000000
    10  C    0.000033  -0.000217   0.000001   0.000005   0.000005   0.000019
    11  C    0.047483   0.018749  -0.000256  -0.000540  -0.000546  -0.011174
    12  C   -0.013549  -0.000618  -0.000008  -0.000015  -0.000015  -0.000820
    13  C   -0.008316   0.027443   0.000001  -0.000001  -0.000001  -0.000069
    14  N    0.000089  -0.001359   0.000000   0.000000   0.000000   0.000000
    15  C   -0.002779  -0.011613  -0.000000   0.000000   0.000000   0.000015
    16  N    0.000005   0.000157  -0.000000  -0.000000  -0.000000  -0.000000
    17  C    0.016178  -0.049114  -0.000530  -0.000041  -0.000043  -0.011575
    18  C    0.311525  -0.066519  -0.007450  -0.007720  -0.007809  -0.039788
    19  O    8.617833   0.019308   0.000088   0.000081   0.000081  -0.000602
    20  C    0.019308   4.999797  -0.000076  -0.000033  -0.000034  -0.001902
    21  H    0.000088  -0.000076   0.546900  -0.026448  -0.026454  -0.003424
    22  H    0.000081  -0.000033  -0.026448   0.528653  -0.028852   0.004216
    23  H    0.000081  -0.000034  -0.026454  -0.028852   0.528707  -0.004636
    24  H   -0.000602  -0.001902  -0.003424   0.004216  -0.004636   0.537934
    25  H   -0.000575  -0.001924  -0.003422  -0.004636   0.004216  -0.031562
    26  H   -0.000604   0.000347   0.000000  -0.000001  -0.000001  -0.000009
    27  H    0.000002  -0.000014  -0.000000  -0.000000   0.000000  -0.000000
    28  H   -0.000000   0.000005   0.000000  -0.000000  -0.000000  -0.000000
    29  H    0.000002  -0.000014  -0.000000   0.000000  -0.000000   0.000000
    30  H   -0.018864   0.007235   0.000000  -0.000000  -0.000000   0.000001
    31  H   -0.068690   0.420114   0.000000   0.000000   0.000000   0.000066
    32  H   -0.038457   0.405382   0.000000  -0.000000  -0.000000  -0.000037
    33  H   -0.038484   0.405393   0.000000  -0.000000  -0.000000   0.000002
              25         26         27         28         29         30
     1  C   -0.000198   0.002787   0.000023  -0.000004   0.000023  -0.000002
     2  C    0.455941  -0.019318   0.000884  -0.000192   0.000880  -0.001041
     3  C   -0.062173  -0.072780   0.013004  -0.005686   0.012981   0.000277
     4  C    0.024332   0.074066  -0.001214   0.000615  -0.001200  -0.000537
     5  N   -0.000440  -0.000406   0.000117   0.000005   0.000115   0.000003
     6  C   -0.003114  -0.067847   0.024263  -0.016609   0.024286   0.025765
     7  C   -0.031147   0.374538   0.082909  -0.103135   0.082860   0.001841
     8  C   -0.002188  -0.000002  -0.087663   0.093810  -0.087600   0.019209
     9  O   -0.000000  -0.016842  -0.039063  -0.070826  -0.039089  -0.000743
    10  C    0.000019   0.007354   0.406838   0.417380   0.406854   0.000405
    11  C   -0.011126   0.010325  -0.023328   0.018479  -0.023346  -0.083354
    12  C   -0.000815   0.002006  -0.020571   0.040087  -0.020576  -0.067950
    13  C   -0.000068  -0.000033  -0.001471   0.003175  -0.001473   0.068655
    14  N    0.000000   0.000002   0.000002  -0.000004   0.000002   0.001438
    15  C    0.000015  -0.001514   0.005049  -0.011530   0.005045  -0.000946
    16  N   -0.000000   0.000006  -0.000379   0.002857  -0.000379  -0.000031
    17  C   -0.011527   0.000663   0.001373  -0.003713   0.001373   0.364138
    18  C   -0.039720   0.015124  -0.003576   0.001026  -0.003582  -0.006456
    19  O   -0.000575  -0.000604   0.000002  -0.000000   0.000002  -0.018864
    20  C   -0.001924   0.000347  -0.000014   0.000005  -0.000014   0.007235
    21  H   -0.003422   0.000000  -0.000000   0.000000  -0.000000   0.000000
    22  H   -0.004636  -0.000001  -0.000000  -0.000000   0.000000  -0.000000
    23  H    0.004216  -0.000001   0.000000  -0.000000  -0.000000  -0.000000
    24  H   -0.031562  -0.000009  -0.000000  -0.000000   0.000000   0.000001
    25  H    0.537928  -0.000009   0.000000  -0.000000  -0.000000   0.000001
    26  H   -0.000009   0.545986  -0.000483   0.000121  -0.000481   0.000010
    27  H    0.000000  -0.000483   0.554315  -0.026615  -0.040366  -0.000000
    28  H   -0.000000   0.000121  -0.026615   0.517503  -0.026611  -0.000000
    29  H   -0.000000  -0.000481  -0.040366  -0.026611   0.554360  -0.000000
    30  H    0.000001   0.000010  -0.000000  -0.000000  -0.000000   0.543852
    31  H    0.000065  -0.000000   0.000000  -0.000000   0.000000   0.000199
    32  H    0.000002   0.000000   0.000000   0.000000  -0.000000  -0.000752
    33  H   -0.000037   0.000000  -0.000000   0.000000   0.000000  -0.000753
              31         32         33
     1  C   -0.000146   0.000119   0.000110
     2  C    0.000542   0.000647   0.000606
     3  C    0.023141  -0.011888  -0.011901
     4  C    0.002099  -0.000983  -0.000984
     5  N   -0.000001   0.000000   0.000000
     6  C    0.018845  -0.020089  -0.020162
     7  C   -0.003781   0.001382   0.001397
     8  C    0.001306  -0.004203  -0.004221
     9  O   -0.000000   0.000001   0.000001
    10  C    0.000005  -0.000016  -0.000016
    11  C   -0.014842   0.019191   0.019273
    12  C   -0.005075   0.010769   0.010797
    13  C    0.000076   0.001027   0.001022
    14  N    0.000010   0.000013   0.000012
    15  C   -0.000093   0.000284   0.000283
    16  N   -0.000000   0.000001   0.000001
    17  C   -0.067442   0.053677   0.053793
    18  C    0.057140  -0.058595  -0.058663
    19  O   -0.068690  -0.038457  -0.038484
    20  C    0.420114   0.405382   0.405393
    21  H    0.000000   0.000000   0.000000
    22  H    0.000000  -0.000000  -0.000000
    23  H    0.000000  -0.000000  -0.000000
    24  H    0.000066  -0.000037   0.000002
    25  H    0.000065   0.000002  -0.000037
    26  H   -0.000000   0.000000   0.000000
    27  H    0.000000   0.000000  -0.000000
    28  H   -0.000000   0.000000   0.000000
    29  H    0.000000  -0.000000   0.000000
    30  H    0.000199  -0.000752  -0.000753
    31  H    0.532016  -0.027213  -0.027207
    32  H   -0.027213   0.544583  -0.038221
    33  H   -0.027207  -0.038221   0.544583
 Mulliken charges:
               1
     1  C   -0.784144
     2  C   -0.034611
     3  C    0.845217
     4  C   -0.806481
     5  N   -0.476944
     6  C    0.939949
     7  C   -0.822670
     8  C    0.067577
     9  O   -0.342685
    10  C   -0.122575
    11  C    0.841508
    12  C    0.909165
    13  C   -0.536848
    14  N   -0.483304
    15  C    0.074544
    16  N   -0.532091
    17  C   -0.641971
    18  C    0.278853
    19  O   -0.372055
    20  C   -0.116566
    21  H    0.151552
    22  H    0.168766
    23  H    0.168728
    24  H    0.182153
    25  H    0.182161
    26  H    0.146994
    27  H    0.155967
    28  H    0.169860
    29  H    0.155936
    30  H    0.148402
    31  H    0.158864
    32  H    0.163375
    33  H    0.163374
 Sum of Mulliken charges =  -0.00000
 Mulliken charges with hydrogens summed into heavy atoms:
               1
     1  C   -0.295099
     2  C    0.329703
     3  C    0.845217
     4  C   -0.806481
     5  N   -0.476944
     6  C    0.939949
     7  C   -0.675676
     8  C    0.067577
     9  O   -0.342685
    10  C    0.359188
    11  C    0.841508
    12  C    0.909165
    13  C   -0.536848
    14  N   -0.483304
    15  C    0.074544
    16  N   -0.532091
    17  C   -0.493569
    18  C    0.278853
    19  O   -0.372055
    20  C    0.369047
 Electronic spatial extent (au):  <R**2>=           6358.2222
 Charge=             -0.0000 electrons
 Dipole moment (field-independent basis, Debye):
    X=             -6.5384    Y=              2.4470    Z=              0.0004  Tot=              6.9813
 Quadrupole moment (field-independent basis, Debye-Ang):
   XX=           -157.3909   YY=           -115.4334   ZZ=           -117.1204
   XY=            -20.8813   XZ=             -0.0132   YZ=             -0.0099
 Traceless Quadrupole moment (field-independent basis, Debye-Ang):
   XX=            -27.4093   YY=             14.5481   ZZ=             12.8612
   XY=            -20.8813   XZ=             -0.0132   YZ=             -0.0099
 Octapole moment (field-independent basis, Debye-Ang**2):
  XXX=           -215.6353  YYY=             10.0543  ZZZ=             -0.0020  XYY=            -20.5487
  XXY=             49.8697  XXZ=              0.0058  XZZ=             -4.5434  YZZ=              1.0384
  YYZ=             -0.0006  XYZ=              0.0293
 Hexadecapole moment (field-independent basis, Debye-Ang**3):
 XXXX=          -6979.1889 YYYY=          -2532.8986 ZZZZ=           -154.7190 XXXY=           -215.9394
 XXXZ=             -0.2474 YYYX=           -460.2593 YYYZ=             -0.1665 ZZZX=             -0.0161
 ZZZY=             -0.0246 XXYY=          -1845.2289 XXZZ=          -1018.6720 YYZZ=           -471.3659
 XXYZ=             -0.0780 YYXZ=             -0.0971 ZZXY=            -18.1690
 N-N= 1.413917261876D+03 E-N=-4.903110525845D+03  KE= 8.856823715116D+02
 Unable to Open any file for archive entry.
 1\1\GINC-N2\SP\RB3LYP TD-FC\6-31+G(d,p)\C15H13N3O2\HPCMGAC13\13-Aug-20
 25\0\\# td=(50-50,nstates=3) b3lyp/6-31+g(d,p) geom=connectivity\\Titl
 e Card Required\\0,1\C,0,5.192487,0.206281,-0.002895\C,0,3.758592,0.74
 8507,-0.000374\C,0,2.663404,-0.310783,0.000299\C,0,3.116644,-1.667768,
 0.001014\N,0,3.500765,-2.769445,0.001665\C,0,1.29047,-0.111556,0.00035
 9\C,0,0.387578,-1.244281,0.000441\C,0,-0.969333,-1.120211,0.000102\O,0
 ,-1.836027,-2.150063,-0.000085\C,0,-1.342349,-3.490851,-0.00001\C,0,-1
 .597825,0.199317,-0.000075\C,0,-2.978815,0.389032,-0.000332\C,0,-3.502
 642,1.71978,-0.000391\N,0,-3.904008,2.814277,-0.000358\C,0,-3.980626,-
 0.628641,-0.000535\N,0,-4.880793,-1.368863,-0.000697\C,0,-0.714064,1.3
 30673,0.000145\C,0,0.647736,1.208611,0.000356\O,0,1.485068,2.26757,0.0
 00756\C,0,0.939869,3.591978,0.001153\H,0,5.895075,1.045015,-0.003466\H
 ,0,5.401061,-0.404735,0.880443\H,0,5.398286,-0.403612,-0.88767\H,0,3.6
 07216,1.398147,-0.869366\H,0,3.609728,1.396641,0.870242\H,0,0.830984,-
 2.230488,0.000695\H,0,-0.744553,-3.685313,0.897508\H,0,-2.229243,-4.12
 3409,-0.000669\H,0,-0.74351,-3.684997,-0.896887\H,0,-1.16786,2.311899,
 0.000207\H,0,1.801145,4.259425,0.001616\H,0,0.335618,3.764885,-0.89561
 2\H,0,0.335214,3.764162,0.897784\\Version=ES64L-G16RevC.02\State=1-A\H
 F=-894.0681729\RMSD=8.094e-09\PG=C01 [X(C15H13N3O2)]\\@
 The archive entry for this job was punched.


 BOOKS ARE LIGHTHOUSES ERECTED IN THE GREAT SEA OF TIME.
     -- E.P.WHIPPLE
 Job cpu time:       0 days  1 hours  1 minutes  1.3 seconds.
 Elapsed time:       0 days  0 hours  7 minutes 45.4 seconds.
 File lengths (MBytes):  RWF=   1126 Int=      0 D2E=      0 Chk=     52 Scr=      2
 Normal termination of Gaussian 16 at Wed Aug 13 15:46:44 2025.
