 Entering Gaussian System, Link 0=g16
 Input=M1118E.gjf
 Output=M1118E.log
 Initial command:
 /hpc/softwares/Gaussian/g16/l1.exe "/hpc/home/hpcmgac13/pbs.13269.admin1.x8z/Gau-3062233.inp" -scrdir="/hpc/home/hpcmgac13/pbs.13269.admin1.x8z/"
 Default linda workers: n2
 Default is to use   8 SMP processors on each worker.
 Entering Link 1 = /hpc/softwares/Gaussian/g16/l1.exe PID=   3062234.
  
 Copyright (c) 1988-2021, Gaussian, Inc.  All Rights Reserved.
  
 This is part of the Gaussian(R) 16 program.  It is based on
 the Gaussian(R) 09 system (copyright 2009, Gaussian, Inc.),
 the Gaussian(R) 03 system (copyright 2003, Gaussian, Inc.),
 the Gaussian(R) 98 system (copyright 1998, Gaussian, Inc.),
 the Gaussian(R) 94 system (copyright 1995, Gaussian, Inc.),
 the Gaussian 92(TM) system (copyright 1992, Gaussian, Inc.),
 the Gaussian 90(TM) system (copyright 1990, Gaussian, Inc.),
 the Gaussian 88(TM) system (copyright 1988, Gaussian, Inc.),
 the Gaussian 86(TM) system (copyright 1986, Carnegie Mellon
 University), and the Gaussian 82(TM) system (copyright 1983,
 Carnegie Mellon University). Gaussian is a federally registered
 trademark of Gaussian, Inc.
  
 This software contains proprietary and confidential information,
 including trade secrets, belonging to Gaussian, Inc.
  
 This software is provided under written license and may be
 used, copied, transmitted, or stored only in accord with that
 written license.
  
 The following legend is applicable only to US Government
 contracts under FAR:
  
                    RESTRICTED RIGHTS LEGEND
  
 Use, reproduction and disclosure by the US Government is
 subject to restrictions as set forth in subparagraphs (a)
 and (c) of the Commercial Computer Software - Restricted
 Rights clause in FAR 52.227-19.
  
 Gaussian, Inc.
 340 Quinnipiac St., Bldg. 40, Wallingford CT 06492
  
  
 ---------------------------------------------------------------
 Warning -- This program may not be used in any manner that
 competes with the business of Gaussian, Inc. or will provide
 assistance to any competitor of Gaussian, Inc.  The licensee
 of this program is prohibited from giving any competitor of
 Gaussian, Inc. access to this program.  By using this program,
 the user acknowledges that Gaussian, Inc. is engaged in the
 business of creating and licensing software in the field of
 computational chemistry and represents and warrants to the
 licensee that it is not a competitor of Gaussian, Inc. and that
 it will not use this program in any manner prohibited above.
 ---------------------------------------------------------------
  

 Cite this work as:
 Gaussian 16, Revision C.02,
 M. J. Frisch, G. W. Trucks, H. B. Schlegel, G. E. Scuseria, 
 M. A. Robb, J. R. Cheeseman, G. Scalmani, V. Barone, 
 G. A. Petersson, H. Nakatsuji, X. Li, M. Caricato, A. V. Marenich, 
 J. Bloino, B. G. Janesko, R. Gomperts, B. Mennucci, H. P. Hratchian, 
 J. V. Ortiz, A. F. Izmaylov, J. L. Sonnenberg, D. Williams-Young, 
 F. Ding, F. Lipparini, F. Egidi, J. Goings, B. Peng, A. Petrone, 
 T. Henderson, D. Ranasinghe, V. G. Zakrzewski, J. Gao, N. Rega, 
 G. Zheng, W. Liang, M. Hada, M. Ehara, K. Toyota, R. Fukuda, 
 J. Hasegawa, M. Ishida, T. Nakajima, Y. Honda, O. Kitao, H. Nakai, 
 T. Vreven, K. Throssell, J. A. Montgomery, Jr., J. E. Peralta, 
 F. Ogliaro, M. J. Bearpark, J. J. Heyd, E. N. Brothers, K. N. Kudin, 
 V. N. Staroverov, T. A. Keith, R. Kobayashi, J. Normand, 
 K. Raghavachari, A. P. Rendell, J. C. Burant, S. S. Iyengar, 
 J. Tomasi, M. Cossi, J. M. Millam, M. Klene, C. Adamo, R. Cammi, 
 J. W. Ochterski, R. L. Martin, K. Morokuma, O. Farkas, 
 J. B. Foresman, and D. J. Fox, Gaussian, Inc., Wallingford CT, 2019.
 
 ******************************************
 Gaussian 16:  ES64L-G16RevC.02  7-Dec-2021
                13-Aug-2025 
 ******************************************
 SetLPE:    new flags="-opt 'Tsnet.Node.lindarsharg: ssh'  -nodelist 'n2.head.cm.mguif.local' -env GAUSS_MDEF=2147483648 -env GAUSS_EXEDIR="/hpc/softwares/Gaussian/g16/bsd:/hpc/softwares/Gaussian/g16""
 Will use up to    1 processors via Linda.
 ----------------------------------------------------------
 # td=(50-50,nstates=3) b3lyp/6-31+g(d,p) geom=connectivity
 ----------------------------------------------------------
 1/38=1,57=2,172=1/1;
 2/12=2,17=6,18=5,40=1/2;
 3/5=1,6=6,7=111,11=9,25=1,30=1,74=-5/1,2,3,8;
 4//1;
 5/5=2,38=5/2;
 8/6=1,10=2,108=3/1;
 9/41=3,42=1,48=2,70=2/14;
 6/7=2,8=2,9=2,10=2/1;
 99/5=1,9=1/99;
 -------------------
 Title Card Required
 -------------------
 Symbolic Z-matrix:
 Charge =  0 Multiplicity = 1
 C                    -3.37255  -3.38905   0.30437 
 C                    -2.77348  -2.01118   0.15717 
 C                    -3.59607  -0.87997   0.04619 
 C                    -3.0429    0.39036  -0.07798 
 C                    -1.65416   0.54944  -0.07055 
 S                    -1.05277   2.23917  -0.2321 
 O                    -2.07186   3.01813  -0.95002 
 O                    -0.51542   2.71379   1.05308 
 C                    -0.7919   -0.55733   0.04129 
 C                     0.69985  -0.4712    0.01999 
 C                     1.41488  -1.1729   -0.96828 
 C                     2.80617  -1.15923  -0.9925 
 C                     3.51393  -0.43998  -0.01403 
 C                     4.94911  -0.42601  -0.03045 
 N                     6.11277  -0.41813  -0.04589 
 C                     2.81073   0.26107   0.97954 
 C                     1.41765   0.24478   0.99389 
 C                    -1.38622  -1.82713   0.13962 
 H                    -4.17119  -3.5538   -0.42631 
 H                    -2.62055  -4.17095   0.16983 
 H                    -3.81253  -3.51701   1.30063 
 H                    -4.67656  -0.99463   0.04327 
 H                    -3.67545   1.26268  -0.20486 
 H                     0.0126    2.0587   -1.07409 
 H                     0.87236  -1.72447  -1.73008 
 H                     3.34774  -1.69755  -1.76305 
 H                     3.35604   0.8131    1.73754 
 H                     0.88573   0.7918    1.76329 
 H                    -0.73519  -2.69299   0.22447 
 
                          Input orientation:                          
 ---------------------------------------------------------------------
 Center     Atomic      Atomic             Coordinates (Angstroms)
 Number     Number       Type             X           Y           Z
 ---------------------------------------------------------------------
      1          6           0       -3.372547   -3.389046    0.304374
      2          6           0       -2.773483   -2.011177    0.157171
      3          6           0       -3.596067   -0.879970    0.046185
      4          6           0       -3.042902    0.390359   -0.077977
      5          6           0       -1.654156    0.549435   -0.070549
      6         16           0       -1.052772    2.239165   -0.232099
      7          8           0       -2.071856    3.018126   -0.950018
      8          8           0       -0.515419    2.713794    1.053080
      9          6           0       -0.791898   -0.557326    0.041287
     10          6           0        0.699847   -0.471197    0.019994
     11          6           0        1.414878   -1.172904   -0.968281
     12          6           0        2.806167   -1.159234   -0.992495
     13          6           0        3.513926   -0.439980   -0.014029
     14          6           0        4.949108   -0.426007   -0.030449
     15          7           0        6.112769   -0.418131   -0.045894
     16          6           0        2.810729    0.261069    0.979539
     17          6           0        1.417650    0.244778    0.993891
     18          6           0       -1.386220   -1.827125    0.139622
     19          1           0       -4.171195   -3.553803   -0.426305
     20          1           0       -2.620554   -4.170950    0.169831
     21          1           0       -3.812527   -3.517010    1.300625
     22          1           0       -4.676564   -0.994631    0.043265
     23          1           0       -3.675453    1.262677   -0.204855
     24          1           0        0.012601    2.058696   -1.074086
     25          1           0        0.872361   -1.724467   -1.730076
     26          1           0        3.347737   -1.697552   -1.763052
     27          1           0        3.356038    0.813100    1.737536
     28          1           0        0.885733    0.791799    1.763292
     29          1           0       -0.735189   -2.692994    0.224472
 ---------------------------------------------------------------------
                    Distance matrix (angstroms):
                    1          2          3          4          5
     1  C    0.000000
     2  C    1.509659   0.000000
     3  C    2.532210   1.403065   0.000000
     4  C    3.812973   2.428015   1.391094   0.000000
     5  C    4.313359   2.803834   2.414093   1.397847   0.000000
     6  S    6.111131   4.601933   4.034203   2.720745   1.800819
     7  O    6.657113   5.197311   4.302417   2.934032   2.653747
     8  O    6.780000   5.312895   4.839356   3.614666   2.691415
     9  C    3.840261   2.460445   2.822674   2.445271   1.407450
    10  C    5.017879   3.801891   4.315398   3.841881   2.567337
    11  C    5.426820   4.417206   5.120988   4.807103   3.631989
    12  C    6.695554   5.760211   6.491952   6.119574   4.864567
    13  C    7.498125   6.483015   7.123848   6.609504   5.262244
    14  C    8.839776   7.885834   8.557568   8.033737   6.675042
    15  N    9.945866   9.030200   9.720251   9.191354   7.826999
    16  C    7.211941   6.084638   6.574204   5.949794   4.595763
    17  C    6.051950   4.832704   5.224994   4.589839   3.265247
    18  C    2.532239   1.399529   2.406087   2.776541   2.400833
    19  H    1.094932   2.161883   2.775500   4.117134   4.826863
    20  H    1.093146   2.165218   3.434744   4.587519   4.824287
    21  H    1.096573   2.157460   2.928217   4.214309   4.803609
    22  H    2.738953   2.160569   1.086568   2.145169   3.395886
    23  H    4.689306   3.415074   2.158763   1.084969   2.147648
    24  H    6.560280   5.083515   4.786779   3.621005   2.462323
    25  H    4.992900   4.115347   4.882123   4.746705   3.782585
    26  H    7.231709   6.423002   7.222063   6.931026   5.738680
    27  H    8.061380   6.931459   7.352477   6.664925   5.332986
    28  H    6.143359   4.881205   5.082303   4.357247   3.142093
    29  H    2.728833   2.150360   3.391676   3.863170   3.383029
                    6          7          8          9         10
     6  S    0.000000
     7  O    1.469939   0.000000
     8  O    1.471634   2.554900   0.000000
     9  C    2.821907   3.924899   3.435170   0.000000
    10  C    3.237481   4.560552   3.562065   1.494381   0.000000
    11  C    4.274749   5.451824   4.787313   2.503602   1.407249
    12  C    5.197954   6.422402   5.497059   3.791711   2.436209
    13  C    5.299066   6.635927   5.226914   4.307778   2.814458
    14  C    6.570112   7.874109   6.394798   5.742956   4.249801
    15  N    7.644663   8.922634   7.412798   6.906620   5.413583
    16  C    4.506392   5.929940   4.133344   3.811694   2.431617
    17  C    3.403471   4.862807   3.136287   2.536322   1.405822
    18  C    4.096838   5.013369   4.713029   1.405446   2.490889
    19  H    6.581851   6.918941   7.405137   4.540613   5.781755
    20  H    6.611283   7.296434   7.253373   4.052010   4.973498
    21  H    6.564986   7.127646   7.053731   4.412467   5.592720
    22  H    4.864682   4.886035   5.664563   3.909203   5.401881
    23  H    2.798701   2.491665   3.697831   3.418755   4.711701
    24  H    1.369865   2.298012   2.287530   2.955477   2.840718
    25  H    4.654079   5.636408   5.419414   2.696239   2.159442
    26  H    6.099675   7.229843   6.504963   4.657503   3.419725
    27  H    5.034951   6.445706   4.366841   4.686225   3.413901
    28  H    3.135962   4.589762   2.482276   2.756789   2.160741
    29  H    4.963417   5.981889   5.474326   2.144260   2.652833
                   11         12         13         14         15
    11  C    0.000000
    12  C    1.391567   0.000000
    13  C    2.419458   1.405576   0.000000
    14  C    3.732046   2.460762   1.435344   0.000000
    15  N    4.846716   3.518367   2.599130   1.163790   0.000000
    16  C    2.792612   2.430267   1.404683   2.462684   3.523676
    17  C    2.420733   2.800885   2.424700   3.737703   4.854353
    18  C    3.082467   4.393618   5.095018   6.490642   7.632465
    19  H    6.096444   7.398521   8.302226   9.649857  10.758116
    20  H    5.154444   6.314328   7.182325   8.447751   9.507950
    21  H    6.161861   7.390847   8.054399   9.385750  10.484639
    22  H    6.177432   7.555869   8.209449   9.642734  10.805092
    23  H    5.694413   6.964009   7.390712   8.790058   9.932758
    24  H    3.524318   4.262129   4.430167   5.624236   6.663625
    25  H    1.085762   2.145488   3.401851   4.603759   5.657284
    26  H    2.154730   1.084824   2.160599   2.680136   3.497278
    27  H    3.877339   3.412555   2.159425   2.683101   3.506582
    28  H    3.406104   3.884451   3.403461   4.605603   5.662066
    29  H    2.890696   4.046558   4.815385   6.124985   7.220985
                   16         17         18         19         20
    16  C    0.000000
    17  C    1.393248   0.000000
    18  C    4.762394   3.589463   0.000000
    19  H    8.079413   6.905169   3.325323   0.000000
    20  H    7.056717   6.040267   2.649152   1.772212   0.000000
    21  H    7.631808   6.449797   3.176571   1.764167   1.768370
    22  H    7.649376   6.291206   3.395393   2.650520   3.785789
    23  H    6.669075   5.330367   3.860846   4.846987   5.547748
    24  H    3.908754   3.088849   4.304578   7.030214   6.876723
    25  H    3.878355   3.405182   2.933854   5.521209   4.668552
    26  H    3.412679   3.885694   5.103656   7.859192   6.743458
    27  H    1.084739   2.152521   5.658015   8.967234   7.938394
    28  H    2.145123   1.083580   3.828425   7.017914   6.281882
    29  H    4.676553   3.722529   1.086632   3.601477   2.396235
                   21         22         23         24         25
    21  H    0.000000
    22  H    2.947865   0.000000
    23  H    5.013050   2.481779   0.000000
    24  H    7.166544   5.706097   3.871815   0.000000
    25  H    5.860592   5.870943   5.650835   3.934696   0.000000
    26  H    7.997870   8.255076   7.779211   5.070227   2.475742
    27  H    8.386243   8.406018   7.308684   4.542609   4.963087
    28  H    6.391678   6.090072   4.989965   3.227708   4.305275
    29  H    3.362606   4.295545   4.947404   4.982369   2.709708
                   26         27         28         29
    26  H    0.000000
    27  H    4.307849   0.000000
    28  H    4.969249   2.470531   0.000000
    29  H    4.648811   5.596445   4.139944   0.000000
 Stoichiometry    C14H11NO2S
 Framework group  C1[X(C14H11NO2S)]
 Deg. of freedom    81
 Full point group                 C1      NOp   1
 Largest Abelian subgroup         C1      NOp   1
 Largest concise Abelian subgroup C1      NOp   1
                         Standard orientation:                         
 ---------------------------------------------------------------------
 Center     Atomic      Atomic             Coordinates (Angstroms)
 Number     Number       Type             X           Y           Z
 ---------------------------------------------------------------------
      1          6           0       -3.372547   -3.389046    0.304374
      2          6           0       -2.773483   -2.011177    0.157171
      3          6           0       -3.596067   -0.879970    0.046185
      4          6           0       -3.042902    0.390359   -0.077977
      5          6           0       -1.654156    0.549435   -0.070549
      6         16           0       -1.052772    2.239165   -0.232099
      7          8           0       -2.071856    3.018126   -0.950018
      8          8           0       -0.515419    2.713794    1.053080
      9          6           0       -0.791898   -0.557326    0.041287
     10          6           0        0.699847   -0.471197    0.019994
     11          6           0        1.414878   -1.172904   -0.968281
     12          6           0        2.806167   -1.159234   -0.992495
     13          6           0        3.513926   -0.439980   -0.014029
     14          6           0        4.949108   -0.426007   -0.030449
     15          7           0        6.112769   -0.418131   -0.045894
     16          6           0        2.810729    0.261069    0.979539
     17          6           0        1.417650    0.244778    0.993891
     18          6           0       -1.386220   -1.827125    0.139622
     19          1           0       -4.171195   -3.553803   -0.426305
     20          1           0       -2.620554   -4.170950    0.169831
     21          1           0       -3.812527   -3.517010    1.300625
     22          1           0       -4.676564   -0.994631    0.043265
     23          1           0       -3.675453    1.262677   -0.204855
     24          1           0        0.012601    2.058696   -1.074086
     25          1           0        0.872361   -1.724467   -1.730076
     26          1           0        3.347737   -1.697552   -1.763052
     27          1           0        3.356038    0.813100    1.737536
     28          1           0        0.885733    0.791799    1.763292
     29          1           0       -0.735189   -2.692994    0.224472
 ---------------------------------------------------------------------
 Rotational constants (GHZ):           0.5792765           0.2437441           0.1837446
 Standard basis: 6-31+G(d,p) (6D, 7F)
 There are   401 symmetry adapted cartesian basis functions of A   symmetry.
 There are   401 symmetry adapted basis functions of A   symmetry.
   401 basis functions,   677 primitive gaussians,   401 cartesian basis functions
    67 alpha electrons       67 beta electrons
       nuclear repulsion energy      1332.3841360608 Hartrees.
 NAtoms=   29 NActive=   29 NUniq=   29 SFac= 1.00D+00 NAtFMM=   60 NAOKFM=F Big=F
 Integral buffers will be    131072 words long.
 Regular integral format.
 Two-electron integral symmetry is turned on.
 One-electron integrals computed using PRISM.
 NBasis=   401 RedAO= T EigKep=  1.40D-06  NBF=   401
 NBsUse=   399 1.00D-06 EigRej=  7.58D-07 NBFU=   399
 ExpMin= 4.05D-02 ExpMax= 2.19D+04 ExpMxC= 3.30D+03 IAcc=3 IRadAn=         5 AccDes= 0.00D+00
 Harris functional with IExCor=  402 and IRadAn=       5 diagonalized for initial guess.
 HarFok:  IExCor=  402 AccDes= 0.00D+00 IRadAn=         5 IDoV= 1 UseB2=F ITyADJ=14
 ICtDFT=  3500011 ScaDFX=  1.000000  1.000000  1.000000  1.000000
 FoFCou: FMM=F IPFlag=           0 FMFlag=      100000 FMFlg1=           0
         NFxFlg=           0 DoJE=T BraDBF=F KetDBF=T FulRan=T
         wScrn=  0.000000 ICntrl=       500 IOpCl=  0 I1Cent=   200000004 NGrid=           0
         NMat0=    1 NMatS0=      1 NMatT0=    0 NMatD0=    1 NMtDS0=    0 NMtDT0=    0
 Petite list used in FoFCou.
 Requested convergence on RMS density matrix=1.00D-08 within 128 cycles.
 Requested convergence on MAX density matrix=1.00D-06.
 Requested convergence on             energy=1.00D-06.
 No special actions if energy rises.
 SCF Done:  E(RB3LYP) =  -1143.46214817     A.U. after   18 cycles
            NFock= 18  Conv=0.21D-08     -V/T= 2.0076
 DoSCS=F DFT=T ScalE2(SS,OS)=  1.000000  1.000000
 ExpMin= 4.05D-02 ExpMax= 2.19D+04 ExpMxC= 3.30D+03 IAcc=3 IRadAn=         5 AccDes= 0.00D+00
 HarFok:  IExCor=  205 AccDes= 0.00D+00 IRadAn=         5 IDoV=-2 UseB2=F ITyADJ=14
 ICtDFT= 12500011 ScaDFX=  1.000000  1.000000  1.000000  1.000000
 GSVD:  LWork=        -660 too small for GESVD, short by        2750 words or        2750 for optimal perf.
 Range of M.O.s used for correlation:    23   399
 NBasis=   401 NAE=    67 NBE=    67 NFC=    22 NFV=     0
 NROrb=    377 NOA=    45 NOB=    45 NVA=   332 NVB=   332

 **** Warning!!: The largest alpha MO coefficient is  0.15134324D+03

 Orbital symmetries:
       Occupied  (A) (A) (A) (A) (A) (A) (A) (A) (A) (A) (A) (A)
                 (A) (A) (A) (A) (A) (A) (A) (A) (A) (A) (A) (A)
                 (A) (A) (A) (A) (A) (A) (A) (A) (A) (A) (A) (A)
                 (A) (A) (A) (A) (A) (A) (A) (A) (A) (A) (A) (A)
                 (A) (A) (A) (A) (A) (A) (A) (A) (A) (A) (A) (A)
                 (A) (A) (A) (A) (A) (A) (A)
       Virtual   (A) (A) (A) (A) (A) (A) (A) (A) (A) (A) (A) (A)
                 (A) (A) (A) (A) (A) (A) (A) (A) (A) (A) (A) (A)
                 (A) (A) (A) (A) (A) (A) (A) (A) (A) (A) (A) (A)
                 (A) (A) (A) (A) (A) (A) (A) (A) (A) (A) (A) (A)
                 (A) (A) (A) (A) (A) (A) (A) (A) (A) (A) (A) (A)
                 (A) (A) (A) (A) (A) (A) (A) (A) (A) (A) (A) (A)
                 (A) (A) (A) (A) (A) (A) (A) (A) (A) (A) (A) (A)
                 (A) (A) (A) (A) (A) (A) (A) (A) (A) (A) (A) (A)
                 (A) (A) (A) (A) (A) (A) (A) (A) (A) (A) (A) (A)
                 (A) (A) (A) (A) (A) (A) (A) (A) (A) (A) (A) (A)
                 (A) (A) (A) (A) (A) (A) (A) (A) (A) (A) (A) (A)
                 (A) (A) (A) (A) (A) (A) (A) (A) (A) (A) (A) (A)
                 (A) (A) (A) (A) (A) (A) (A) (A) (A) (A) (A) (A)
                 (A) (A) (A) (A) (A) (A) (A) (A) (A) (A) (A) (A)
                 (A) (A) (A) (A) (A) (A) (A) (A) (A) (A) (A) (A)
                 (A) (A) (A) (A) (A) (A) (A) (A) (A) (A) (A) (A)
                 (A) (A) (A) (A) (A) (A) (A) (A) (A) (A) (A) (A)
                 (A) (A) (A) (A) (A) (A) (A) (A) (A) (A) (A) (A)
                 (A) (A) (A) (A) (A) (A) (A) (A) (A) (A) (A) (A)
                 (A) (A) (A) (A) (A) (A) (A) (A) (A) (A) (A) (A)
                 (A) (A) (A) (A) (A) (A) (A) (A) (A) (A) (A) (A)
                 (A) (A) (A) (A) (A) (A) (A) (A) (A) (A) (A) (A)
                 (A) (A) (A) (A) (A) (A) (A) (A) (A) (A) (A) (A)
                 (A) (A) (A) (A) (A) (A) (A) (A) (A) (A) (A) (A)
                 (A) (A) (A) (A) (A) (A) (A) (A) (A) (A) (A) (A)
                 (A) (A) (A) (A) (A) (A) (A) (A) (A) (A) (A) (A)
                 (A) (A) (A) (A) (A) (A) (A) (A) (A) (A) (A) (A)
                 (A) (A) (A) (A) (A) (A) (A) (A)
    24 initial guesses have been made.
 Convergence on wavefunction:    0.001000000000000
 Iteration     1 Dimension    24 NMult     0 NNew     24
 CISAX will form    24 AO SS matrices at one time.
 New state      1 was old state      2
 New state      2 was old state      4
 New state      3 was old state      6
 New state      4 was old state     10
 New state      5 was old state      8
 New state      6 was old state      3
 New state      7 was old state     14
 New state      8 was old state     12
 New state      9 was old state      1
 New state     10 was old state      5
 New state     11 was old state     16
 New state     12 was old state      9
 Vector   4 SDiff=2.66D+00 TDiff=5.74D+00 assumed to be singlet.
 Vector   5 SDiff=1.47D+00 TDiff=1.16D+01 assumed to be singlet.
 Vector  10 SDiff=2.75D+00 TDiff=5.23D+00 assumed to be singlet.
 Vector  11 SDiff=1.43D+00 TDiff=9.62D+00 assumed to be singlet.
 Iteration     2 Dimension    36 NMult    24 NNew     12
 New state      4 was old state      9
 New state      5 was old state      6
 New state      6 was old state     10
 Iteration     3 Dimension    48 NMult    36 NNew     12
 Iteration     4 Dimension    60 NMult    48 NNew     12
 Iteration     5 Dimension    72 NMult    60 NNew     12
 Iteration     6 Dimension    84 NMult    72 NNew     12
 Iteration     7 Dimension    88 NMult    84 NNew      4
 ***********************************************************************
 Excited states from <AA,BB:AA,BB> singles matrix:
 ***********************************************************************
 
 Ground to excited state transition densities written to RWF  633
 Ground to excited state transition electric dipole moments (Au):
       state          X           Y           Z        Dip. S.      Osc.
         1         0.0000      0.0000      0.0000      0.0000      0.0000
         2        -0.0000      0.0000      0.0000      0.0000      0.0000
         3         0.0000     -0.0000     -0.0000      0.0000      0.0000
         4         1.8368     -0.1791      0.0370      3.4073      0.3894
         5        -0.1756      0.2687      0.0183      0.1034      0.0120
         6        -0.5287     -0.0434      0.2075      0.3245      0.0388
 Ground to excited state transition velocity dipole moments (Au):
       state          X           Y           Z        Dip. S.      Osc.
         1         0.0000      0.0000      0.0000      0.0000      0.0000
         2        -0.0000      0.0000     -0.0000      0.0000      0.0000
         3         0.0000      0.0000      0.0000      0.0000      0.0000
         4        -0.3085      0.0293     -0.0063      0.0961      0.3737
         5         0.0295     -0.0474     -0.0038      0.0031      0.0120
         6         0.0931      0.0068     -0.0353      0.0100      0.0371
 Ground to excited state transition magnetic dipole moments (Au):
       state          X           Y           Z
         1         0.0000     -0.0000      0.0000
         2        -0.0000     -0.0000     -0.0000
         3         0.0000     -0.0000      0.0000
         4         0.1579      0.0067     -0.5677
         5        -0.0487      0.0062      0.1204
         6        -0.0066      0.0864     -0.0360
 Ground to excited state transition velocity quadrupole moments (Au):
       state          XX          YY          ZZ          XY          XZ          YZ
         1        -0.0000      0.0000      0.0000      0.0000      0.0000      0.0000
         2        -0.0000     -0.0000     -0.0000     -0.0000     -0.0000     -0.0000
         3        -0.0000      0.0000     -0.0000      0.0000      0.0000      0.0000
         4        -1.2973      0.2881     -0.0001      0.1831     -0.0172     -0.0232
         5         0.3602      0.0339     -0.0048      0.0831     -0.0597     -0.0090
         6         0.3397     -0.0475     -0.0178     -0.3051     -0.1413      0.0440
 <0|del|b> * <b|rxdel|0> + <0|del|b> * <b|delr+rdel|0>
 Rotatory Strengths (R) in cgs (10**-40 erg-esu-cm/Gauss)
       state          XX          YY          ZZ    R(velocity)    E-M Angle
         1         0.0000      0.0000     -0.0000      0.0000       90.00
         2         0.0000      0.0000     -0.0000      0.0000       90.00
         3         0.0000      0.0000      0.0000      0.0000       90.00
         4         6.4309    -75.9782   -115.8684    -61.8052      104.24
         5        -7.8986     -3.7425      2.7643     -2.9590      107.48
         6        26.8003    -11.8517    -10.0348      1.6380       82.36
 1/2[<0|r|b>*<b|rxdel|0> + (<0|rxdel|b>*<b|r|0>)*]
 Rotatory Strengths (R) in cgs (10**-40 erg-esu-cm/Gauss)
       state          XX          YY          ZZ     R(length)
         1        -0.0000      0.0000     -0.0000     -0.0000
         2        -0.0000      0.0000      0.0000     -0.0000
         3        -0.0000     -0.0000      0.0000     -0.0000
         4      -205.0913      0.8520     14.8419    -63.1325
         5        -6.0457     -1.1800     -1.5567     -2.9275
         6        -2.4538      2.6546      5.2766      1.8258
  1/2[<0|del|b>*<b|r|0> + (<0|r|b>*<b|del|0>)*] (Au)
       state          X           Y           Z        Dip. S.   Osc.(frdel)
         1         0.0000      0.0000      0.0000     -0.0000     -0.0000
         2         0.0000      0.0000     -0.0000     -0.0000     -0.0000
         3         0.0000     -0.0000     -0.0000     -0.0000     -0.0000
         4        -0.5667     -0.0052     -0.0002      0.5722      0.3815
         5        -0.0052     -0.0127     -0.0001      0.0180      0.0120
         6        -0.0492     -0.0003     -0.0073      0.0569      0.0379

 Excitation energies and oscillator strengths:
 
 Excited State   1:      Triplet-A      3.2342 eV  383.35 nm  f=0.0000  <S**2>=2.000
      64 -> 68         0.14035
      64 -> 71        -0.13850
      65 -> 70         0.19219
      66 -> 69         0.15431
      67 -> 68         0.58923
 This state for optimization and/or second-order correction.
 Total Energy, E(TD-HF/TD-DFT) =  -1143.34329377    
 Copying the excited state density for this state as the 1-particle RhoCI density.
 
 Excited State   2:      Triplet-A      3.6110 eV  343.35 nm  f=0.0000  <S**2>=2.000
      64 -> 68        -0.30917
      64 -> 71        -0.13765
      65 -> 70        -0.10589
      66 -> 68        -0.22808
      66 -> 69         0.33002
      66 -> 71         0.15773
      67 -> 69        -0.19003
      67 -> 70         0.21685
      67 -> 71         0.21279
 
 Excited State   3:      Triplet-A      4.1791 eV  296.68 nm  f=0.0000  <S**2>=2.000
      65 -> 68         0.60630
      65 -> 70        -0.15871
      66 -> 68         0.19677
      67 -> 69         0.14640
      67 -> 70         0.13503
 
 Excited State   4:      Singlet-A      4.6651 eV  265.77 nm  f=0.3894  <S**2>=0.000
      65 -> 68         0.11898
      67 -> 68         0.65984
      67 -> 69        -0.12892
 
 Excited State   5:      Singlet-A      4.7386 eV  261.65 nm  f=0.0120  <S**2>=0.000
      65 -> 68         0.13921
      66 -> 68         0.55299
      67 -> 68        -0.16937
      67 -> 69        -0.34200
 
 Excited State   6:      Singlet-A      4.8765 eV  254.25 nm  f=0.0388  <S**2>=0.000
      64 -> 68         0.11468
      65 -> 68         0.51631
      66 -> 68        -0.22859
      67 -> 69        -0.10570
      67 -> 70        -0.28969
      67 -> 71         0.17674
 SavETr:  write IOETrn=   770 NScale= 10 NData=  16 NLR=1 NState=    6 LETran=     118.

 **********************************************************************

            Population analysis using the SCF Density.

 **********************************************************************

 Orbital symmetries:
       Occupied  (A) (A) (A) (A) (A) (A) (A) (A) (A) (A) (A) (A)
                 (A) (A) (A) (A) (A) (A) (A) (A) (A) (A) (A) (A)
                 (A) (A) (A) (A) (A) (A) (A) (A) (A) (A) (A) (A)
                 (A) (A) (A) (A) (A) (A) (A) (A) (A) (A) (A) (A)
                 (A) (A) (A) (A) (A) (A) (A) (A) (A) (A) (A) (A)
                 (A) (A) (A) (A) (A) (A) (A)
       Virtual   (A) (A) (A) (A) (A) (A) (A) (A) (A) (A) (A) (A)
                 (A) (A) (A) (A) (A) (A) (A) (A) (A) (A) (A) (A)
                 (A) (A) (A) (A) (A) (A) (A) (A) (A) (A) (A) (A)
                 (A) (A) (A) (A) (A) (A) (A) (A) (A) (A) (A) (A)
                 (A) (A) (A) (A) (A) (A) (A) (A) (A) (A) (A) (A)
                 (A) (A) (A) (A) (A) (A) (A) (A) (A) (A) (A) (A)
                 (A) (A) (A) (A) (A) (A) (A) (A) (A) (A) (A) (A)
                 (A) (A) (A) (A) (A) (A) (A) (A) (A) (A) (A) (A)
                 (A) (A) (A) (A) (A) (A) (A) (A) (A) (A) (A) (A)
                 (A) (A) (A) (A) (A) (A) (A) (A) (A) (A) (A) (A)
                 (A) (A) (A) (A) (A) (A) (A) (A) (A) (A) (A) (A)
                 (A) (A) (A) (A) (A) (A) (A) (A) (A) (A) (A) (A)
                 (A) (A) (A) (A) (A) (A) (A) (A) (A) (A) (A) (A)
                 (A) (A) (A) (A) (A) (A) (A) (A) (A) (A) (A) (A)
                 (A) (A) (A) (A) (A) (A) (A) (A) (A) (A) (A) (A)
                 (A) (A) (A) (A) (A) (A) (A) (A) (A) (A) (A) (A)
                 (A) (A) (A) (A) (A) (A) (A) (A) (A) (A) (A) (A)
                 (A) (A) (A) (A) (A) (A) (A) (A) (A) (A) (A) (A)
                 (A) (A) (A) (A) (A) (A) (A) (A) (A) (A) (A) (A)
                 (A) (A) (A) (A) (A) (A) (A) (A) (A) (A) (A) (A)
                 (A) (A) (A) (A) (A) (A) (A) (A) (A) (A) (A) (A)
                 (A) (A) (A) (A) (A) (A) (A) (A) (A) (A) (A) (A)
                 (A) (A) (A) (A) (A) (A) (A) (A) (A) (A) (A) (A)
                 (A) (A) (A) (A) (A) (A) (A) (A) (A) (A) (A) (A)
                 (A) (A) (A) (A) (A) (A) (A) (A) (A) (A) (A) (A)
                 (A) (A) (A) (A) (A) (A) (A) (A) (A) (A) (A) (A)
                 (A) (A) (A) (A) (A) (A) (A) (A) (A) (A) (A) (A)
                 (A) (A) (A) (A) (A) (A) (A) (A)
 The electronic state is 1-A.
 Alpha  occ. eigenvalues --  -89.12162 -19.16824 -19.16775 -14.35655 -10.26202
 Alpha  occ. eigenvalues --  -10.25500 -10.25432 -10.24936 -10.24763 -10.24273
 Alpha  occ. eigenvalues --  -10.24054 -10.23846 -10.23605 -10.23584 -10.23107
 Alpha  occ. eigenvalues --  -10.23039 -10.22804 -10.21530  -8.15027  -6.11449
 Alpha  occ. eigenvalues --   -6.11389  -6.11370  -1.12247  -1.02045  -0.92724
 Alpha  occ. eigenvalues --   -0.91395  -0.89382  -0.83393  -0.81581  -0.79067
 Alpha  occ. eigenvalues --   -0.77593  -0.74801  -0.69371  -0.68337  -0.65414
 Alpha  occ. eigenvalues --   -0.63717  -0.61331  -0.58344  -0.56794  -0.52780
 Alpha  occ. eigenvalues --   -0.51652  -0.50932  -0.49672  -0.47952  -0.47483
 Alpha  occ. eigenvalues --   -0.47000  -0.46689  -0.46138  -0.45153  -0.42645
 Alpha  occ. eigenvalues --   -0.42389  -0.41736  -0.40201  -0.39861  -0.38746
 Alpha  occ. eigenvalues --   -0.38124  -0.37459  -0.36656  -0.35121  -0.34825
 Alpha  occ. eigenvalues --   -0.34214  -0.32859  -0.31864  -0.30148  -0.29537
 Alpha  occ. eigenvalues --   -0.28600  -0.27343
 Alpha virt. eigenvalues --   -0.08547  -0.06177  -0.05062  -0.04447  -0.02034
 Alpha virt. eigenvalues --   -0.01100   0.00102   0.00680   0.01093   0.01324
 Alpha virt. eigenvalues --    0.01608   0.01922   0.02539   0.03162   0.03833
 Alpha virt. eigenvalues --    0.04334   0.04824   0.05034   0.05151   0.05725
 Alpha virt. eigenvalues --    0.05903   0.06331   0.06882   0.07549   0.07902
 Alpha virt. eigenvalues --    0.08230   0.08351   0.08799   0.09433   0.09763
 Alpha virt. eigenvalues --    0.10010   0.10589   0.11292   0.11710   0.11903
 Alpha virt. eigenvalues --    0.12265   0.12837   0.13094   0.13306   0.14186
 Alpha virt. eigenvalues --    0.14388   0.14578   0.15291   0.15863   0.15981
 Alpha virt. eigenvalues --    0.16255   0.16392   0.16895   0.17427   0.18031
 Alpha virt. eigenvalues --    0.18411   0.18848   0.19013   0.19358   0.20018
 Alpha virt. eigenvalues --    0.20222   0.20749   0.21418   0.21666   0.21785
 Alpha virt. eigenvalues --    0.22759   0.22855   0.23628   0.23888   0.23909
 Alpha virt. eigenvalues --    0.24226   0.24710   0.24943   0.25013   0.25514
 Alpha virt. eigenvalues --    0.25687   0.26344   0.26714   0.26866   0.27289
 Alpha virt. eigenvalues --    0.27577   0.27770   0.27976   0.28189   0.28561
 Alpha virt. eigenvalues --    0.28846   0.29542   0.30138   0.30296   0.30551
 Alpha virt. eigenvalues --    0.31172   0.31995   0.32147   0.32962   0.33307
 Alpha virt. eigenvalues --    0.33934   0.34195   0.34343   0.35006   0.35932
 Alpha virt. eigenvalues --    0.36536   0.37231   0.37894   0.39017   0.40943
 Alpha virt. eigenvalues --    0.42149   0.43458   0.46259   0.49504   0.50706
 Alpha virt. eigenvalues --    0.53326   0.56696   0.58733   0.58898   0.59769
 Alpha virt. eigenvalues --    0.62166   0.63880   0.64139   0.65425   0.65934
 Alpha virt. eigenvalues --    0.67478   0.67515   0.68606   0.69072   0.69302
 Alpha virt. eigenvalues --    0.69974   0.70500   0.71501   0.71959   0.72936
 Alpha virt. eigenvalues --    0.73218   0.74230   0.74656   0.75534   0.76079
 Alpha virt. eigenvalues --    0.76312   0.76881   0.78187   0.79160   0.80492
 Alpha virt. eigenvalues --    0.81466   0.81974   0.83403   0.84115   0.85769
 Alpha virt. eigenvalues --    0.86707   0.87111   0.88038   0.89209   0.90117
 Alpha virt. eigenvalues --    0.91093   0.91645   0.92065   0.93229   0.94123
 Alpha virt. eigenvalues --    0.95959   0.97296   0.98448   0.99871   1.00768
 Alpha virt. eigenvalues --    1.01299   1.01483   1.02320   1.03830   1.05705
 Alpha virt. eigenvalues --    1.06353   1.07580   1.09547   1.09596   1.11111
 Alpha virt. eigenvalues --    1.12262   1.13412   1.14872   1.17105   1.17356
 Alpha virt. eigenvalues --    1.18843   1.20408   1.21461   1.21983   1.23008
 Alpha virt. eigenvalues --    1.23460   1.25022   1.26134   1.27067   1.27215
 Alpha virt. eigenvalues --    1.28895   1.29562   1.29842   1.30438   1.31265
 Alpha virt. eigenvalues --    1.31659   1.32007   1.33402   1.35549   1.36893
 Alpha virt. eigenvalues --    1.37958   1.38922   1.39367   1.40253   1.41308
 Alpha virt. eigenvalues --    1.42597   1.44021   1.44149   1.48548   1.51340
 Alpha virt. eigenvalues --    1.51822   1.53502   1.54772   1.60887   1.64029
 Alpha virt. eigenvalues --    1.66136   1.69782   1.72810   1.74090   1.75678
 Alpha virt. eigenvalues --    1.75823   1.76870   1.77679   1.78597   1.79693
 Alpha virt. eigenvalues --    1.80427   1.82011   1.82560   1.83885   1.84279
 Alpha virt. eigenvalues --    1.84518   1.85442   1.87004   1.88592   1.90222
 Alpha virt. eigenvalues --    1.92053   1.93077   1.93214   1.94132   1.95924
 Alpha virt. eigenvalues --    1.96139   1.96651   1.97504   1.99881   2.00137
 Alpha virt. eigenvalues --    2.01350   2.02172   2.02769   2.04347   2.05278
 Alpha virt. eigenvalues --    2.07481   2.07917   2.09214   2.10381   2.12839
 Alpha virt. eigenvalues --    2.14122   2.15542   2.18851   2.20559   2.22739
 Alpha virt. eigenvalues --    2.24780   2.25465   2.26540   2.27563   2.28382
 Alpha virt. eigenvalues --    2.29410   2.31714   2.33580   2.37453   2.38527
 Alpha virt. eigenvalues --    2.38581   2.41102   2.42160   2.43135   2.44664
 Alpha virt. eigenvalues --    2.45478   2.47382   2.49021   2.50656   2.52434
 Alpha virt. eigenvalues --    2.52786   2.54569   2.57359   2.57586   2.58578
 Alpha virt. eigenvalues --    2.59685   2.60383   2.61483   2.63196   2.64300
 Alpha virt. eigenvalues --    2.67775   2.68595   2.70219   2.72564   2.75380
 Alpha virt. eigenvalues --    2.77838   2.78295   2.81261   2.81915   2.83225
 Alpha virt. eigenvalues --    2.84457   2.85645   2.90389   2.93600   2.96382
 Alpha virt. eigenvalues --    2.99029   3.03496   3.04779   3.06438   3.17219
 Alpha virt. eigenvalues --    3.18426   3.21974   3.23180   3.25611   3.26711
 Alpha virt. eigenvalues --    3.29870   3.32650   3.37360   3.41737   3.44205
 Alpha virt. eigenvalues --    3.46353   3.50924   3.71068   3.80579   3.98511
 Alpha virt. eigenvalues --    4.17585   4.21604   4.23703   4.28139   4.28947
 Alpha virt. eigenvalues --    4.29833   4.31018   4.36027   4.42347   4.43425
 Alpha virt. eigenvalues --    4.46050   4.48285   4.49115   4.53484   4.62091
 Alpha virt. eigenvalues --    4.78587   4.90427
          Condensed to atoms (all electrons):
               1          2          3          4          5          6
     1  C    7.133748  -1.113209  -0.660144   0.704851  -0.608624  -0.125680
     2  C   -1.113209  12.070809  -0.358599  -0.643876  -1.621499  -0.015479
     3  C   -0.660144  -0.358599  13.270713  -3.720733  -0.784561   0.271314
     4  C    0.704851  -0.643876  -3.720733  25.998577  -6.493726  -0.789174
     5  C   -0.608624  -1.621499  -0.784561  -6.493726  38.813578  -0.510462
     6  S   -0.125680  -0.015479   0.271314  -0.789174  -0.510462  15.716299
     7  O   -0.006084  -0.054833   0.247820   0.201000   0.163537   0.003793
     8  O   -0.003281  -0.024133  -0.040282  -0.501634   0.320217   0.185877
     9  C   -0.320597  -1.540068   1.079681 -11.539209 -12.721163  -0.152313
    10  C    0.007029   1.922826   0.316863  -3.516053  -5.480099  -0.312353
    11  C    0.026964  -2.775843  -0.229600   2.011760   7.804569  -0.355662
    12  C    0.011994   0.463175  -0.058577  -0.305380  -1.733301   0.053174
    13  C    0.002823  -0.029375   0.041913  -0.106553   0.326330   0.024821
    14  C    0.003846   0.065123   0.001005  -0.051498  -0.109343   0.015909
    15  N   -0.000013  -0.000201   0.000025   0.000040  -0.000107  -0.000114
    16  C    0.008890  -0.073647  -0.002208   0.149603   0.655009   0.048839
    17  C   -0.073309   0.921026   0.631262  -1.237012  -4.858683   0.332672
    18  C    0.145793  -1.183078  -4.251860   4.820929  -6.005380  -0.323274
    19  H    0.454289  -0.108903  -0.044742   0.024281  -0.015569  -0.000149
    20  H    0.498857  -0.064894   0.032814  -0.014019   0.002545  -0.000058
    21  H    0.460840  -0.155829   0.009173   0.004397  -0.020273  -0.000534
    22  H   -0.048871   0.049846   0.228676  -0.005684  -0.010828   0.000284
    23  H   -0.001942  -0.013123  -0.016056   0.271607  -0.028718   0.016760
    24  H   -0.001322   0.008480   0.021549  -0.292319  -0.483796   0.532413
    25  H    0.001687   0.034276  -0.006014   0.011519  -0.083352  -0.001955
    26  H   -0.000076   0.001051   0.000228  -0.000769  -0.005501   0.000317
    27  H   -0.000007  -0.000070  -0.000074   0.000456  -0.001962   0.001137
    28  H   -0.000284  -0.003780   0.006640  -0.018344   0.042699   0.019050
    29  H   -0.005996  -0.083425   0.040934  -0.036074   0.065925   0.002616
               7          8          9         10         11         12
     1  C   -0.006084  -0.003281  -0.320597   0.007029   0.026964   0.011994
     2  C   -0.054833  -0.024133  -1.540068   1.922826  -2.775843   0.463175
     3  C    0.247820  -0.040282   1.079681   0.316863  -0.229600  -0.058577
     4  C    0.201000  -0.501634 -11.539209  -3.516053   2.011760  -0.305380
     5  C    0.163537   0.320217 -12.721163  -5.480099   7.804569  -1.733301
     6  S    0.003793   0.185877  -0.152313  -0.312353  -0.355662   0.053174
     7  O    8.703247  -0.146692  -0.440998  -0.101755   0.052357  -0.009194
     8  O   -0.146692   8.588530   0.120954   0.309071   0.125781  -0.004317
     9  C   -0.440998   0.120954  29.569529   3.206124  -2.546073   0.498838
    10  C   -0.101755   0.309071   3.206124  23.140294 -11.966836   4.195000
    11  C    0.052357   0.125781  -2.546073 -11.966836  39.919485 -14.377592
    12  C   -0.009194  -0.004317   0.498838   4.195000 -14.377592  18.258364
    13  C   -0.003039  -0.013492  -0.440561  -2.866978   3.128779  -2.251768
    14  C   -0.000940  -0.003728   0.202297  -1.032269   0.149579  -0.337773
    15  N    0.000000   0.000003  -0.004496   0.045859  -0.006514  -0.035352
    16  C    0.008852  -0.044616   0.209687   0.433791   4.242134  -4.740155
    17  C    0.027278  -0.260408   1.276623  -2.590319 -18.371484   5.536305
    18  C   -0.055972  -0.023367   0.067295   0.077512  -1.012361   0.791517
    19  H   -0.000000   0.000001  -0.003773  -0.000189  -0.000068   0.000377
    20  H   -0.000000   0.000000  -0.014217  -0.000589   0.000595   0.001481
    21  H   -0.000001  -0.000003   0.026013   0.000793   0.001785  -0.000477
    22  H    0.000239   0.000017   0.034723   0.001074  -0.000637  -0.000114
    23  H   -0.002334  -0.000141   0.091338   0.004951   0.001582  -0.000045
    24  H   -0.079157  -0.075628   0.365307   0.004986  -0.207181  -0.000899
    25  H   -0.000006  -0.000018  -0.057471   0.133733   0.179970  -0.033121
    26  H    0.000000   0.000003  -0.000980   0.013886  -0.039319   0.229330
    27  H    0.000001   0.000063   0.001197   0.025893   0.012569   0.034873
    28  H    0.000026  -0.004400   0.015291   0.107945   0.057667  -0.017480
    29  H    0.000019   0.000024  -0.000600  -0.086961   0.139626   0.032371
              13         14         15         16         17         18
     1  C    0.002823   0.003846  -0.000013   0.008890  -0.073309   0.145793
     2  C   -0.029375   0.065123  -0.000201  -0.073647   0.921026  -1.183078
     3  C    0.041913   0.001005   0.000025  -0.002208   0.631262  -4.251860
     4  C   -0.106553  -0.051498   0.000040   0.149603  -1.237012   4.820929
     5  C    0.326330  -0.109343  -0.000107   0.655009  -4.858683  -6.005380
     6  S    0.024821   0.015909  -0.000114   0.048839   0.332672  -0.323274
     7  O   -0.003039  -0.000940   0.000000   0.008852   0.027278  -0.055972
     8  O   -0.013492  -0.003728   0.000003  -0.044616  -0.260408  -0.023367
     9  C   -0.440561   0.202297  -0.004496   0.209687   1.276623   0.067295
    10  C   -2.866978  -1.032269   0.045859   0.433791  -2.590319   0.077512
    11  C    3.128779   0.149579  -0.006514   4.242134 -18.371484  -1.012361
    12  C   -2.251768  -0.337773  -0.035352  -4.740155   5.536305   0.791517
    13  C   12.009679  -5.173926   0.835631  -1.199946   1.631178  -0.424971
    14  C   -5.173926  13.128513  -0.617767  -0.072111   0.098616  -0.032392
    15  N    0.835631  -0.617767   7.350357  -0.027174  -0.015919   0.000364
    16  C   -1.199946  -0.072111  -0.027174  12.912470  -6.826169   0.048623
    17  C    1.631178   0.098616  -0.015919  -6.826169  30.432259  -0.659098
    18  C   -0.424971  -0.032392   0.000364   0.048623  -0.659098  13.992522
    19  H   -0.000033  -0.000000  -0.000000  -0.000034  -0.000398   0.046770
    20  H    0.000072   0.000008   0.000000  -0.000125  -0.000755  -0.087921
    21  H    0.000037   0.000000  -0.000000   0.000153   0.000317   0.022704
    22  H   -0.000022  -0.000001   0.000000  -0.000003   0.000916   0.050958
    23  H    0.000002   0.000002  -0.000000   0.000207  -0.004280  -0.004306
    24  H    0.037687   0.012307  -0.000010  -0.010188   0.289088  -0.030928
    25  H   -0.029728  -0.007363   0.000027  -0.028645   0.079865   0.109085
    26  H    0.085746  -0.029792   0.000448   0.058858  -0.010408   0.004577
    27  H    0.073274  -0.037147   0.000581   0.242277  -0.045324   0.000976
    28  H   -0.033843   0.000201   0.000015  -0.027169   0.177735  -0.015697
    29  H   -0.000078  -0.000265   0.000000  -0.001338  -0.093404   0.316869
              19         20         21         22         23         24
     1  C    0.454289   0.498857   0.460840  -0.048871  -0.001942  -0.001322
     2  C   -0.108903  -0.064894  -0.155829   0.049846  -0.013123   0.008480
     3  C   -0.044742   0.032814   0.009173   0.228676  -0.016056   0.021549
     4  C    0.024281  -0.014019   0.004397  -0.005684   0.271607  -0.292319
     5  C   -0.015569   0.002545  -0.020273  -0.010828  -0.028718  -0.483796
     6  S   -0.000149  -0.000058  -0.000534   0.000284   0.016760   0.532413
     7  O   -0.000000  -0.000000  -0.000001   0.000239  -0.002334  -0.079157
     8  O    0.000001   0.000000  -0.000003   0.000017  -0.000141  -0.075628
     9  C   -0.003773  -0.014217   0.026013   0.034723   0.091338   0.365307
    10  C   -0.000189  -0.000589   0.000793   0.001074   0.004951   0.004986
    11  C   -0.000068   0.000595   0.001785  -0.000637   0.001582  -0.207181
    12  C    0.000377   0.001481  -0.000477  -0.000114  -0.000045  -0.000899
    13  C   -0.000033   0.000072   0.000037  -0.000022   0.000002   0.037687
    14  C   -0.000000   0.000008   0.000000  -0.000001   0.000002   0.012307
    15  N   -0.000000   0.000000  -0.000000   0.000000  -0.000000  -0.000010
    16  C   -0.000034  -0.000125   0.000153  -0.000003   0.000207  -0.010188
    17  C   -0.000398  -0.000755   0.000317   0.000916  -0.004280   0.289088
    18  C    0.046770  -0.087921   0.022704   0.050958  -0.004306  -0.030928
    19  H    0.531865  -0.025427  -0.027858   0.001311  -0.000002  -0.000000
    20  H   -0.025427   0.538555  -0.025949   0.000112   0.000002  -0.000000
    21  H   -0.027858  -0.025949   0.527369   0.000450   0.000000   0.000000
    22  H    0.001311   0.000112   0.000450   0.565263  -0.005052   0.000001
    23  H   -0.000002   0.000002   0.000000  -0.005052   0.512031   0.000122
    24  H   -0.000000  -0.000000   0.000000   0.000001   0.000122   0.884240
    25  H    0.000000   0.000000  -0.000000  -0.000000   0.000000  -0.000116
    26  H   -0.000000  -0.000000  -0.000000  -0.000000   0.000000   0.000000
    27  H   -0.000000  -0.000000   0.000000   0.000000   0.000000  -0.000014
    28  H   -0.000000   0.000000  -0.000000  -0.000000   0.000002   0.000327
    29  H    0.000142   0.003591   0.000234  -0.000162   0.000015   0.000006
              25         26         27         28         29
     1  C    0.001687  -0.000076  -0.000007  -0.000284  -0.005996
     2  C    0.034276   0.001051  -0.000070  -0.003780  -0.083425
     3  C   -0.006014   0.000228  -0.000074   0.006640   0.040934
     4  C    0.011519  -0.000769   0.000456  -0.018344  -0.036074
     5  C   -0.083352  -0.005501  -0.001962   0.042699   0.065925
     6  S   -0.001955   0.000317   0.001137   0.019050   0.002616
     7  O   -0.000006   0.000000   0.000001   0.000026   0.000019
     8  O   -0.000018   0.000003   0.000063  -0.004400   0.000024
     9  C   -0.057471  -0.000980   0.001197   0.015291  -0.000600
    10  C    0.133733   0.013886   0.025893   0.107945  -0.086961
    11  C    0.179970  -0.039319   0.012569   0.057667   0.139626
    12  C   -0.033121   0.229330   0.034873  -0.017480   0.032371
    13  C   -0.029728   0.085746   0.073274  -0.033843  -0.000078
    14  C   -0.007363  -0.029792  -0.037147   0.000201  -0.000265
    15  N    0.000027   0.000448   0.000581   0.000015   0.000000
    16  C   -0.028645   0.058858   0.242277  -0.027169  -0.001338
    17  C    0.079865  -0.010408  -0.045324   0.177735  -0.093404
    18  C    0.109085   0.004577   0.000976  -0.015697   0.316869
    19  H    0.000000  -0.000000  -0.000000  -0.000000   0.000142
    20  H    0.000000  -0.000000  -0.000000   0.000000   0.003591
    21  H   -0.000000  -0.000000   0.000000  -0.000000   0.000234
    22  H   -0.000000  -0.000000   0.000000  -0.000000  -0.000162
    23  H    0.000000   0.000000   0.000000   0.000002   0.000015
    24  H   -0.000116   0.000000  -0.000014   0.000327   0.000006
    25  H    0.563882  -0.004855   0.000016  -0.000156   0.000291
    26  H   -0.004855   0.545074  -0.000141   0.000015   0.000001
    27  H    0.000016  -0.000141   0.539761  -0.004857   0.000000
    28  H   -0.000156   0.000015  -0.004857   0.526399   0.000026
    29  H    0.000291   0.000001   0.000000   0.000026   0.575488
 Mulliken charges:
               1
     1  C   -0.492172
     2  C    0.327251
     3  C   -0.027161
     4  C    1.073035
     5  C   -0.617461
     6  S    1.361935
     7  O   -0.507163
     8  O   -0.504399
     9  C   -0.982379
    10  C    0.006770
    11  C    0.033968
    12  C   -0.201255
    13  C    0.376339
    14  C   -0.171091
    15  N   -0.525685
    16  C    0.034134
    17  C   -0.388168
    18  C   -0.385889
    19  H    0.168109
    20  H    0.155320
    21  H    0.176659
    22  H    0.137505
    23  H    0.177380
    24  H    0.025044
    25  H    0.138449
    26  H    0.152305
    27  H    0.156521
    28  H    0.171974
    29  H    0.130124
 Sum of Mulliken charges =  -0.00000
 Mulliken charges with hydrogens summed into heavy atoms:
               1
     1  C    0.007915
     2  C    0.327251
     3  C    0.110344
     4  C    1.250415
     5  C   -0.617461
     6  S    1.386979
     7  O   -0.507163
     8  O   -0.504399
     9  C   -0.982379
    10  C    0.006770
    11  C    0.172417
    12  C   -0.048950
    13  C    0.376339
    14  C   -0.171091
    15  N   -0.525685
    16  C    0.190655
    17  C   -0.216194
    18  C   -0.255765
 Electronic spatial extent (au):  <R**2>=           5677.8227
 Charge=             -0.0000 electrons
 Dipole moment (field-independent basis, Debye):
    X=             -4.4939    Y=             -5.5256    Z=             -0.8504  Tot=              7.1729
 Quadrupole moment (field-independent basis, Debye-Ang):
   XX=           -139.0900   YY=           -118.9414   ZZ=           -112.0207
   XY=             14.5871   XZ=             -2.3629   YZ=              0.7314
 Traceless Quadrupole moment (field-independent basis, Debye-Ang):
   XX=            -15.7393   YY=              4.4093   ZZ=             11.3300
   XY=             14.5871   XZ=             -2.3629   YZ=              0.7314
 Octapole moment (field-independent basis, Debye-Ang**2):
  XXX=           -348.8022  YYY=            -50.2936  ZZZ=             -0.8636  XYY=              6.0359
  XXY=             -8.5517  XXZ=             11.6591  XZZ=             12.4451  YZZ=             -0.8093
  YYZ=             -5.9678  XYZ=              4.3878
 Hexadecapole moment (field-independent basis, Debye-Ang**3):
 XXXX=          -7130.9881 YYYY=          -2199.8571 ZZZZ=           -383.7221 XXXY=            196.7978
 XXXZ=              7.5730 YYYX=            128.1685 YYYZ=             -6.8132 ZZZX=              1.6624
 ZZZY=             10.8041 XXYY=          -1236.7292 XXZZ=           -952.9355 YYZZ=           -432.6144
 XXYZ=             44.5080 YYXZ=            -41.3747 ZZXY=              4.9974
 N-N= 1.332384136061D+03 E-N=-5.338794111721D+03  KE= 1.134786779942D+03
 Unable to Open any file for archive entry.
 1\1\GINC-N2\SP\RB3LYP TD-FC\6-31+G(d,p)\C14H11N1O2S1\HPCMGAC13\13-Aug-
 2025\0\\# td=(50-50,nstates=3) b3lyp/6-31+g(d,p) geom=connectivity\\Ti
 tle Card Required\\0,1\C,0,-3.372547,-3.389046,0.304374\C,0,-2.773483,
 -2.011177,0.157171\C,0,-3.596067,-0.87997,0.046185\C,0,-3.042902,0.390
 359,-0.077977\C,0,-1.654156,0.549435,-0.070549\S,0,-1.052772,2.239165,
 -0.232099\O,0,-2.071856,3.018126,-0.950018\O,0,-0.515419,2.713794,1.05
 308\C,0,-0.791898,-0.557326,0.041287\C,0,0.699847,-0.471197,0.019994\C
 ,0,1.414878,-1.172904,-0.968281\C,0,2.806167,-1.159234,-0.992495\C,0,3
 .513926,-0.43998,-0.014029\C,0,4.949108,-0.426007,-0.030449\N,0,6.1127
 69,-0.418131,-0.045894\C,0,2.810729,0.261069,0.979539\C,0,1.41765,0.24
 4778,0.993891\C,0,-1.38622,-1.827125,0.139622\H,0,-4.171195,-3.553803,
 -0.426305\H,0,-2.620554,-4.17095,0.169831\H,0,-3.812527,-3.51701,1.300
 625\H,0,-4.676564,-0.994631,0.043265\H,0,-3.675453,1.262677,-0.204855\
 H,0,0.012601,2.058696,-1.074086\H,0,0.872361,-1.724467,-1.730076\H,0,3
 .347737,-1.697552,-1.763052\H,0,3.356038,0.8131,1.737536\H,0,0.885733,
 0.791799,1.763292\H,0,-0.735189,-2.692994,0.224472\\Version=ES64L-G16R
 evC.02\State=1-A\HF=-1143.4621482\RMSD=2.117e-09\PG=C01 [X(C14H11N1O2S
 1)]\\@
 The archive entry for this job was punched.


 IT'S WHAT A FELLER THINKS HE KNOWS THAT HURTS HIM...
                    ------
           KIN HUBBARD
 Job cpu time:       0 days  0 hours 52 minutes 40.9 seconds.
 Elapsed time:       0 days  0 hours  6 minutes 42.5 seconds.
 File lengths (MBytes):  RWF=    906 Int=      0 D2E=      0 Chk=     42 Scr=      2
 Normal termination of Gaussian 16 at Wed Aug 13 15:33:48 2025.
