 Entering Gaussian System, Link 0=g16
 Input=M1121e.gjf
 Output=M1121e.log
 Initial command:
 /hpc/softwares/Gaussian/g16/l1.exe "/hpc/home/hpcmgac13/pbs.15030.admin1.x8z/Gau-39768.inp" -scrdir="/hpc/home/hpcmgac13/pbs.15030.admin1.x8z/"
 Default linda workers: n2
 Default is to use   8 SMP processors on each worker.
 Entering Link 1 = /hpc/softwares/Gaussian/g16/l1.exe PID=     39769.
  
 Copyright (c) 1988-2021, Gaussian, Inc.  All Rights Reserved.
  
 This is part of the Gaussian(R) 16 program.  It is based on
 the Gaussian(R) 09 system (copyright 2009, Gaussian, Inc.),
 the Gaussian(R) 03 system (copyright 2003, Gaussian, Inc.),
 the Gaussian(R) 98 system (copyright 1998, Gaussian, Inc.),
 the Gaussian(R) 94 system (copyright 1995, Gaussian, Inc.),
 the Gaussian 92(TM) system (copyright 1992, Gaussian, Inc.),
 the Gaussian 90(TM) system (copyright 1990, Gaussian, Inc.),
 the Gaussian 88(TM) system (copyright 1988, Gaussian, Inc.),
 the Gaussian 86(TM) system (copyright 1986, Carnegie Mellon
 University), and the Gaussian 82(TM) system (copyright 1983,
 Carnegie Mellon University). Gaussian is a federally registered
 trademark of Gaussian, Inc.
  
 This software contains proprietary and confidential information,
 including trade secrets, belonging to Gaussian, Inc.
  
 This software is provided under written license and may be
 used, copied, transmitted, or stored only in accord with that
 written license.
  
 The following legend is applicable only to US Government
 contracts under FAR:
  
                    RESTRICTED RIGHTS LEGEND
  
 Use, reproduction and disclosure by the US Government is
 subject to restrictions as set forth in subparagraphs (a)
 and (c) of the Commercial Computer Software - Restricted
 Rights clause in FAR 52.227-19.
  
 Gaussian, Inc.
 340 Quinnipiac St., Bldg. 40, Wallingford CT 06492
  
  
 ---------------------------------------------------------------
 Warning -- This program may not be used in any manner that
 competes with the business of Gaussian, Inc. or will provide
 assistance to any competitor of Gaussian, Inc.  The licensee
 of this program is prohibited from giving any competitor of
 Gaussian, Inc. access to this program.  By using this program,
 the user acknowledges that Gaussian, Inc. is engaged in the
 business of creating and licensing software in the field of
 computational chemistry and represents and warrants to the
 licensee that it is not a competitor of Gaussian, Inc. and that
 it will not use this program in any manner prohibited above.
 ---------------------------------------------------------------
  

 Cite this work as:
 Gaussian 16, Revision C.02,
 M. J. Frisch, G. W. Trucks, H. B. Schlegel, G. E. Scuseria, 
 M. A. Robb, J. R. Cheeseman, G. Scalmani, V. Barone, 
 G. A. Petersson, H. Nakatsuji, X. Li, M. Caricato, A. V. Marenich, 
 J. Bloino, B. G. Janesko, R. Gomperts, B. Mennucci, H. P. Hratchian, 
 J. V. Ortiz, A. F. Izmaylov, J. L. Sonnenberg, D. Williams-Young, 
 F. Ding, F. Lipparini, F. Egidi, J. Goings, B. Peng, A. Petrone, 
 T. Henderson, D. Ranasinghe, V. G. Zakrzewski, J. Gao, N. Rega, 
 G. Zheng, W. Liang, M. Hada, M. Ehara, K. Toyota, R. Fukuda, 
 J. Hasegawa, M. Ishida, T. Nakajima, Y. Honda, O. Kitao, H. Nakai, 
 T. Vreven, K. Throssell, J. A. Montgomery, Jr., J. E. Peralta, 
 F. Ogliaro, M. J. Bearpark, J. J. Heyd, E. N. Brothers, K. N. Kudin, 
 V. N. Staroverov, T. A. Keith, R. Kobayashi, J. Normand, 
 K. Raghavachari, A. P. Rendell, J. C. Burant, S. S. Iyengar, 
 J. Tomasi, M. Cossi, J. M. Millam, M. Klene, C. Adamo, R. Cammi, 
 J. W. Ochterski, R. L. Martin, K. Morokuma, O. Farkas, 
 J. B. Foresman, and D. J. Fox, Gaussian, Inc., Wallingford CT, 2019.
 
 ******************************************
 Gaussian 16:  ES64L-G16RevC.02  7-Dec-2021
                30-Sep-2025 
 ******************************************
 SetLPE:    new flags="-opt 'Tsnet.Node.lindarsharg: ssh'  -nodelist 'n2.head.cm.mguif.local' -env GAUSS_MDEF=1342177280 -env GAUSS_EXEDIR="/hpc/softwares/Gaussian/g16/bsd:/hpc/softwares/Gaussian/g16""
 Will use up to    1 processors via Linda.
 ----------------------------------------------------------
 # td=(50-50,nstates=3) b3lyp/6-31+g(d,p) geom=connectivity
 ----------------------------------------------------------
 1/38=1,57=2,172=1/1;
 2/12=2,17=6,18=5,40=1/2;
 3/5=1,6=6,7=111,11=9,25=1,30=1,74=-5/1,2,3,8;
 4//1;
 5/5=2,38=5/2;
 8/6=1,10=2,108=3/1;
 9/41=3,42=1,48=2,70=2/14;
 6/7=2,8=2,9=2,10=2/1;
 99/5=1,9=1/99;
 -------------------
 Title Card Required
 -------------------
 Symbolic Z-matrix:
 Charge =  0 Multiplicity = 1
 C                     0.77038   4.13946   1.43534 
 O                     0.21012   4.51553   0.16791 
 C                    -0.49469   3.67227  -0.62027 
 O                    -0.93222   4.08803  -1.66761 
 C                    -0.72547   2.21952  -0.14359 
 C                    -1.76296   1.55803  -1.08676 
 C                    -2.1675    0.1713   -0.64576 
 C                    -3.04095  -0.03069   0.42699 
 F                    -3.52614   1.03974   1.09448 
 C                    -3.44261  -1.295     0.84765 
 F                    -4.28231  -1.43763   1.88421 
 C                    -2.96242  -2.4199    0.17985 
 F                    -3.33577  -3.64457   0.57158 
 C                    -2.09256  -2.2625   -0.89603 
 F                    -1.63006  -3.34165  -1.5431 
 C                    -1.70856  -0.98131  -1.29016 
 F                    -0.87377  -0.87702  -2.3394 
 N                     0.5377    1.49728  -0.19641 
 C                     0.84062   0.7319    0.78498 
 C                     2.04602  -0.06908   0.81361 
 C                     2.45882  -0.90696   1.83111 
 C                     3.69162  -1.55973   1.56483 
 C                     4.19413  -1.20028   0.33848 
 Cl                    5.66825  -1.76362  -0.36527 
 S                     3.18533  -0.06908  -0.5162 
 H                     1.11382   5.07354   1.88032 
 H                     0.02099   3.68685   2.09196 
 H                     1.61602   3.46199   1.30179 
 H                    -1.14153   2.24175   0.87782 
 H                    -2.64482   2.20251  -1.12604 
 H                    -1.34272   1.52224  -2.09182 
 H                     0.20318   0.63924   1.67925 
 H                     1.88806  -1.04795   2.74289 
 H                     4.18362  -2.25478   2.23331 
 
                          Input orientation:                          
 ---------------------------------------------------------------------
 Center     Atomic      Atomic             Coordinates (Angstroms)
 Number     Number       Type             X           Y           Z
 ---------------------------------------------------------------------
      1          6           0        0.770383    4.139458    1.435336
      2          8           0        0.210118    4.515534    0.167912
      3          6           0       -0.494694    3.672269   -0.620268
      4          8           0       -0.932219    4.088025   -1.667607
      5          6           0       -0.725466    2.219521   -0.143586
      6          6           0       -1.762956    1.558028   -1.086755
      7          6           0       -2.167503    0.171297   -0.645757
      8          6           0       -3.040946   -0.030688    0.426994
      9          9           0       -3.526137    1.039741    1.094484
     10          6           0       -3.442608   -1.294998    0.847648
     11          9           0       -4.282310   -1.437632    1.884211
     12          6           0       -2.962417   -2.419901    0.179849
     13          9           0       -3.335771   -3.644569    0.571578
     14          6           0       -2.092560   -2.262501   -0.896025
     15          9           0       -1.630060   -3.341648   -1.543100
     16          6           0       -1.708564   -0.981310   -1.290157
     17          9           0       -0.873771   -0.877017   -2.339399
     18          7           0        0.537704    1.497281   -0.196413
     19          6           0        0.840623    0.731901    0.784979
     20          6           0        2.046021   -0.069078    0.813611
     21          6           0        2.458816   -0.906960    1.831110
     22          6           0        3.691615   -1.559726    1.564830
     23          6           0        4.194128   -1.200283    0.338479
     24         17           0        5.668248   -1.763620   -0.365267
     25         16           0        3.185328   -0.069084   -0.516199
     26          1           0        1.113824    5.073541    1.880316
     27          1           0        0.020990    3.686852    2.091964
     28          1           0        1.616022    3.461990    1.301788
     29          1           0       -1.141526    2.241745    0.877822
     30          1           0       -2.644817    2.202507   -1.126040
     31          1           0       -1.342718    1.522236   -2.091818
     32          1           0        0.203180    0.639235    1.679246
     33          1           0        1.888059   -1.047948    2.742885
     34          1           0        4.183621   -2.254780    2.233314
 ---------------------------------------------------------------------
                    Distance matrix (angstroms):
                    1          2          3          4          5
     1  C    0.000000
     2  O    1.435860   0.000000
     3  C    2.458494   1.352436   0.000000
     4  O    3.539739   2.203821   1.208801   0.000000
     5  C    2.901158   2.498805   1.546272   2.420061   0.000000
     6  C    4.409368   3.770153   2.509206   2.725509   1.550331
     7  C    5.358024   5.018718   3.880173   4.232123   2.554774
     8  C    5.738737   5.595058   4.614331   5.079161   3.278788
     9  F    5.308909   5.186451   4.365802   4.863085   3.281533
    10  C    6.901303   6.896864   5.959758   6.450232   4.551621
    11  F    7.538908   7.652959   6.835901   7.373697   5.489797
    12  C    7.650832   7.626623   6.621509   7.063137   5.160697
    13  F    8.842944   8.906377   7.939039   8.401430   6.458537
    14  C    7.390316   7.237130   6.152293   6.501608   4.745907
    15  F    8.402390   8.249189   7.164894   7.463412   5.805474
    16  C    6.308388   6.001883   4.855721   5.142309   3.539269
    17  F    6.489753   6.044918   4.878024   5.010625   3.798965
    18  N    3.114136   3.057760   2.444600   3.322204   1.456029
    19  C    3.469776   3.885124   3.521868   4.519039   2.351145
    20  C    4.441348   4.980576   4.744357   5.684000   3.719550
    21  C    5.336083   6.101337   5.975099   6.977823   4.879955
    22  C    6.405549   7.140097   7.047951   7.982830   6.059043
    23  C    6.437232   6.969361   6.829788   7.633480   6.010811
    24  Cl   7.878933   8.336860   8.221665   8.916502   7.536188
    25  S    5.229940   5.508049   5.248916   5.963345   4.546522
    26  H    1.090170   2.015039   3.286916   4.212516   3.952796
    27  H    1.094350   2.103440   2.760859   3.899221   2.776318
    28  H    1.091743   2.090980   2.862453   3.962671   3.019172
    29  H    2.750915   2.738801   2.170038   3.151471   1.103120
    30  H    4.687858   3.895518   2.653118   2.604125   2.156250
    31  H    4.873999   4.059250   2.739935   2.632819   2.159355
    32  H    3.554261   4.160513   3.869637   4.938088   2.585035
    33  H    5.465168   6.355966   6.266479   7.333800   5.083166
    34  H    7.291999   8.117374   8.072142   9.034389   7.054655
                    6          7          8          9         10
     6  C    0.000000
     7  C    1.510351   0.000000
     8  C    2.539432   1.398033   0.000000
     9  F    2.852233   2.372450   1.351581   0.000000
    10  C    3.834436   2.450749   1.391676   2.349236   0.000000
    11  F    4.914037   3.669032   2.375701   2.707922   1.341606
    12  C    4.343606   2.833341   2.403245   3.622632   1.393537
    13  F    5.682502   4.172240   3.628769   4.717248   2.368145
    14  C    3.839461   2.447779   2.762391   4.113645   2.408129
    15  F    4.922676   3.665358   4.102965   5.454221   3.631774
    16  C    2.548052   1.397991   2.372242   3.615900   2.770473
    17  F    2.879099   2.375106   3.614672   4.743475   4.114718
    18  N    2.467678   3.046028   3.940820   4.288422   4.972903
    19  C    3.311268   3.377885   3.971936   4.388525   4.739020
    20  C    4.557101   4.465570   5.101782   5.688349   5.623974
    21  C    5.693282   5.357269   5.743412   6.336555   5.995380
    22  C    6.819358   6.497107   6.997143   7.685987   7.175066
    23  C    6.717620   6.581816   7.329535   8.074140   7.654277
    24  Cl   8.171700   8.075987   8.915200   9.722470   9.203177
    25  S    5.240090   5.359792   6.297426   6.990533   6.876953
    26  H    5.425699   6.417176   6.739986   6.198251   7.898466
    27  H    4.221209   4.964247   5.095849   4.536989   6.193841
    28  H    4.554964   5.379280   5.886545   5.687888   6.958801
    29  H    2.170992   2.767793   2.995829   2.679202   4.219531
    30  H    1.092966   2.141101   2.748817   2.656968   4.094442
    31  H    1.089969   2.143921   3.411739   3.892639   4.581136
    32  H    3.515769   3.353318   3.541368   3.796071   4.210057
    33  H    5.898064   5.423747   5.540150   6.032345   5.662947
    34  H    7.805264   7.383202   7.771985   8.461157   7.810289
                   11         12         13         14         15
    11  F    0.000000
    12  C    2.368928   0.000000
    13  F    2.736697   1.338901   0.000000
    14  C    3.633886   1.392455   2.368448   0.000000
    15  F    4.733515   2.365026   2.733692   1.340586   0.000000
    16  C    4.112057   2.408861   3.634117   1.394361   2.375150
    17  F    5.456309   3.617947   4.711112   2.342721   2.698235
    18  N    6.014586   5.266568   6.483228   4.641520   5.470649
    19  C    5.670946   4.976259   6.053205   4.516169   5.302643
    20  C    6.562537   5.568884   6.465787   4.986162   5.456865
    21  C    6.762190   5.865613   6.531322   5.476293   5.833687
    22  C    7.981252   6.850855   7.397113   6.325060   6.415193
    23  C    8.619491   7.261458   7.920117   6.494209   6.484362
    24  Cl  10.206862   8.672729   9.245972   7.794917   7.559283
    25  S    7.962444   6.618579   7.516122   5.728128   5.912035
    26  H    8.456574   8.698218   9.875076   8.473870   9.490210
    27  H    6.694915   7.060406   8.205434   6.984982   8.083283
    28  H    7.689983   7.537738   8.692332   7.166154   8.057290
    29  H    4.941170   5.053093   6.289451   4.933481   6.105228
    30  H    4.999361   4.813821   6.127611   4.504907   5.651666
    31  H    5.762884   4.829528   6.145064   4.039359   4.903165
    32  H    4.947222   4.650539   5.665870   4.508050   5.439826
    33  H    6.242005   5.654956   6.224581   5.528303   6.000657
    34  H    8.512437   7.437059   7.825224   7.013079   7.017227
                   16         17         18         19         20
    16  C    0.000000
    17  F    1.344866   0.000000
    18  N    3.519291   3.495989   0.000000
    19  C    3.706701   3.910179   1.280897   0.000000
    20  C    4.399422   4.372576   2.397634   1.447540   0.000000
    21  C    5.207196   5.338556   3.685362   2.529586   1.381213
    22  C    6.135752   6.045812   4.732275   3.740037   2.344001
    23  C    6.127167   5.741004   4.575194   3.895984   2.473811
    24  Cl   7.475613   6.890666   6.081486   5.554877   4.169143
    25  S    5.037990   4.522510   3.092843   2.798622   1.751118
    26  H    7.394525   7.560798   4.175446   4.486005   5.334171
    27  H    6.018458   6.423899   3.209032   3.333428   4.454430
    28  H    6.124865   6.187430   2.695822   2.884739   3.590495
    29  H    3.925525   4.488750   2.127915   2.493424   3.937573
    30  H    3.322679   3.753973   3.389689   4.238274   5.561142
    31  H    2.654100   2.457157   2.670051   3.696967   4.738919
    32  H    3.885651   4.428132   2.089556   1.102104   2.155712
    33  H    5.404217   5.786755   4.115959   2.845765   2.169156
    34  H    6.982436   6.955943   5.768383   4.711006   3.370784
                   21         22         23         24         25
    21  C    0.000000
    22  C    1.420141   0.000000
    23  C    2.307660   1.373192   0.000000
    24  Cl   3.982260   2.770185   1.727900   0.000000
    25  S    2.596096   2.609410   1.740047   3.009838   0.000000
    26  H    6.130075   7.123536   7.157262   8.516583   6.039951
    27  H    5.207125   6.424791   6.661372   8.224181   5.560810
    28  H    4.480871   5.440120   5.413999   6.819575   4.270396
    29  H    4.877045   6.187278   6.372413   7.997577   5.099499
    30  H    6.667878   7.845097   7.777851   9.242077   6.286702
    31  H    5.978463   6.943635   6.631374   7.932936   5.051542
    32  H    2.738919   4.125251   4.594469   6.310366   3.770265
    33  H    1.084885   2.214169   3.335016   4.945970   3.641800
    34  H    2.225610   1.082608   2.168519   3.032817   3.651531
                   26         27         28         29         30
    26  H    0.000000
    27  H    1.778198   0.000000
    28  H    1.784375   1.794176   0.000000
    29  H    3.756417   2.216736   3.045130   0.000000
    30  H    5.604319   4.434564   5.063141   2.505372   0.000000
    31  H    5.867215   4.904008   4.902382   3.062178   1.758112
    32  H    4.531310   3.080828   3.179079   2.240213   4.292381
    33  H    6.230256   5.131079   4.742394   4.845506   6.788299
    34  H    7.953147   7.256064   6.335753   7.100231   8.819310
                   31         32         33         34
    31  H    0.000000
    32  H    4.170182   0.000000
    33  H    6.357525   2.610887   0.000000
    34  H    7.969507   4.952396   2.643050   0.000000
 Stoichiometry    C15H9ClF5NO2S
 Framework group  C1[X(C15H9ClF5NO2S)]
 Deg. of freedom    96
 Full point group                 C1      NOp   1
 Largest Abelian subgroup         C1      NOp   1
 Largest concise Abelian subgroup C1      NOp   1
                         Standard orientation:                         
 ---------------------------------------------------------------------
 Center     Atomic      Atomic             Coordinates (Angstroms)
 Number     Number       Type             X           Y           Z
 ---------------------------------------------------------------------
      1          6           0       -0.770383    4.139458   -1.435336
      2          8           0       -0.210118    4.515534   -0.167912
      3          6           0        0.494694    3.672269    0.620268
      4          8           0        0.932219    4.088025    1.667607
      5          6           0        0.725466    2.219521    0.143586
      6          6           0        1.762956    1.558028    1.086755
      7          6           0        2.167503    0.171297    0.645757
      8          6           0        3.040946   -0.030688   -0.426994
      9          9           0        3.526137    1.039741   -1.094484
     10          6           0        3.442608   -1.294998   -0.847648
     11          9           0        4.282310   -1.437632   -1.884211
     12          6           0        2.962417   -2.419901   -0.179849
     13          9           0        3.335771   -3.644569   -0.571578
     14          6           0        2.092560   -2.262501    0.896025
     15          9           0        1.630060   -3.341648    1.543100
     16          6           0        1.708564   -0.981310    1.290157
     17          9           0        0.873771   -0.877017    2.339399
     18          7           0       -0.537704    1.497281    0.196413
     19          6           0       -0.840623    0.731901   -0.784979
     20          6           0       -2.046021   -0.069078   -0.813611
     21          6           0       -2.458816   -0.906960   -1.831110
     22          6           0       -3.691615   -1.559726   -1.564830
     23          6           0       -4.194128   -1.200283   -0.338479
     24         17           0       -5.668248   -1.763619    0.365267
     25         16           0       -3.185328   -0.069084    0.516199
     26          1           0       -1.113823    5.073541   -1.880316
     27          1           0       -0.020990    3.686852   -2.091964
     28          1           0       -1.616022    3.461990   -1.301788
     29          1           0        1.141526    2.241745   -0.877822
     30          1           0        2.644817    2.202507    1.126040
     31          1           0        1.342718    1.522236    2.091818
     32          1           0       -0.203180    0.639235   -1.679246
     33          1           0       -1.888059   -1.047948   -2.742885
     34          1           0       -4.183621   -2.254780   -2.233314
 ---------------------------------------------------------------------
 Rotational constants (GHZ):           0.1993796           0.1283879           0.0927474
 Standard basis: 6-31+G(d,p) (6D, 7F)
 There are   528 symmetry adapted cartesian basis functions of A   symmetry.
 There are   528 symmetry adapted basis functions of A   symmetry.
   528 basis functions,   911 primitive gaussians,   528 cartesian basis functions
   100 alpha electrons      100 beta electrons
       nuclear repulsion energy      2529.7914349822 Hartrees.
 NAtoms=   34 NActive=   34 NUniq=   34 SFac= 1.00D+00 NAtFMM=   60 NAOKFM=F Big=F
 Integral buffers will be    131072 words long.
 Regular integral format.
 Two-electron integral symmetry is turned on.
 One-electron integrals computed using PRISM.
 NBasis=   528 RedAO= T EigKep=  1.24D-06  NBF=   528
 NBsUse=   527 1.00D-06 EigRej=  7.79D-07 NBFU=   527
 ExpMin= 4.05D-02 ExpMax= 2.52D+04 ExpMxC= 3.78D+03 IAcc=3 IRadAn=         5 AccDes= 0.00D+00
 Harris functional with IExCor=  402 and IRadAn=       5 diagonalized for initial guess.
 HarFok:  IExCor=  402 AccDes= 0.00D+00 IRadAn=         5 IDoV= 1 UseB2=F ITyADJ=14
 ICtDFT=  3500011 ScaDFX=  1.000000  1.000000  1.000000  1.000000
 FoFCou: FMM=F IPFlag=           0 FMFlag=      100000 FMFlg1=           0
         NFxFlg=           0 DoJE=T BraDBF=F KetDBF=T FulRan=T
         wScrn=  0.000000 ICntrl=       500 IOpCl=  0 I1Cent=   200000004 NGrid=           0
         NMat0=    1 NMatS0=      1 NMatT0=    0 NMatD0=    1 NMtDS0=    0 NMtDT0=    0
 Petite list used in FoFCou.
 Requested convergence on RMS density matrix=1.00D-08 within 128 cycles.
 Requested convergence on MAX density matrix=1.00D-06.
 Requested convergence on             energy=1.00D-06.
 No special actions if energy rises.
 SCF Done:  E(RB3LYP) =  -2139.79350432     A.U. after   16 cycles
            NFock= 16  Conv=0.38D-08     -V/T= 2.0065
 DoSCS=F DFT=T ScalE2(SS,OS)=  1.000000  1.000000
 ExpMin= 4.05D-02 ExpMax= 2.52D+04 ExpMxC= 3.78D+03 IAcc=3 IRadAn=         5 AccDes= 0.00D+00
 HarFok:  IExCor=  205 AccDes= 0.00D+00 IRadAn=         5 IDoV=-2 UseB2=F ITyADJ=14
 ICtDFT= 12500011 ScaDFX=  1.000000  1.000000  1.000000  1.000000
 GSVD:  LWork=       -1353 too small for GESVD, short by        5940 words or        5940 for optimal perf.
 Range of M.O.s used for correlation:    34   527
 NBasis=   528 NAE=   100 NBE=   100 NFC=    33 NFV=     0
 NROrb=    494 NOA=    67 NOB=    67 NVA=   427 NVB=   427

 **** Warning!!: The largest alpha MO coefficient is  0.13879077D+03

 Orbital symmetries:
       Occupied  (A) (A) (A) (A) (A) (A) (A) (A) (A) (A) (A) (A)
                 (A) (A) (A) (A) (A) (A) (A) (A) (A) (A) (A) (A)
                 (A) (A) (A) (A) (A) (A) (A) (A) (A) (A) (A) (A)
                 (A) (A) (A) (A) (A) (A) (A) (A) (A) (A) (A) (A)
                 (A) (A) (A) (A) (A) (A) (A) (A) (A) (A) (A) (A)
                 (A) (A) (A) (A) (A) (A) (A) (A) (A) (A) (A) (A)
                 (A) (A) (A) (A) (A) (A) (A) (A) (A) (A) (A) (A)
                 (A) (A) (A) (A) (A) (A) (A) (A) (A) (A) (A) (A)
                 (A) (A) (A) (A)
       Virtual   (A) (A) (A) (A) (A) (A) (A) (A) (A) (A) (A) (A)
                 (A) (A) (A) (A) (A) (A) (A) (A) (A) (A) (A) (A)
                 (A) (A) (A) (A) (A) (A) (A) (A) (A) (A) (A) (A)
                 (A) (A) (A) (A) (A) (A) (A) (A) (A) (A) (A) (A)
                 (A) (A) (A) (A) (A) (A) (A) (A) (A) (A) (A) (A)
                 (A) (A) (A) (A) (A) (A) (A) (A) (A) (A) (A) (A)
                 (A) (A) (A) (A) (A) (A) (A) (A) (A) (A) (A) (A)
                 (A) (A) (A) (A) (A) (A) (A) (A) (A) (A) (A) (A)
                 (A) (A) (A) (A) (A) (A) (A) (A) (A) (A) (A) (A)
                 (A) (A) (A) (A) (A) (A) (A) (A) (A) (A) (A) (A)
                 (A) (A) (A) (A) (A) (A) (A) (A) (A) (A) (A) (A)
                 (A) (A) (A) (A) (A) (A) (A) (A) (A) (A) (A) (A)
                 (A) (A) (A) (A) (A) (A) (A) (A) (A) (A) (A) (A)
                 (A) (A) (A) (A) (A) (A) (A) (A) (A) (A) (A) (A)
                 (A) (A) (A) (A) (A) (A) (A) (A) (A) (A) (A) (A)
                 (A) (A) (A) (A) (A) (A) (A) (A) (A) (A) (A) (A)
                 (A) (A) (A) (A) (A) (A) (A) (A) (A) (A) (A) (A)
                 (A) (A) (A) (A) (A) (A) (A) (A) (A) (A) (A) (A)
                 (A) (A) (A) (A) (A) (A) (A) (A) (A) (A) (A) (A)
                 (A) (A) (A) (A) (A) (A) (A) (A) (A) (A) (A) (A)
                 (A) (A) (A) (A) (A) (A) (A) (A) (A) (A) (A) (A)
                 (A) (A) (A) (A) (A) (A) (A) (A) (A) (A) (A) (A)
                 (A) (A) (A) (A) (A) (A) (A) (A) (A) (A) (A) (A)
                 (A) (A) (A) (A) (A) (A) (A) (A) (A) (A) (A) (A)
                 (A) (A) (A) (A) (A) (A) (A) (A) (A) (A) (A) (A)
                 (A) (A) (A) (A) (A) (A) (A) (A) (A) (A) (A) (A)
                 (A) (A) (A) (A) (A) (A) (A) (A) (A) (A) (A) (A)
                 (A) (A) (A) (A) (A) (A) (A) (A) (A) (A) (A) (A)
                 (A) (A) (A) (A) (A) (A) (A) (A) (A) (A) (A) (A)
                 (A) (A) (A) (A) (A) (A) (A) (A) (A) (A) (A) (A)
                 (A) (A) (A) (A) (A) (A) (A) (A) (A) (A) (A) (A)
                 (A) (A) (A) (A) (A) (A) (A) (A) (A) (A) (A) (A)
                 (A) (A) (A) (A) (A) (A) (A) (A) (A) (A) (A) (A)
                 (A) (A) (A) (A) (A) (A) (A) (A) (A) (A) (A) (A)
                 (A) (A) (A) (A) (A) (A) (A) (A) (A) (A) (A) (A)
                 (A) (A) (A) (A) (A) (A) (A)
    24 initial guesses have been made.
 Convergence on wavefunction:    0.001000000000000
 Iteration     1 Dimension    24 NMult     0 NNew     24
 CISAX will form    24 AO SS matrices at one time.
 New state      1 was old state      2
 New state      2 was old state      8
 New state      3 was old state     10
 New state      4 was old state      5
 New state      5 was old state      4
 New state      6 was old state      3
 New state      7 was old state      6
 New state      8 was old state      9
 New state      9 was old state     22
 New state     10 was old state     16
 Vector   5 SDiff=8.39D+00 TDiff=9.71D+00 assumed to be singlet.
 Vector  11 SDiff=8.45D+00 TDiff=9.50D+00 assumed to be singlet.
 Iteration     2 Dimension    36 NMult    24 NNew     12
 New state      2 was old state      3
 New state      3 was old state      2
 New state      5 was old state      8
 Iteration     3 Dimension    48 NMult    36 NNew     12
 Iteration     4 Dimension    60 NMult    48 NNew     12
 Iteration     5 Dimension    72 NMult    60 NNew     12
 Iteration     6 Dimension    84 NMult    72 NNew     12
 No map to state      3
 Iteration     7 Dimension    88 NMult    84 NNew      4
 New state      2 was old state      3
 New state      3 was old state      2
 Iteration     8 Dimension    92 NMult    88 NNew      4
 Iteration     9 Dimension    96 NMult    92 NNew      4
 Iteration    10 Dimension   100 NMult    96 NNew      4
 ***********************************************************************
 Excited states from <AA,BB:AA,BB> singles matrix:
 ***********************************************************************
 
 Ground to excited state transition densities written to RWF  633
 Ground to excited state transition electric dipole moments (Au):
       state          X           Y           Z        Dip. S.      Osc.
         1        -0.0000      0.0000      0.0000      0.0000      0.0000
         2        -0.0000     -0.0000      0.0000      0.0000      0.0000
         3        -0.0000      0.0000     -0.0000      0.0000      0.0000
         4        -1.8183     -0.9730     -0.0997      4.2628      0.4264
         5        -0.5691     -0.1966      0.0227      0.3630      0.0380
         6        -0.0147     -0.0386      0.0677      0.0063      0.0007
 Ground to excited state transition velocity dipole moments (Au):
       state          X           Y           Z        Dip. S.      Osc.
         1         0.0000      0.0000     -0.0000      0.0000      0.0000
         2         0.0000     -0.0000     -0.0000      0.0000      0.0000
         3         0.0000     -0.0000      0.0000      0.0000      0.0000
         4         0.2635      0.1445      0.0162      0.0906      0.4024
         5         0.0921      0.0216      0.0017      0.0089      0.0380
         6         0.0028      0.0065     -0.0106      0.0002      0.0006
 Ground to excited state transition magnetic dipole moments (Au):
       state          X           Y           Z
         1         0.0000      0.0000      0.0000
         2        -0.0000      0.0000     -0.0000
         3         0.0000      0.0000     -0.0000
         4         0.6329     -0.9565     -0.4984
         5         0.6840      0.1388      0.0885
         6         0.0903     -0.0442      0.0466
 Ground to excited state transition velocity quadrupole moments (Au):
       state          XX          YY          ZZ          XY          XZ          YZ
         1         0.0000      0.0000      0.0000      0.0000     -0.0000      0.0000
         2        -0.0000      0.0000     -0.0000     -0.0000     -0.0000     -0.0000
         3        -0.0000      0.0000      0.0000      0.0000     -0.0000      0.0000
         4        -1.9518      0.5248      0.0127     -0.7544      0.0676      0.0289
         5        -0.7056     -0.0777      0.0532     -0.1898      0.0215     -0.0356
         6         0.0218     -0.0106     -0.0165      0.0207     -0.0216      0.0259
 <0|del|b> * <b|rxdel|0> + <0|del|b> * <b|delr+rdel|0>
 Rotatory Strengths (R) in cgs (10**-40 erg-esu-cm/Gauss)
       state          XX          YY          ZZ    R(velocity)    E-M Angle
         1        -0.0000     -0.0000      0.0000     -0.0000       90.00
         2         0.0000     -0.0000      0.0000      0.0000       90.00
         3        -0.0000      0.0000     -0.0000      0.0000       90.00
         4      -396.5447    420.7295     72.3851     32.1899       86.88
         5         5.3246    135.5919    157.1296     99.3487        6.45
         6        -1.8107      0.1149     -0.5106     -0.7355      111.80
 1/2[<0|r|b>*<b|rxdel|0> + (<0|rxdel|b>*<b|r|0>)*]
 Rotatory Strengths (R) in cgs (10**-40 erg-esu-cm/Gauss)
       state          XX          YY          ZZ     R(length)
         1         0.0000     -0.0000     -0.0000     -0.0000
         2        -0.0000      0.0000      0.0000     -0.0000
         3         0.0000     -0.0000     -0.0000      0.0000
         4       813.8454   -658.1085    -35.1295     40.2025
         5       275.2874     19.2993     -1.4191     97.7225
         6         0.9380     -1.2064     -2.2317     -0.8334
  1/2[<0|del|b>*<b|r|0> + (<0|r|b>*<b|del|0>)*] (Au)
       state          X           Y           Z        Dip. S.   Osc.(frdel)
         1        -0.0000      0.0000     -0.0000      0.0000      0.0000
         2        -0.0000      0.0000     -0.0000      0.0000      0.0000
         3        -0.0000     -0.0000     -0.0000      0.0000      0.0000
         4        -0.4791     -0.1406     -0.0016      0.6213      0.4142
         5        -0.0524     -0.0042      0.0000      0.0566      0.0377
         6        -0.0000     -0.0002     -0.0007      0.0010      0.0007

 Excitation energies and oscillator strengths:
 
 Excited State   1:      Triplet-A      2.4702 eV  501.92 nm  f=0.0000  <S**2>=2.000
     100 ->101         0.68740
     100 <-101         0.10271
 This state for optimization and/or second-order correction.
 Total Energy, E(TD-HF/TD-DFT) =  -2139.70272623    
 Copying the excited state density for this state as the 1-particle RhoCI density.
 
 Excited State   2:      Triplet-A      3.6984 eV  335.24 nm  f=0.0000  <S**2>=2.000
      95 ->101         0.16423
      96 ->102        -0.33307
      98 ->101        -0.21808
      98 ->102         0.28900
      98 ->104         0.11044
      99 ->104         0.42066
 
 Excited State   3:      Triplet-A      3.7160 eV  333.65 nm  f=0.0000  <S**2>=2.000
      95 ->101         0.38266
      96 ->101        -0.32746
      96 ->102         0.14681
      98 ->101        -0.33871
      98 ->102        -0.12431
      99 ->101         0.12276
      99 ->104        -0.18594
 
 Excited State   4:      Singlet-A      4.0827 eV  303.68 nm  f=0.4264  <S**2>=0.000
      98 ->101        -0.16159
     100 ->101         0.67109
 
 Excited State   5:      Singlet-A      4.2696 eV  290.39 nm  f=0.0380  <S**2>=0.000
      95 ->101        -0.33870
      96 ->101         0.33678
      98 ->101         0.45624
      99 ->101        -0.16593
     100 ->101         0.15821
 
 Excited State   6:      Singlet-A      4.5688 eV  271.37 nm  f=0.0007  <S**2>=0.000
      98 ->101         0.20939
      99 ->101         0.67274
 SavETr:  write IOETrn=   770 NScale= 10 NData=  16 NLR=1 NState=    6 LETran=     118.

 **********************************************************************

            Population analysis using the SCF Density.

 **********************************************************************

 Orbital symmetries:
       Occupied  (A) (A) (A) (A) (A) (A) (A) (A) (A) (A) (A) (A)
                 (A) (A) (A) (A) (A) (A) (A) (A) (A) (A) (A) (A)
                 (A) (A) (A) (A) (A) (A) (A) (A) (A) (A) (A) (A)
                 (A) (A) (A) (A) (A) (A) (A) (A) (A) (A) (A) (A)
                 (A) (A) (A) (A) (A) (A) (A) (A) (A) (A) (A) (A)
                 (A) (A) (A) (A) (A) (A) (A) (A) (A) (A) (A) (A)
                 (A) (A) (A) (A) (A) (A) (A) (A) (A) (A) (A) (A)
                 (A) (A) (A) (A) (A) (A) (A) (A) (A) (A) (A) (A)
                 (A) (A) (A) (A)
       Virtual   (A) (A) (A) (A) (A) (A) (A) (A) (A) (A) (A) (A)
                 (A) (A) (A) (A) (A) (A) (A) (A) (A) (A) (A) (A)
                 (A) (A) (A) (A) (A) (A) (A) (A) (A) (A) (A) (A)
                 (A) (A) (A) (A) (A) (A) (A) (A) (A) (A) (A) (A)
                 (A) (A) (A) (A) (A) (A) (A) (A) (A) (A) (A) (A)
                 (A) (A) (A) (A) (A) (A) (A) (A) (A) (A) (A) (A)
                 (A) (A) (A) (A) (A) (A) (A) (A) (A) (A) (A) (A)
                 (A) (A) (A) (A) (A) (A) (A) (A) (A) (A) (A) (A)
                 (A) (A) (A) (A) (A) (A) (A) (A) (A) (A) (A) (A)
                 (A) (A) (A) (A) (A) (A) (A) (A) (A) (A) (A) (A)
                 (A) (A) (A) (A) (A) (A) (A) (A) (A) (A) (A) (A)
                 (A) (A) (A) (A) (A) (A) (A) (A) (A) (A) (A) (A)
                 (A) (A) (A) (A) (A) (A) (A) (A) (A) (A) (A) (A)
                 (A) (A) (A) (A) (A) (A) (A) (A) (A) (A) (A) (A)
                 (A) (A) (A) (A) (A) (A) (A) (A) (A) (A) (A) (A)
                 (A) (A) (A) (A) (A) (A) (A) (A) (A) (A) (A) (A)
                 (A) (A) (A) (A) (A) (A) (A) (A) (A) (A) (A) (A)
                 (A) (A) (A) (A) (A) (A) (A) (A) (A) (A) (A) (A)
                 (A) (A) (A) (A) (A) (A) (A) (A) (A) (A) (A) (A)
                 (A) (A) (A) (A) (A) (A) (A) (A) (A) (A) (A) (A)
                 (A) (A) (A) (A) (A) (A) (A) (A) (A) (A) (A) (A)
                 (A) (A) (A) (A) (A) (A) (A) (A) (A) (A) (A) (A)
                 (A) (A) (A) (A) (A) (A) (A) (A) (A) (A) (A) (A)
                 (A) (A) (A) (A) (A) (A) (A) (A) (A) (A) (A) (A)
                 (A) (A) (A) (A) (A) (A) (A) (A) (A) (A) (A) (A)
                 (A) (A) (A) (A) (A) (A) (A) (A) (A) (A) (A) (A)
                 (A) (A) (A) (A) (A) (A) (A) (A) (A) (A) (A) (A)
                 (A) (A) (A) (A) (A) (A) (A) (A) (A) (A) (A) (A)
                 (A) (A) (A) (A) (A) (A) (A) (A) (A) (A) (A) (A)
                 (A) (A) (A) (A) (A) (A) (A) (A) (A) (A) (A) (A)
                 (A) (A) (A) (A) (A) (A) (A) (A) (A) (A) (A) (A)
                 (A) (A) (A) (A) (A) (A) (A) (A) (A) (A) (A) (A)
                 (A) (A) (A) (A) (A) (A) (A) (A) (A) (A) (A) (A)
                 (A) (A) (A) (A) (A) (A) (A) (A) (A) (A) (A) (A)
                 (A) (A) (A) (A) (A) (A) (A) (A) (A) (A) (A) (A)
                 (A) (A) (A) (A) (A) (A) (A)
 The electronic state is 1-A.
 Alpha  occ. eigenvalues -- -101.58905 -88.94887 -24.77062 -24.76820 -24.76697
 Alpha  occ. eigenvalues --  -24.76565 -24.75996 -19.21423 -19.15602 -14.36709
 Alpha  occ. eigenvalues --  -10.33712 -10.33298 -10.32861 -10.32721 -10.32691
 Alpha  occ. eigenvalues --  -10.32577 -10.30277 -10.27640 -10.26676 -10.26550
 Alpha  occ. eigenvalues --  -10.25659 -10.25653 -10.23909 -10.23226 -10.22852
 Alpha  occ. eigenvalues --   -9.50373  -8.00714  -7.26822  -7.25785  -7.25761
 Alpha  occ. eigenvalues --   -5.97159  -5.96778  -5.96396  -1.28712  -1.27947
 Alpha  occ. eigenvalues --   -1.27353  -1.26620  -1.26225  -1.11802  -1.03750
 Alpha  occ. eigenvalues --   -0.96751  -0.93551  -0.92598  -0.87922  -0.83979
 Alpha  occ. eigenvalues --   -0.80242  -0.79751  -0.77363  -0.75436  -0.74982
 Alpha  occ. eigenvalues --   -0.71224  -0.68547  -0.66503  -0.64522  -0.61650
 Alpha  occ. eigenvalues --   -0.61417  -0.59556  -0.59181  -0.58024  -0.57163
 Alpha  occ. eigenvalues --   -0.56849  -0.56124  -0.55115  -0.54637  -0.54042
 Alpha  occ. eigenvalues --   -0.53190  -0.51827  -0.51647  -0.50715  -0.49502
 Alpha  occ. eigenvalues --   -0.48982  -0.48697  -0.48452  -0.46829  -0.46519
 Alpha  occ. eigenvalues --   -0.46198  -0.46049  -0.44819  -0.44557  -0.43782
 Alpha  occ. eigenvalues --   -0.43655  -0.42982  -0.42580  -0.41543  -0.41396
 Alpha  occ. eigenvalues --   -0.40846  -0.39921  -0.38696  -0.38258  -0.37378
 Alpha  occ. eigenvalues --   -0.36225  -0.34293  -0.33774  -0.31512  -0.30222
 Alpha  occ. eigenvalues --   -0.28978  -0.28873  -0.28271  -0.28076  -0.25297
 Alpha virt. eigenvalues --   -0.09221  -0.05128  -0.04635  -0.04057  -0.02142
 Alpha virt. eigenvalues --   -0.01989  -0.01345  -0.00782  -0.00409  -0.00216
 Alpha virt. eigenvalues --    0.00482   0.01032   0.01821   0.01978   0.02653
 Alpha virt. eigenvalues --    0.02960   0.03273   0.03837   0.04247   0.04924
 Alpha virt. eigenvalues --    0.05017   0.05385   0.05833   0.06021   0.06634
 Alpha virt. eigenvalues --    0.07101   0.07207   0.07595   0.07933   0.08198
 Alpha virt. eigenvalues --    0.08596   0.09055   0.09323   0.09795   0.10124
 Alpha virt. eigenvalues --    0.10493   0.10867   0.11127   0.11438   0.11521
 Alpha virt. eigenvalues --    0.12071   0.12242   0.12364   0.12818   0.12905
 Alpha virt. eigenvalues --    0.13627   0.13951   0.14369   0.14593   0.14671
 Alpha virt. eigenvalues --    0.14890   0.15127   0.15557   0.15681   0.16242
 Alpha virt. eigenvalues --    0.16514   0.16840   0.17104   0.17146   0.17327
 Alpha virt. eigenvalues --    0.17873   0.18174   0.18820   0.18986   0.19132
 Alpha virt. eigenvalues --    0.19518   0.19850   0.20000   0.20420   0.20725
 Alpha virt. eigenvalues --    0.21144   0.21422   0.21743   0.22135   0.22518
 Alpha virt. eigenvalues --    0.22719   0.23194   0.23378   0.23797   0.23929
 Alpha virt. eigenvalues --    0.24576   0.25005   0.25742   0.26000   0.26347
 Alpha virt. eigenvalues --    0.26736   0.27036   0.27412   0.27942   0.28128
 Alpha virt. eigenvalues --    0.28541   0.28702   0.29218   0.29597   0.29965
 Alpha virt. eigenvalues --    0.30706   0.31021   0.31486   0.31540   0.32049
 Alpha virt. eigenvalues --    0.32362   0.33063   0.33319   0.33728   0.33972
 Alpha virt. eigenvalues --    0.34421   0.34814   0.34976   0.35536   0.36119
 Alpha virt. eigenvalues --    0.36996   0.37024   0.37159   0.37908   0.38030
 Alpha virt. eigenvalues --    0.38254   0.39038   0.39352   0.39548   0.40133
 Alpha virt. eigenvalues --    0.40943   0.41225   0.41778   0.42357   0.42650
 Alpha virt. eigenvalues --    0.43181   0.43872   0.44163   0.45205   0.45856
 Alpha virt. eigenvalues --    0.46971   0.47481   0.48616   0.49289   0.51155
 Alpha virt. eigenvalues --    0.51565   0.51759   0.51997   0.53213   0.53513
 Alpha virt. eigenvalues --    0.54673   0.55700   0.59525   0.60133   0.60876
 Alpha virt. eigenvalues --    0.61576   0.62338   0.63341   0.63893   0.64479
 Alpha virt. eigenvalues --    0.65971   0.66783   0.67082   0.68347   0.68648
 Alpha virt. eigenvalues --    0.69384   0.69532   0.69976   0.70839   0.71307
 Alpha virt. eigenvalues --    0.71599   0.72305   0.72668   0.73723   0.74906
 Alpha virt. eigenvalues --    0.75151   0.75544   0.76738   0.77241   0.77845
 Alpha virt. eigenvalues --    0.79736   0.80490   0.80991   0.83085   0.83230
 Alpha virt. eigenvalues --    0.83943   0.84242   0.84709   0.86035   0.86652
 Alpha virt. eigenvalues --    0.86950   0.88680   0.88874   0.90918   0.91181
 Alpha virt. eigenvalues --    0.92910   0.93648   0.94289   0.94710   0.95816
 Alpha virt. eigenvalues --    0.96064   0.96758   0.97713   0.99808   1.00819
 Alpha virt. eigenvalues --    1.02563   1.03923   1.04772   1.05562   1.06925
 Alpha virt. eigenvalues --    1.07258   1.07919   1.08907   1.10377   1.11236
 Alpha virt. eigenvalues --    1.12019   1.12877   1.13807   1.15493   1.16202
 Alpha virt. eigenvalues --    1.16611   1.17234   1.18122   1.18286   1.20415
 Alpha virt. eigenvalues --    1.21102   1.21540   1.22454   1.22848   1.24056
 Alpha virt. eigenvalues --    1.25586   1.25601   1.27161   1.27450   1.27613
 Alpha virt. eigenvalues --    1.28401   1.28885   1.29248   1.30306   1.31112
 Alpha virt. eigenvalues --    1.31504   1.32708   1.33551   1.34831   1.35690
 Alpha virt. eigenvalues --    1.37741   1.37819   1.39171   1.40273   1.42109
 Alpha virt. eigenvalues --    1.43078   1.45372   1.46124   1.48152   1.51381
 Alpha virt. eigenvalues --    1.51411   1.54093   1.54305   1.56246   1.58427
 Alpha virt. eigenvalues --    1.58849   1.59490   1.60018   1.61492   1.61720
 Alpha virt. eigenvalues --    1.62581   1.64182   1.64737   1.65154   1.65531
 Alpha virt. eigenvalues --    1.66922   1.67294   1.68560   1.69637   1.70230
 Alpha virt. eigenvalues --    1.71466   1.72180   1.72755   1.73843   1.74562
 Alpha virt. eigenvalues --    1.74731   1.74894   1.75454   1.75716   1.75832
 Alpha virt. eigenvalues --    1.76747   1.78065   1.78769   1.79255   1.79984
 Alpha virt. eigenvalues --    1.80754   1.80910   1.81646   1.82388   1.83259
 Alpha virt. eigenvalues --    1.83946   1.84598   1.85066   1.86082   1.86258
 Alpha virt. eigenvalues --    1.86870   1.87975   1.88457   1.89370   1.90182
 Alpha virt. eigenvalues --    1.90803   1.91967   1.93032   1.94060   1.94554
 Alpha virt. eigenvalues --    1.95303   1.96135   1.98881   1.99470   2.00344
 Alpha virt. eigenvalues --    2.01143   2.01990   2.02736   2.04029   2.05672
 Alpha virt. eigenvalues --    2.06525   2.07651   2.07903   2.10238   2.11786
 Alpha virt. eigenvalues --    2.12711   2.13760   2.14582   2.15430   2.16710
 Alpha virt. eigenvalues --    2.17781   2.18003   2.19643   2.20783   2.21261
 Alpha virt. eigenvalues --    2.23179   2.24260   2.25531   2.27101   2.27724
 Alpha virt. eigenvalues --    2.28960   2.30480   2.30722   2.31418   2.31851
 Alpha virt. eigenvalues --    2.33548   2.34290   2.35358   2.36346   2.37146
 Alpha virt. eigenvalues --    2.38980   2.39513   2.40851   2.42509   2.45872
 Alpha virt. eigenvalues --    2.46717   2.47981   2.48564   2.51023   2.52967
 Alpha virt. eigenvalues --    2.54281   2.54983   2.56154   2.57411   2.58071
 Alpha virt. eigenvalues --    2.59147   2.61080   2.62789   2.63673   2.64660
 Alpha virt. eigenvalues --    2.65600   2.68323   2.68585   2.69517   2.70259
 Alpha virt. eigenvalues --    2.73083   2.74012   2.75732   2.78415   2.79177
 Alpha virt. eigenvalues --    2.81149   2.83662   2.83879   2.84860   2.86136
 Alpha virt. eigenvalues --    2.89961   2.95695   2.96656   3.02740   3.05047
 Alpha virt. eigenvalues --    3.05253   3.08041   3.11917   3.13471   3.14654
 Alpha virt. eigenvalues --    3.16561   3.16677   3.21167   3.21532   3.24036
 Alpha virt. eigenvalues --    3.27642   3.29441   3.33622   3.37298   3.37422
 Alpha virt. eigenvalues --    3.42735   3.43972   3.46933   3.48931   3.54645
 Alpha virt. eigenvalues --    3.59867   3.63454   3.94406   4.20668   4.26562
 Alpha virt. eigenvalues --    4.27233   4.28427   4.30755   4.32036   4.33729
 Alpha virt. eigenvalues --    4.37865   4.40799   4.46050   4.50571   4.51674
 Alpha virt. eigenvalues --    4.54526   4.57864   4.62362   4.64350   4.68242
 Alpha virt. eigenvalues --    4.83309   4.90092   5.52844   6.13846   6.62430
 Alpha virt. eigenvalues --    7.01620   8.09136
          Condensed to atoms (all electrons):
               1          2          3          4          5          6
     1  C    5.152977  -0.014077  -0.007570   0.026830  -0.123412  -0.003937
     2  O   -0.014077   8.405403   0.411821  -0.075437  -0.423418   0.052914
     3  C   -0.007570   0.411821   7.728687   0.406788  -2.931999   1.772085
     4  O    0.026830  -0.075437   0.406788   8.130425  -0.068624  -0.114066
     5  C   -0.123412  -0.423418  -2.931999  -0.068624  14.253520  -3.972980
     6  C   -0.003937   0.052914   1.772085  -0.114066  -3.972980  20.439257
     7  C   -0.114410   0.001111  -1.647127   0.067377   2.402078 -11.140178
     8  C    0.009618   0.000780  -0.273492   0.004284   0.462785  -1.207207
     9  F    0.000513   0.000155   0.016888  -0.000179   0.023138  -0.070336
    10  C   -0.000535   0.001332   0.026867  -0.003004   0.652983  -0.847803
    11  F   -0.000010   0.000000   0.000376   0.000000   0.000347   0.000097
    12  C    0.000360  -0.000049  -0.019134   0.000603  -0.210544   0.003287
    13  F    0.000002   0.000000   0.000193   0.000000   0.001936   0.009498
    14  C    0.000891  -0.000274   0.041801  -0.002475   0.230460  -0.427231
    15  F    0.000003  -0.000000   0.000152  -0.000000   0.000241  -0.002280
    16  C    0.003173   0.000328   0.263730  -0.010727  -1.477136   0.623885
    17  F    0.000012   0.000009   0.013729   0.000007   0.014647  -0.126954
    18  N    0.053620   0.061309   0.215806   0.021881  -0.573571  -0.085268
    19  C   -0.085150   0.007667  -0.400477   0.004777  -1.304983  -0.758869
    20  C    0.019373  -0.007471   0.083402   0.010640  -0.939890   0.992942
    21  C   -0.011766  -0.004844  -0.104428   0.000798   0.249341  -0.081804
    22  C    0.003565   0.001430   0.028508  -0.000215  -0.156883   0.069226
    23  C   -0.000432  -0.000365  -0.002495   0.000273   0.002301  -0.014006
    24  Cl  -0.000172  -0.000011   0.000000   0.000000  -0.003978   0.001320
    25  S    0.007684   0.005648   0.034974  -0.002997  -0.192639   0.065139
    26  H    0.452154  -0.065456   0.032040  -0.000937  -0.050804  -0.001960
    27  H    0.384580  -0.032481  -0.016690   0.000435  -0.046324  -0.006620
    28  H    0.374230  -0.047018  -0.051757  -0.000393   0.122020   0.006992
    29  H   -0.010439   0.000349  -0.102323   0.010483   0.353513  -0.062131
    30  H   -0.000458   0.000051  -0.031622   0.000019   0.014414   0.203539
    31  H   -0.001395  -0.000298  -0.035981   0.004003  -0.080825   0.529668
    32  H    0.003156  -0.000025  -0.008967   0.000018  -0.047129  -0.007646
    33  H    0.000062  -0.000000   0.000029  -0.000000   0.004102  -0.000862
    34  H   -0.000000  -0.000000   0.000003   0.000000   0.000157  -0.000002
               7          8          9         10         11         12
     1  C   -0.114410   0.009618   0.000513  -0.000535  -0.000010   0.000360
     2  O    0.001111   0.000780   0.000155   0.001332   0.000000  -0.000049
     3  C   -1.647127  -0.273492   0.016888   0.026867   0.000376  -0.019134
     4  O    0.067377   0.004284  -0.000179  -0.003004   0.000000   0.000603
     5  C    2.402078   0.462785   0.023138   0.652983   0.000347  -0.210544
     6  C  -11.140178  -1.207207  -0.070336  -0.847803   0.000097   0.003287
     7  C   22.343033  -1.898837  -0.051934   0.998396  -0.072074  -1.600348
     8  C   -1.898837  15.516133   0.116220  -4.261582   0.034191   0.624979
     9  F   -0.051934   0.116220   9.399259   0.023574  -0.012715  -0.028820
    10  C    0.998396  -4.261582   0.023574  12.237867   0.002806  -1.865743
    11  F   -0.072074   0.034191  -0.012715   0.002806   9.423924   0.036131
    12  C   -1.600348   0.624979  -0.028820  -1.865743   0.036131   9.896647
    13  F    0.009708  -0.082745  -0.000094   0.046382  -0.014478  -0.010299
    14  C    0.634024  -2.038783   0.020145   1.260531  -0.085896  -2.000446
    15  F   -0.084568   0.036865   0.000073  -0.081495   0.000052   0.024601
    16  C   -4.234636  -0.656174  -0.093119  -2.162258   0.028368   0.537949
    17  F   -0.022240  -0.097788  -0.000480   0.014040   0.000078  -0.046232
    18  N   -0.053788  -0.036139   0.003873  -0.026791   0.000153   0.016057
    19  C    1.199665  -0.356950  -0.012368   0.078023  -0.003666  -0.100746
    20  C   -1.258886   0.336200  -0.004663  -0.444056   0.003148   0.302821
    21  C    0.354769  -0.153686   0.001442   0.108845  -0.000170  -0.133635
    22  C   -0.108858   0.021475  -0.000086  -0.033274   0.000116   0.033749
    23  C    0.023248  -0.004811   0.000013   0.005717  -0.000016  -0.014148
    24  Cl  -0.003276   0.000343  -0.000001  -0.000420  -0.000000   0.000919
    25  S   -0.192474   0.044259  -0.000496  -0.034574  -0.000029   0.038930
    26  H   -0.002288  -0.000015  -0.000002   0.000001   0.000000   0.000003
    27  H    0.003820   0.003376  -0.000037  -0.000435  -0.000000   0.000064
    28  H    0.003167  -0.000944   0.000013   0.000059  -0.000000  -0.000052
    29  H    0.054057   0.039013   0.000227  -0.001418   0.000017  -0.000428
    30  H    0.056456   0.054576   0.000735   0.024385  -0.000004   0.002062
    31  H   -0.090581  -0.028088   0.000302  -0.004474   0.000006  -0.000860
    32  H   -0.018378   0.007086  -0.000487  -0.017928  -0.000024   0.002787
    33  H   -0.000860   0.001290  -0.000000  -0.000111  -0.000001   0.000016
    34  H    0.000016  -0.000015  -0.000000   0.000013  -0.000000  -0.000001
              13         14         15         16         17         18
     1  C    0.000002   0.000891   0.000003   0.003173   0.000012   0.053620
     2  O    0.000000  -0.000274  -0.000000   0.000328   0.000009   0.061309
     3  C    0.000193   0.041801   0.000152   0.263730   0.013729   0.215806
     4  O    0.000000  -0.002475  -0.000000  -0.010727   0.000007   0.021881
     5  C    0.001936   0.230460   0.000241  -1.477136   0.014647  -0.573571
     6  C    0.009498  -0.427231  -0.002280   0.623885  -0.126954  -0.085268
     7  C    0.009708   0.634024  -0.084568  -4.234636  -0.022240  -0.053788
     8  C   -0.082745  -2.038783   0.036865  -0.656174  -0.097788  -0.036139
     9  F   -0.000094   0.020145   0.000073  -0.093119  -0.000480   0.003873
    10  C    0.046382   1.260531  -0.081495  -2.162258   0.014040  -0.026791
    11  F   -0.014478  -0.085896   0.000052   0.028368   0.000078   0.000153
    12  C   -0.010299  -2.000446   0.024601   0.537949  -0.046232   0.016057
    13  F    9.414029   0.047044  -0.013965  -0.074889  -0.000072   0.000061
    14  C    0.047044  12.416253   0.017343  -4.278683   0.032299  -0.006578
    15  F   -0.013965   0.017343   9.412152   0.042346  -0.015208   0.000545
    16  C   -0.074889  -4.278683   0.042346  16.689445   0.204880   0.162562
    17  F   -0.000072   0.032299  -0.015208   0.204880   9.360099   0.006459
    18  N    0.000061  -0.006578   0.000545   0.162562   0.006459   7.018346
    19  C    0.000820   0.333653  -0.008499  -0.212837  -0.016350   0.287635
    20  C   -0.002407  -0.494938   0.007200   0.777652  -0.011909  -0.082941
    21  C    0.000188   0.120551  -0.001034  -0.235168   0.010816  -0.039331
    22  C    0.000039  -0.031351   0.000288   0.052162  -0.002151   0.009878
    23  C   -0.000046   0.001353  -0.000311   0.009761   0.001425  -0.008177
    24  Cl  -0.000001  -0.000588   0.000002   0.001390   0.000004  -0.002486
    25  S   -0.000072  -0.047956   0.000565   0.134344  -0.002365   0.015449
    26  H    0.000000  -0.000003   0.000000   0.000046  -0.000000   0.002626
    27  H   -0.000000  -0.000085  -0.000000   0.000228   0.000000  -0.000463
    28  H    0.000000   0.000051   0.000000  -0.000814   0.000001  -0.016824
    29  H   -0.000001   0.001022   0.000001  -0.032792  -0.000066  -0.047145
    30  H   -0.000000  -0.001151   0.000004  -0.026484   0.000120   0.005071
    31  H    0.000001   0.017670   0.000013  -0.031458   0.007413   0.002408
    32  H   -0.000004  -0.007183  -0.000000   0.036501  -0.000001  -0.026743
    33  H   -0.000001   0.000239  -0.000002   0.000526  -0.000001   0.002028
    34  H    0.000000   0.000079   0.000000  -0.000090   0.000000   0.000202
              19         20         21         22         23         24
     1  C   -0.085150   0.019373  -0.011766   0.003565  -0.000432  -0.000172
     2  O    0.007667  -0.007471  -0.004844   0.001430  -0.000365  -0.000011
     3  C   -0.400477   0.083402  -0.104428   0.028508  -0.002495   0.000000
     4  O    0.004777   0.010640   0.000798  -0.000215   0.000273   0.000000
     5  C   -1.304983  -0.939890   0.249341  -0.156883   0.002301  -0.003978
     6  C   -0.758869   0.992942  -0.081804   0.069226  -0.014006   0.001320
     7  C    1.199665  -1.258886   0.354769  -0.108858   0.023248  -0.003276
     8  C   -0.356950   0.336200  -0.153686   0.021475  -0.004811   0.000343
     9  F   -0.012368  -0.004663   0.001442  -0.000086   0.000013  -0.000001
    10  C    0.078023  -0.444056   0.108845  -0.033274   0.005717  -0.000420
    11  F   -0.003666   0.003148  -0.000170   0.000116  -0.000016  -0.000000
    12  C   -0.100746   0.302821  -0.133635   0.033749  -0.014148   0.000919
    13  F    0.000820  -0.002407   0.000188   0.000039  -0.000046  -0.000001
    14  C    0.333653  -0.494938   0.120551  -0.031351   0.001353  -0.000588
    15  F   -0.008499   0.007200  -0.001034   0.000288  -0.000311   0.000002
    16  C   -0.212837   0.777652  -0.235168   0.052162   0.009761   0.001390
    17  F   -0.016350  -0.011909   0.010816  -0.002151   0.001425   0.000004
    18  N    0.287635  -0.082941  -0.039331   0.009878  -0.008177  -0.002486
    19  C    9.288818  -1.428014   0.130601  -0.100736  -0.354207  -0.038913
    20  C   -1.428014  10.658384  -3.996725   1.969444  -0.877552  -0.049198
    21  C    0.130601  -3.996725  12.232431  -2.612067   1.463725  -0.000151
    22  C   -0.100736   1.969444  -2.612067   7.936966  -0.777851  -0.247773
    23  C   -0.354207  -0.877552   1.463725  -0.777851   6.975220   0.039363
    24  Cl  -0.038913  -0.049198  -0.000151  -0.247773   0.039363  16.926842
    25  S   -0.259310   0.930784  -1.539568  -0.015958  -0.336723   0.131197
    26  H   -0.011754   0.003503   0.000622  -0.000018   0.000102  -0.000001
    27  H    0.054838   0.002183   0.000404   0.000471   0.000115   0.000003
    28  H   -0.010448  -0.013370  -0.003030  -0.001622  -0.001242  -0.000007
    29  H   -0.008231   0.012183   0.011972  -0.001594   0.001068  -0.000007
    30  H    0.014725  -0.003988  -0.000012   0.000012  -0.000023   0.000000
    31  H    0.032416   0.004159   0.001115  -0.000032   0.000069  -0.000003
    32  H    0.275043  -0.075932   0.114754   0.011958   0.004812  -0.000268
    33  H    0.034657   0.013389   0.272185  -0.058452   0.008001   0.001499
    34  H    0.003611   0.012630  -0.021808   0.312562  -0.005940  -0.004061
              25         26         27         28         29         30
     1  C    0.007684   0.452154   0.384580   0.374230  -0.010439  -0.000458
     2  O    0.005648  -0.065456  -0.032481  -0.047018   0.000349   0.000051
     3  C    0.034974   0.032040  -0.016690  -0.051757  -0.102323  -0.031622
     4  O   -0.002997  -0.000937   0.000435  -0.000393   0.010483   0.000019
     5  C   -0.192639  -0.050804  -0.046324   0.122020   0.353513   0.014414
     6  C    0.065139  -0.001960  -0.006620   0.006992  -0.062131   0.203539
     7  C   -0.192474  -0.002288   0.003820   0.003167   0.054057   0.056456
     8  C    0.044259  -0.000015   0.003376  -0.000944   0.039013   0.054576
     9  F   -0.000496  -0.000002  -0.000037   0.000013   0.000227   0.000735
    10  C   -0.034574   0.000001  -0.000435   0.000059  -0.001418   0.024385
    11  F   -0.000029   0.000000  -0.000000  -0.000000   0.000017  -0.000004
    12  C    0.038930   0.000003   0.000064  -0.000052  -0.000428   0.002062
    13  F   -0.000072   0.000000  -0.000000   0.000000  -0.000001  -0.000000
    14  C   -0.047956  -0.000003  -0.000085   0.000051   0.001022  -0.001151
    15  F    0.000565   0.000000  -0.000000   0.000000   0.000001   0.000004
    16  C    0.134344   0.000046   0.000228  -0.000814  -0.032792  -0.026484
    17  F   -0.002365  -0.000000   0.000000   0.000001  -0.000066   0.000120
    18  N    0.015449   0.002626  -0.000463  -0.016824  -0.047145   0.005071
    19  C   -0.259310  -0.011754   0.054838  -0.010448  -0.008231   0.014725
    20  C    0.930784   0.003503   0.002183  -0.013370   0.012183  -0.003988
    21  C   -1.539568   0.000622   0.000404  -0.003030   0.011972  -0.000012
    22  C   -0.015958  -0.000018   0.000471  -0.001622  -0.001594   0.000012
    23  C   -0.336723   0.000102   0.000115  -0.001242   0.001068  -0.000023
    24  Cl   0.131197  -0.000001   0.000003  -0.000007  -0.000007   0.000000
    25  S   16.957385  -0.000533   0.000386   0.000846  -0.005480   0.000190
    26  H   -0.000533   0.539508  -0.028788  -0.028507   0.000197  -0.000000
    27  H    0.000386  -0.028788   0.581906  -0.043741   0.002584   0.000002
    28  H    0.000846  -0.028507  -0.043741   0.545533  -0.000494   0.000000
    29  H   -0.005480   0.000197   0.002584  -0.000494   0.644042  -0.001134
    30  H    0.000190  -0.000000   0.000002   0.000000  -0.001134   0.525058
    31  H   -0.001935   0.000000  -0.000002   0.000000   0.004597  -0.021452
    32  H   -0.013639   0.000025  -0.000023  -0.000185   0.014801  -0.000020
    33  H    0.023868  -0.000000   0.000000   0.000000   0.000001   0.000000
    34  H    0.016057  -0.000000   0.000000   0.000000   0.000000  -0.000000
              31         32         33         34
     1  C   -0.001395   0.003156   0.000062  -0.000000
     2  O   -0.000298  -0.000025  -0.000000  -0.000000
     3  C   -0.035981  -0.008967   0.000029   0.000003
     4  O    0.004003   0.000018  -0.000000   0.000000
     5  C   -0.080825  -0.047129   0.004102   0.000157
     6  C    0.529668  -0.007646  -0.000862  -0.000002
     7  C   -0.090581  -0.018378  -0.000860   0.000016
     8  C   -0.028088   0.007086   0.001290  -0.000015
     9  F    0.000302  -0.000487  -0.000000  -0.000000
    10  C   -0.004474  -0.017928  -0.000111   0.000013
    11  F    0.000006  -0.000024  -0.000001  -0.000000
    12  C   -0.000860   0.002787   0.000016  -0.000001
    13  F    0.000001  -0.000004  -0.000001   0.000000
    14  C    0.017670  -0.007183   0.000239   0.000079
    15  F    0.000013  -0.000000  -0.000002   0.000000
    16  C   -0.031458   0.036501   0.000526  -0.000090
    17  F    0.007413  -0.000001  -0.000001   0.000000
    18  N    0.002408  -0.026743   0.002028   0.000202
    19  C    0.032416   0.275043   0.034657   0.003611
    20  C    0.004159  -0.075932   0.013389   0.012630
    21  C    0.001115   0.114754   0.272185  -0.021808
    22  C   -0.000032   0.011958  -0.058452   0.312562
    23  C    0.000069   0.004812   0.008001  -0.005940
    24  Cl  -0.000003  -0.000268   0.001499  -0.004061
    25  S   -0.001935  -0.013639   0.023868   0.016057
    26  H    0.000000   0.000025  -0.000000  -0.000000
    27  H   -0.000002  -0.000023   0.000000   0.000000
    28  H    0.000000  -0.000185   0.000000   0.000000
    29  H    0.004597   0.014801   0.000001   0.000000
    30  H   -0.021452  -0.000020   0.000000  -0.000000
    31  H    0.496579   0.000021   0.000000   0.000000
    32  H    0.000021   0.645106   0.001888   0.000003
    33  H    0.000000   0.001888   0.557902  -0.002824
    34  H    0.000000   0.000003  -0.002824   0.533406
 Mulliken charges:
               1
     1  C   -0.119037
     2  O   -0.279081
     3  C    0.556182
     4  O   -0.410585
     5  C   -0.182842
     6  C    0.162292
     7  C    0.444817
     8  C   -0.216219
     9  F   -0.330754
    10  C    0.304082
    11  F   -0.340729
    12  C    0.509519
    13  F   -0.330826
    14  C    0.248214
    15  F   -0.335083
    16  C   -0.042011
    17  F   -0.324222
    18  N    0.120275
    19  C   -0.274442
    20  C   -0.448097
    21  C   -0.135335
    22  C   -0.302928
    23  C   -0.138222
    24  Cl   0.248431
    25  S    0.239042
    26  H    0.160240
    27  H    0.140293
    28  H    0.167535
    29  H    0.123555
    30  H    0.184936
    31  H    0.196945
    32  H    0.106621
    33  H    0.141431
    34  H    0.156003
 Sum of Mulliken charges =  -0.00000
 Mulliken charges with hydrogens summed into heavy atoms:
               1
     1  C    0.349031
     2  O   -0.279081
     3  C    0.556182
     4  O   -0.410585
     5  C   -0.059287
     6  C    0.544173
     7  C    0.444817
     8  C   -0.216219
     9  F   -0.330754
    10  C    0.304082
    11  F   -0.340729
    12  C    0.509519
    13  F   -0.330826
    14  C    0.248214
    15  F   -0.335083
    16  C   -0.042011
    17  F   -0.324222
    18  N    0.120275
    19  C   -0.167821
    20  C   -0.448097
    21  C    0.006096
    22  C   -0.146924
    23  C   -0.138222
    24  Cl   0.248431
    25  S    0.239042
 Electronic spatial extent (au):  <R**2>=          11034.2239
 Charge=             -0.0000 electrons
 Dipole moment (field-independent basis, Debye):
    X=             -1.5373    Y=             -1.2830    Z=             -5.0307  Tot=              5.4145
 Quadrupole moment (field-independent basis, Debye-Ang):
   XX=           -157.0869   YY=           -174.5634   ZZ=           -154.2091
   XY=              1.7056   XZ=              8.8676   YZ=            -12.0364
 Traceless Quadrupole moment (field-independent basis, Debye-Ang):
   XX=              4.8662   YY=            -12.6102   ZZ=              7.7440
   XY=              1.7056   XZ=              8.8676   YZ=            -12.0364
 Octapole moment (field-independent basis, Debye-Ang**2):
  XXX=             35.4546  YYY=            -79.6668  ZZZ=            -15.7164  XYY=            -25.6917
  XXY=             -9.6179  XXZ=             24.1428  XZZ=             -4.1550  YZZ=            -17.4506
  YYZ=            -75.8876  XYZ=            -14.6699
 Hexadecapole moment (field-independent basis, Debye-Ang**3):
 XXXX=          -7870.8802 YYYY=          -5190.5346 ZZZZ=          -1262.0323 XXXY=             11.1214
 XXXZ=             24.2819 YYYX=           -125.0151 YYYZ=           -318.2508 ZZZX=            -51.1123
 ZZZY=            -37.3053 XXYY=          -2093.8561 XXZZ=          -1510.1213 YYZZ=          -1013.7148
 XXYZ=            -11.0013 YYXZ=             -4.8015 ZZXY=            -12.1880
 N-N= 2.529791434982D+03 E-N=-1.010295368534D+04  KE= 2.126042736699D+03
 Unable to Open any file for archive entry.
 1\1\GINC-N2\SP\RB3LYP TD-FC\6-31+G(d,p)\C15H9Cl1F5N1O2S1\HPCMGAC13\30-
 Sep-2025\0\\# td=(50-50,nstates=3) b3lyp/6-31+g(d,p) geom=connectivity
 \\Title Card Required\\0,1\C,0,0.770383,4.139458,1.435336\O,0,0.210118
 ,4.515534,0.167912\C,0,-0.494694,3.672269,-0.620268\O,0,-0.932219,4.08
 8025,-1.667607\C,0,-0.725466,2.219521,-0.143586\C,0,-1.762956,1.558028
 ,-1.086755\C,0,-2.167503,0.171297,-0.645757\C,0,-3.040946,-0.030688,0.
 426994\F,0,-3.526137,1.039741,1.094484\C,0,-3.442608,-1.294998,0.84764
 8\F,0,-4.28231,-1.437632,1.884211\C,0,-2.962417,-2.419901,0.179849\F,0
 ,-3.335771,-3.644569,0.571578\C,0,-2.09256,-2.262501,-0.896025\F,0,-1.
 63006,-3.341648,-1.5431\C,0,-1.708564,-0.98131,-1.290157\F,0,-0.873771
 ,-0.877017,-2.339399\N,0,0.537704,1.497281,-0.196413\C,0,0.840623,0.73
 1901,0.784979\C,0,2.046021,-0.069078,0.813611\C,0,2.458816,-0.90696,1.
 83111\C,0,3.691615,-1.559726,1.56483\C,0,4.194128,-1.200283,0.338479\C
 l,0,5.668248,-1.76362,-0.365267\S,0,3.185328,-0.069084,-0.516199\H,0,1
 .113824,5.073541,1.880316\H,0,0.02099,3.686852,2.091964\H,0,1.616022,3
 .46199,1.301788\H,0,-1.141526,2.241745,0.877822\H,0,-2.644817,2.202507
 ,-1.12604\H,0,-1.342718,1.522236,-2.091818\H,0,0.20318,0.639235,1.6792
 46\H,0,1.888059,-1.047948,2.742885\H,0,4.183621,-2.25478,2.233314\\Ver
 sion=ES64L-G16RevC.02\State=1-A\HF=-2139.7935043\RMSD=3.810e-09\PG=C01
  [X(C15H9Cl1F5N1O2S1)]\\@
 The archive entry for this job was punched.


 THE CAUTIOUS SELDOM ERR...CONFUCIUS                   
 Job cpu time:       0 days  4 hours 46 minutes 20.2 seconds.
 Elapsed time:       0 days  0 hours 36 minutes 26.8 seconds.
 File lengths (MBytes):  RWF=   1605 Int=      0 D2E=      0 Chk=     74 Scr=      2
 Normal termination of Gaussian 16 at Tue Sep 30 12:16:44 2025.
