 Entering Gaussian System, Link 0=g16
 Input=M1128E.gjf
 Output=M1128E.log
 Initial command:
 /hpc/softwares/Gaussian/g16/l1.exe "/hpc/home/hpcmgac13/pbs.13267.admin1.x8z/Gau-3061971.inp" -scrdir="/hpc/home/hpcmgac13/pbs.13267.admin1.x8z/"
 Default linda workers: n2
 Default is to use   8 SMP processors on each worker.
 Entering Link 1 = /hpc/softwares/Gaussian/g16/l1.exe PID=   3061972.
  
 Copyright (c) 1988-2021, Gaussian, Inc.  All Rights Reserved.
  
 This is part of the Gaussian(R) 16 program.  It is based on
 the Gaussian(R) 09 system (copyright 2009, Gaussian, Inc.),
 the Gaussian(R) 03 system (copyright 2003, Gaussian, Inc.),
 the Gaussian(R) 98 system (copyright 1998, Gaussian, Inc.),
 the Gaussian(R) 94 system (copyright 1995, Gaussian, Inc.),
 the Gaussian 92(TM) system (copyright 1992, Gaussian, Inc.),
 the Gaussian 90(TM) system (copyright 1990, Gaussian, Inc.),
 the Gaussian 88(TM) system (copyright 1988, Gaussian, Inc.),
 the Gaussian 86(TM) system (copyright 1986, Carnegie Mellon
 University), and the Gaussian 82(TM) system (copyright 1983,
 Carnegie Mellon University). Gaussian is a federally registered
 trademark of Gaussian, Inc.
  
 This software contains proprietary and confidential information,
 including trade secrets, belonging to Gaussian, Inc.
  
 This software is provided under written license and may be
 used, copied, transmitted, or stored only in accord with that
 written license.
  
 The following legend is applicable only to US Government
 contracts under FAR:
  
                    RESTRICTED RIGHTS LEGEND
  
 Use, reproduction and disclosure by the US Government is
 subject to restrictions as set forth in subparagraphs (a)
 and (c) of the Commercial Computer Software - Restricted
 Rights clause in FAR 52.227-19.
  
 Gaussian, Inc.
 340 Quinnipiac St., Bldg. 40, Wallingford CT 06492
  
  
 ---------------------------------------------------------------
 Warning -- This program may not be used in any manner that
 competes with the business of Gaussian, Inc. or will provide
 assistance to any competitor of Gaussian, Inc.  The licensee
 of this program is prohibited from giving any competitor of
 Gaussian, Inc. access to this program.  By using this program,
 the user acknowledges that Gaussian, Inc. is engaged in the
 business of creating and licensing software in the field of
 computational chemistry and represents and warrants to the
 licensee that it is not a competitor of Gaussian, Inc. and that
 it will not use this program in any manner prohibited above.
 ---------------------------------------------------------------
  

 Cite this work as:
 Gaussian 16, Revision C.02,
 M. J. Frisch, G. W. Trucks, H. B. Schlegel, G. E. Scuseria, 
 M. A. Robb, J. R. Cheeseman, G. Scalmani, V. Barone, 
 G. A. Petersson, H. Nakatsuji, X. Li, M. Caricato, A. V. Marenich, 
 J. Bloino, B. G. Janesko, R. Gomperts, B. Mennucci, H. P. Hratchian, 
 J. V. Ortiz, A. F. Izmaylov, J. L. Sonnenberg, D. Williams-Young, 
 F. Ding, F. Lipparini, F. Egidi, J. Goings, B. Peng, A. Petrone, 
 T. Henderson, D. Ranasinghe, V. G. Zakrzewski, J. Gao, N. Rega, 
 G. Zheng, W. Liang, M. Hada, M. Ehara, K. Toyota, R. Fukuda, 
 J. Hasegawa, M. Ishida, T. Nakajima, Y. Honda, O. Kitao, H. Nakai, 
 T. Vreven, K. Throssell, J. A. Montgomery, Jr., J. E. Peralta, 
 F. Ogliaro, M. J. Bearpark, J. J. Heyd, E. N. Brothers, K. N. Kudin, 
 V. N. Staroverov, T. A. Keith, R. Kobayashi, J. Normand, 
 K. Raghavachari, A. P. Rendell, J. C. Burant, S. S. Iyengar, 
 J. Tomasi, M. Cossi, J. M. Millam, M. Klene, C. Adamo, R. Cammi, 
 J. W. Ochterski, R. L. Martin, K. Morokuma, O. Farkas, 
 J. B. Foresman, and D. J. Fox, Gaussian, Inc., Wallingford CT, 2019.
 
 ******************************************
 Gaussian 16:  ES64L-G16RevC.02  7-Dec-2021
                13-Aug-2025 
 ******************************************
 SetLPE:    new flags="-opt 'Tsnet.Node.lindarsharg: ssh'  -nodelist 'n2.head.cm.mguif.local' -env GAUSS_MDEF=2147483648 -env GAUSS_EXEDIR="/hpc/softwares/Gaussian/g16/bsd:/hpc/softwares/Gaussian/g16""
 Will use up to    1 processors via Linda.
 ----------------------------------------------------------
 # td=(50-50,nstates=3) b3lyp/6-31+g(d,p) geom=connectivity
 ----------------------------------------------------------
 1/38=1,57=2,172=1/1;
 2/12=2,17=6,18=5,40=1/2;
 3/5=1,6=6,7=111,11=9,25=1,30=1,74=-5/1,2,3,8;
 4//1;
 5/5=2,38=5/2;
 8/6=1,10=2,108=3/1;
 9/41=3,42=1,48=2,70=2/14;
 6/7=2,8=2,9=2,10=2/1;
 99/5=1,9=1/99;
 -------------------
 Title Card Required
 -------------------
 Symbolic Z-matrix:
 Charge =  0 Multiplicity = 1
 C                     1.78884  -2.24337   1.29641 
 N                     1.23112  -1.1796    0.47216 
 C                    -0.09064  -1.39008  -0.12619 
 C                    -0.88014  -0.06448  -0.3145 
 C                    -1.1485    0.5972    0.99997 
 C                    -2.37892   0.97508   1.39095 
 C                    -3.56197   0.75666   0.54952 
 O                    -4.6905    1.12847   0.88215 
 C                    -3.35397   0.0646   -0.75834 
 N                    -4.51969  -0.16872  -1.45988 
 C                    -2.10612  -0.30157  -1.14298 
 N                     2.04694  -0.44772  -0.32454 
 C                     3.32419  -0.4644   -0.18939 
 C                     4.15268   0.42248  -1.09259 
 C                     4.97332   1.37853  -0.33484 
 N                     5.62483   2.11785   0.27993 
 H                     2.47252  -1.82806   2.04421 
 H                     0.9763   -2.74191   1.82587 
 H                     2.33835  -2.98874   0.69704 
 H                    -0.00034  -1.89098  -1.10166 
 H                    -0.65463  -2.04973   0.53761 
 H                    -0.19504   0.59775  -0.87092 
 H                    -0.28819   0.77066   1.64168 
 H                    -2.55757   1.46702   2.34261 
 H                    -4.46018  -0.29768  -2.45842 
 H                    -5.31731   0.35969  -1.12796 
 H                    -1.96043  -0.79559  -2.10285 
 H                     3.8584   -1.06015   0.55187 
 H                     4.83063  -0.17902  -1.71329 
 H                     3.48642   0.97227  -1.76464 
 
                          Input orientation:                          
 ---------------------------------------------------------------------
 Center     Atomic      Atomic             Coordinates (Angstroms)
 Number     Number       Type             X           Y           Z
 ---------------------------------------------------------------------
      1          6           0        1.788842   -2.243368    1.296407
      2          7           0        1.231118   -1.179595    0.472155
      3          6           0       -0.090640   -1.390080   -0.126193
      4          6           0       -0.880143   -0.064475   -0.314503
      5          6           0       -1.148500    0.597198    0.999965
      6          6           0       -2.378920    0.975076    1.390950
      7          6           0       -3.561972    0.756657    0.549520
      8          8           0       -4.690497    1.128474    0.882152
      9          6           0       -3.353969    0.064599   -0.758343
     10          7           0       -4.519686   -0.168715   -1.459882
     11          6           0       -2.106117   -0.301574   -1.142977
     12          7           0        2.046937   -0.447715   -0.324535
     13          6           0        3.324194   -0.464399   -0.189394
     14          6           0        4.152685    0.422484   -1.092595
     15          6           0        4.973316    1.378530   -0.334835
     16          7           0        5.624831    2.117850    0.279925
     17          1           0        2.472520   -1.828057    2.044209
     18          1           0        0.976303   -2.741910    1.825870
     19          1           0        2.338345   -2.988738    0.697043
     20          1           0       -0.000342   -1.890978   -1.101661
     21          1           0       -0.654625   -2.049727    0.537609
     22          1           0       -0.195041    0.597748   -0.870920
     23          1           0       -0.288194    0.770664    1.641677
     24          1           0       -2.557567    1.467020    2.342613
     25          1           0       -4.460177   -0.297683   -2.458415
     26          1           0       -5.317306    0.359686   -1.127964
     27          1           0       -1.960432   -0.795592   -2.102851
     28          1           0        3.858400   -1.060149    0.551865
     29          1           0        4.830628   -0.179021   -1.713290
     30          1           0        3.486421    0.972272   -1.764639
 ---------------------------------------------------------------------
                    Distance matrix (angstroms):
                    1          2          3          4          5
     1  C    0.000000
     2  N    1.456729   0.000000
     3  C    2.506859   1.466072   0.000000
     4  C    3.803431   2.513911   1.554350   0.000000
     5  C    4.096910   3.016315   2.517255   1.495879   0.000000
     6  C    5.266646   4.303390   3.623798   2.497112   1.345212
     7  C    6.179741   5.169987   4.137054   2.934791   2.460320
     8  O    7.315925   6.368736   5.340277   4.168202   3.583556
     9  C    5.999768   4.907664   3.628363   2.516638   2.870436
    10  N    7.190191   6.150316   4.784026   3.816940   4.242919
    11  C    4.989175   3.810080   2.506161   1.498532   2.513369
    12  N    2.432784   1.354963   2.344489   2.952079   3.613442
    13  C    2.780223   2.308705   3.538640   4.225168   4.748321
    14  C    4.289738   3.681121   4.714353   5.115849   5.701920
    15  C    5.091166   4.604268   5.775152   6.028736   6.314175
    16  N    5.896462   5.496800   6.718416   6.886986   6.979173
    17  H    1.095037   2.105454   3.387072   4.462521   4.481528
    18  H    1.090456   2.082859   2.603145   3.898236   4.043087
    19  H    1.103072   2.132961   3.022150   4.464662   5.010867
    20  H    3.012655   2.121192   1.100268   2.174806   3.453421
    21  H    2.565892   2.077845   1.092633   2.172137   2.732013
    22  H    4.087180   2.645133   2.125318   1.103406   2.099832
    23  H    3.676640   2.734886   2.798787   2.207827   1.087203
    24  H    5.809716   4.985711   4.510405   3.495639   2.131845
    25  H    7.545503   6.461954   5.072026   4.179400   4.871181
    26  H    7.946748   6.914595   5.602077   4.531009   4.686517
    27  H    5.263845   4.118750   2.785088   2.213537   3.496650
    28  H    2.497483   2.631203   4.020390   4.918918   5.293075
    29  H    4.751028   4.328255   5.310783   5.880700   6.611675
    30  H    4.753117   3.836687   4.589181   4.716420   5.409825
                    6          7          8          9         10
     6  C    0.000000
     7  C    1.468102   0.000000
     8  O    2.371876   1.233880   0.000000
     9  C    2.529654   1.494227   2.368409   0.000000
    10  N    3.744113   2.410648   2.682722   1.380394   0.000000
    11  C    2.850446   2.470610   3.581230   1.356157   2.437908
    12  N    4.955344   5.802960   7.023780   5.442466   6.669887
    13  C    6.090573   7.032514   8.241403   6.723199   7.951605
    14  C    7.009652   7.894564   9.088450   7.522610   8.700255
    15  C    7.562836   8.603485   9.743350   8.440939   9.683841
    16  N    8.160903   9.291011  10.380151   9.268910  10.543554
    17  H    5.640990   6.732751   7.835832   6.736796   7.995187
    18  H    5.026198   5.870688   6.926983   5.771127   6.900970
    19  H    6.200477   6.990242   8.148026   6.621439   7.722528
    20  H    4.481630   4.735143   5.920317   3.897302   4.849637
    21  H    3.584804   4.040866   5.148586   3.665559   4.739923
    22  H    3.166664   3.657749   4.854282   3.205581   4.431354
    23  H    2.115605   3.451177   4.481649   3.956969   5.329880
    24  H    1.086088   2.174541   2.607096   3.495278   4.580885
    25  H    4.557319   3.311507   3.639555   2.060386   1.008584
    26  H    3.918896   2.460231   2.241538   2.019502   1.012707
    27  H    3.939168   3.465470   4.479456   2.118862   2.712225
    28  H    6.614406   7.639549   8.830787   7.416196   8.662223
    29  H    7.933841   8.742513   9.954782   8.243719   9.353753
    30  H    6.660328   7.421702   8.596039   6.973338   8.092742
                   11         12         13         14         15
    11  C    0.000000
    12  N    4.235453   0.000000
    13  C    5.515805   1.284495   0.000000
    14  C    6.300746   2.404441   1.512855   0.000000
    15  C    7.320807   3.449489   2.477326   1.470258   0.000000
    16  N    8.224708   4.443965   3.490158   2.631595   1.161463
    17  H    5.783790   2.774421   2.752071   4.210395   4.711266
    18  H    4.926521   3.321721   3.841997   5.349788   6.133742
    19  H    5.509970   2.754149   2.851308   4.258059   5.203929
    20  H    2.638598   2.622648   3.730938   4.753927   6.001248
    21  H    2.826170   3.257019   4.344283   5.646204   6.647392
    22  H    2.129555   2.533376   3.738669   4.356900   5.254419
    23  H    3.494115   3.286833   4.234094   5.226746   5.653281
    24  H    3.934599   5.655205   6.688539   7.610466   7.993169
    25  H    2.696663   6.849707   8.110036   8.750171   9.813770
    26  H    3.278601   7.451810   8.731297   9.470265  10.371306
    27  H    1.089328   4.398003   5.630122   6.314628   7.478606
    28  H    6.246870   2.103462   1.090761   2.233619   2.824257
    29  H    6.961229   3.122463   2.161722   1.098489   2.084817
    30  H    5.769370   2.482414   2.138162   1.094449   2.102437
                   16         17         18         19         20
    16  N    0.000000
    17  H    5.349761   0.000000
    18  H    6.900437   1.766767   0.000000
    19  H    6.087053   1.783267   1.786150   0.000000
    20  H    7.044292   4.001937   3.201306   3.147995   0.000000
    21  H    7.540999   3.478220   2.190584   3.140865   1.772144
    22  H    6.124219   4.636635   4.449499   4.662557   2.506972
    23  H    6.215557   3.812732   3.737788   4.682322   3.833158
    24  H    8.463445   6.020660   5.519996   6.821410   5.447804
    25  H   10.725702   8.407018   7.340617   7.963579   4.926408
    26  H   11.171556   8.690816   7.612788   8.552870   5.773758
    27  H    8.467702   6.157528   5.277065   5.579317   2.458496
    28  H    3.646081   2.176565   3.571819   2.459898   4.279523
    29  H    3.143132   4.732736   5.826652   4.462700   5.161701
    30  H    3.172600   4.834993   5.743483   4.802870   4.560182
                   21         22         23         24         25
    21  H    0.000000
    22  H    3.033858   0.000000
    23  H    3.050876   2.520262   0.000000
    24  H    4.387110   4.082151   2.475132   0.000000
    25  H    5.150538   4.638246   5.946222   5.457469   0.000000
    26  H    5.506360   5.134233   5.756021   4.570257   1.713740
    27  H    3.201565   2.564304   4.389878   5.023757   2.573531
    28  H    4.620266   4.604707   4.661953   7.124464   8.879294
    29  H    6.217241   5.154639   6.193549   8.587504   9.321392
    30  H    5.619705   3.806858   5.088355   7.324212   8.077285
                   26         27         28         29         30
    26  H    0.000000
    27  H    3.681532   0.000000
    28  H    9.435642   6.401274   0.000000
    29  H   10.179066   6.830111   2.617736   0.000000
    30  H    8.847950   5.736544   3.104077   1.770594   0.000000
 Stoichiometry    C11H14N4O
 Framework group  C1[X(C11H14N4O)]
 Deg. of freedom    84
 Full point group                 C1      NOp   1
 Largest Abelian subgroup         C1      NOp   1
 Largest concise Abelian subgroup C1      NOp   1
                         Standard orientation:                         
 ---------------------------------------------------------------------
 Center     Atomic      Atomic             Coordinates (Angstroms)
 Number     Number       Type             X           Y           Z
 ---------------------------------------------------------------------
      1          6           0        1.788842    2.243368   -1.296407
      2          7           0        1.231118    1.179595   -0.472155
      3          6           0       -0.090640    1.390080    0.126193
      4          6           0       -0.880143    0.064475    0.314503
      5          6           0       -1.148500   -0.597198   -0.999965
      6          6           0       -2.378920   -0.975076   -1.390950
      7          6           0       -3.561972   -0.756657   -0.549520
      8          8           0       -4.690497   -1.128474   -0.882152
      9          6           0       -3.353969   -0.064599    0.758343
     10          7           0       -4.519686    0.168715    1.459882
     11          6           0       -2.106117    0.301574    1.142977
     12          7           0        2.046937    0.447715    0.324535
     13          6           0        3.324194    0.464399    0.189394
     14          6           0        4.152685   -0.422484    1.092595
     15          6           0        4.973316   -1.378530    0.334835
     16          7           0        5.624831   -2.117850   -0.279925
     17          1           0        2.472520    1.828057   -2.044209
     18          1           0        0.976303    2.741910   -1.825870
     19          1           0        2.338345    2.988738   -0.697043
     20          1           0       -0.000342    1.890978    1.101661
     21          1           0       -0.654625    2.049727   -0.537609
     22          1           0       -0.195041   -0.597748    0.870920
     23          1           0       -0.288194   -0.770664   -1.641677
     24          1           0       -2.557567   -1.467020   -2.342613
     25          1           0       -4.460177    0.297683    2.458415
     26          1           0       -5.317306   -0.359686    1.127964
     27          1           0       -1.960432    0.795592    2.102851
     28          1           0        3.858400    1.060149   -0.551865
     29          1           0        4.830628    0.179021    1.713290
     30          1           0        3.486421   -0.972272    1.764639
 ---------------------------------------------------------------------
 Rotational constants (GHZ):           1.1037748           0.1962005           0.1895096
 Standard basis: 6-31+G(d,p) (6D, 7F)
 There are   374 symmetry adapted cartesian basis functions of A   symmetry.
 There are   374 symmetry adapted basis functions of A   symmetry.
   374 basis functions,   610 primitive gaussians,   374 cartesian basis functions
    58 alpha electrons       58 beta electrons
       nuclear repulsion energy      1000.3501958245 Hartrees.
 NAtoms=   30 NActive=   30 NUniq=   30 SFac= 1.00D+00 NAtFMM=   60 NAOKFM=F Big=F
 Integral buffers will be    131072 words long.
 Regular integral format.
 Two-electron integral symmetry is turned on.
 One-electron integrals computed using PRISM.
 NBasis=   374 RedAO= T EigKep=  2.50D-06  NBF=   374
 NBsUse=   374 1.00D-06 EigRej= -1.00D+00 NBFU=   374
 ExpMin= 4.38D-02 ExpMax= 5.48D+03 ExpMxC= 8.25D+02 IAcc=3 IRadAn=         5 AccDes= 0.00D+00
 Harris functional with IExCor=  402 and IRadAn=       5 diagonalized for initial guess.
 HarFok:  IExCor=  402 AccDes= 0.00D+00 IRadAn=         5 IDoV= 1 UseB2=F ITyADJ=14
 ICtDFT=  3500011 ScaDFX=  1.000000  1.000000  1.000000  1.000000
 FoFCou: FMM=F IPFlag=           0 FMFlag=      100000 FMFlg1=           0
         NFxFlg=           0 DoJE=T BraDBF=F KetDBF=T FulRan=T
         wScrn=  0.000000 ICntrl=       500 IOpCl=  0 I1Cent=   200000004 NGrid=           0
         NMat0=    1 NMatS0=      1 NMatT0=    0 NMatD0=    1 NMtDS0=    0 NMtDT0=    0
 Petite list used in FoFCou.
 Requested convergence on RMS density matrix=1.00D-08 within 128 cycles.
 Requested convergence on MAX density matrix=1.00D-06.
 Requested convergence on             energy=1.00D-06.
 No special actions if energy rises.
 SCF Done:  E(RB3LYP) =  -721.794807952     A.U. after   16 cycles
            NFock= 16  Conv=0.38D-08     -V/T= 2.0097
 DoSCS=F DFT=T ScalE2(SS,OS)=  1.000000  1.000000
 ExpMin= 4.38D-02 ExpMax= 5.48D+03 ExpMxC= 8.25D+02 IAcc=3 IRadAn=         5 AccDes= 0.00D+00
 HarFok:  IExCor=  205 AccDes= 0.00D+00 IRadAn=         5 IDoV=-2 UseB2=F ITyADJ=14
 ICtDFT= 12500011 ScaDFX=  1.000000  1.000000  1.000000  1.000000
 Range of M.O.s used for correlation:    17   374
 NBasis=   374 NAE=    58 NBE=    58 NFC=    16 NFV=     0
 NROrb=    358 NOA=    42 NOB=    42 NVA=   316 NVB=   316

 **** Warning!!: The largest alpha MO coefficient is  0.13064682D+03

 Orbital symmetries:
       Occupied  (A) (A) (A) (A) (A) (A) (A) (A) (A) (A) (A) (A)
                 (A) (A) (A) (A) (A) (A) (A) (A) (A) (A) (A) (A)
                 (A) (A) (A) (A) (A) (A) (A) (A) (A) (A) (A) (A)
                 (A) (A) (A) (A) (A) (A) (A) (A) (A) (A) (A) (A)
                 (A) (A) (A) (A) (A) (A) (A) (A) (A) (A)
       Virtual   (A) (A) (A) (A) (A) (A) (A) (A) (A) (A) (A) (A)
                 (A) (A) (A) (A) (A) (A) (A) (A) (A) (A) (A) (A)
                 (A) (A) (A) (A) (A) (A) (A) (A) (A) (A) (A) (A)
                 (A) (A) (A) (A) (A) (A) (A) (A) (A) (A) (A) (A)
                 (A) (A) (A) (A) (A) (A) (A) (A) (A) (A) (A) (A)
                 (A) (A) (A) (A) (A) (A) (A) (A) (A) (A) (A) (A)
                 (A) (A) (A) (A) (A) (A) (A) (A) (A) (A) (A) (A)
                 (A) (A) (A) (A) (A) (A) (A) (A) (A) (A) (A) (A)
                 (A) (A) (A) (A) (A) (A) (A) (A) (A) (A) (A) (A)
                 (A) (A) (A) (A) (A) (A) (A) (A) (A) (A) (A) (A)
                 (A) (A) (A) (A) (A) (A) (A) (A) (A) (A) (A) (A)
                 (A) (A) (A) (A) (A) (A) (A) (A) (A) (A) (A) (A)
                 (A) (A) (A) (A) (A) (A) (A) (A) (A) (A) (A) (A)
                 (A) (A) (A) (A) (A) (A) (A) (A) (A) (A) (A) (A)
                 (A) (A) (A) (A) (A) (A) (A) (A) (A) (A) (A) (A)
                 (A) (A) (A) (A) (A) (A) (A) (A) (A) (A) (A) (A)
                 (A) (A) (A) (A) (A) (A) (A) (A) (A) (A) (A) (A)
                 (A) (A) (A) (A) (A) (A) (A) (A) (A) (A) (A) (A)
                 (A) (A) (A) (A) (A) (A) (A) (A) (A) (A) (A) (A)
                 (A) (A) (A) (A) (A) (A) (A) (A) (A) (A) (A) (A)
                 (A) (A) (A) (A) (A) (A) (A) (A) (A) (A) (A) (A)
                 (A) (A) (A) (A) (A) (A) (A) (A) (A) (A) (A) (A)
                 (A) (A) (A) (A) (A) (A) (A) (A) (A) (A) (A) (A)
                 (A) (A) (A) (A) (A) (A) (A) (A) (A) (A) (A) (A)
                 (A) (A) (A) (A) (A) (A) (A) (A) (A) (A) (A) (A)
                 (A) (A) (A) (A) (A) (A) (A) (A) (A) (A) (A) (A)
                 (A) (A) (A) (A)
    24 initial guesses have been made.
 Convergence on wavefunction:    0.001000000000000
 Iteration     1 Dimension    24 NMult     0 NNew     24
 CISAX will form    24 AO SS matrices at one time.
 New state      1 was old state      2
 New state      2 was old state      8
 New state      3 was old state      7
 New state      4 was old state     10
 New state      5 was old state      1
 New state      6 was old state     12
 New state      7 was old state      3
 New state      8 was old state      4
 New state      9 was old state     16
 New state     10 was old state      5
 New state     11 was old state      6
 New state     12 was old state     18
 Vector   6 SDiff=7.00D-01 TDiff=1.52D+01 assumed to be singlet.
 Vector  12 SDiff=5.41D-01 TDiff=1.08D+01 assumed to be singlet.
 Iteration     2 Dimension    36 NMult    24 NNew     12
 New state      3 was old state      4
 New state      4 was old state      5
 New state      5 was old state      3
 New state      6 was old state      7
 Iteration     3 Dimension    48 NMult    36 NNew     12
 Iteration     4 Dimension    60 NMult    48 NNew     12
 Iteration     5 Dimension    72 NMult    60 NNew     12
 Iteration     6 Dimension    76 NMult    72 NNew      4
 Iteration     7 Dimension    80 NMult    76 NNew      4
 Iteration     8 Dimension    82 NMult    80 NNew      2
 Convergence on energies, max DE= 3.66D-06.
 ***********************************************************************
 Excited states from <AA,BB:AA,BB> singles matrix:
 ***********************************************************************
 
 Ground to excited state transition densities written to RWF  633
 Ground to excited state transition electric dipole moments (Au):
       state          X           Y           Z        Dip. S.      Osc.
         1        -0.0000     -0.0000     -0.0000      0.0000      0.0000
         2         0.0000      0.0000      0.0000      0.0000      0.0000
         3        -0.0000     -0.0000     -0.0000      0.0000      0.0000
         4        -0.5625     -0.3549     -0.4495      0.6444      0.0555
         5        -0.0599     -0.0436     -0.0302      0.0064      0.0006
         6         0.2306      0.1228     -0.0133      0.0684      0.0067
 Ground to excited state transition velocity dipole moments (Au):
       state          X           Y           Z        Dip. S.      Osc.
         1         0.0000      0.0000      0.0000      0.0000      0.0000
         2        -0.0000      0.0000     -0.0000      0.0000      0.0000
         3         0.0000      0.0000      0.0000      0.0000      0.0000
         4         0.0685      0.0415      0.0508      0.0090      0.0465
         5         0.0080      0.0077      0.0030      0.0001      0.0007
         6        -0.0337     -0.0190     -0.0003      0.0015      0.0068
 Ground to excited state transition magnetic dipole moments (Au):
       state          X           Y           Z
         1        -0.0000      0.0000     -0.0000
         2        -0.0000     -0.0000      0.0000
         3        -0.0000      0.0000     -0.0000
         4        -0.1379      0.3606     -0.2382
         5         0.5732      0.2254      0.0951
         6         0.1456      0.0450      0.0277
 Ground to excited state transition velocity quadrupole moments (Au):
       state          XX          YY          ZZ          XY          XZ          YZ
         1        -0.0000     -0.0000     -0.0000     -0.0000     -0.0000      0.0000
         2        -0.0000     -0.0000      0.0000      0.0000      0.0000     -0.0000
         3         0.0000      0.0000      0.0000     -0.0000     -0.0000      0.0000
         4        -0.5495      0.0301      0.0249     -0.1742     -0.1703     -0.0368
         5        -0.0596     -0.0122      0.0228     -0.0287     -0.0068     -0.0124
         6         0.1165     -0.0851      0.0007      0.0176      0.0121     -0.0239
 <0|del|b> * <b|rxdel|0> + <0|del|b> * <b|delr+rdel|0>
 Rotatory Strengths (R) in cgs (10**-40 erg-esu-cm/Gauss)
       state          XX          YY          ZZ    R(velocity)    E-M Angle
         1        -0.0000      0.0000     -0.0000     -0.0000       90.00
         2        -0.0000      0.0000     -0.0000      0.0000       90.00
         3        -0.0000      0.0000     -0.0000     -0.0000       90.00
         4         2.9847    -41.6943      2.6751    -12.0115       98.79
         5         5.2080     12.6855     16.6551     11.5162       22.92
         6        -1.5320     -9.9083    -16.4025     -9.2809      164.31
 1/2[<0|r|b>*<b|rxdel|0> + (<0|rxdel|b>*<b|r|0>)*]
 Rotatory Strengths (R) in cgs (10**-40 erg-esu-cm/Gauss)
       state          XX          YY          ZZ     R(length)
         1        -0.0000      0.0000     -0.0000      0.0000
         2         0.0000      0.0000     -0.0000      0.0000
         3        -0.0000      0.0000     -0.0000     -0.0000
         4       -54.8660     90.5019    -75.7322    -13.3654
         5        24.2763      6.9557      2.0299     11.0873
         6       -23.7436     -3.9057      0.2604     -9.1296
  1/2[<0|del|b>*<b|r|0> + (<0|r|b>*<b|del|0>)*] (Au)
       state          X           Y           Z        Dip. S.   Osc.(frdel)
         1        -0.0000     -0.0000     -0.0000      0.0000      0.0000
         2        -0.0000      0.0000     -0.0000      0.0000      0.0000
         3        -0.0000     -0.0000     -0.0000      0.0000      0.0000
         4        -0.0385     -0.0147     -0.0228      0.0761      0.0507
         5        -0.0005     -0.0003     -0.0001      0.0009      0.0006
         6        -0.0078     -0.0023      0.0000      0.0101      0.0067

 Excitation energies and oscillator strengths:
 
 Excited State   1:      Triplet-A      2.4312 eV  509.97 nm  f=0.0000  <S**2>=2.000
      58 -> 59         0.66607
      58 -> 62        -0.18433
 This state for optimization and/or second-order correction.
 Total Energy, E(TD-HF/TD-DFT) =  -721.705463181    
 Copying the excited state density for this state as the 1-particle RhoCI density.
 
 Excited State   2:      Triplet-A      3.1893 eV  388.75 nm  f=0.0000  <S**2>=2.000
      56 -> 59         0.68940
 
 Excited State   3:      Triplet-A      3.3477 eV  370.36 nm  f=0.0000  <S**2>=2.000
      55 -> 59         0.62632
      55 -> 62         0.18054
      57 -> 59         0.19068
 
 Excited State   4:      Singlet-A      3.5144 eV  352.79 nm  f=0.0555  <S**2>=0.000
      58 -> 59         0.69632
 
 Excited State   5:      Singlet-A      3.6751 eV  337.36 nm  f=0.0006  <S**2>=0.000
      56 -> 59         0.69147
      57 -> 59        -0.11605
 
 Excited State   6:      Singlet-A      3.9844 eV  311.18 nm  f=0.0067  <S**2>=0.000
      56 -> 59         0.11709
      57 -> 59         0.69553
 SavETr:  write IOETrn=   770 NScale= 10 NData=  16 NLR=1 NState=    6 LETran=     118.

 **********************************************************************

            Population analysis using the SCF Density.

 **********************************************************************

 Orbital symmetries:
       Occupied  (A) (A) (A) (A) (A) (A) (A) (A) (A) (A) (A) (A)
                 (A) (A) (A) (A) (A) (A) (A) (A) (A) (A) (A) (A)
                 (A) (A) (A) (A) (A) (A) (A) (A) (A) (A) (A) (A)
                 (A) (A) (A) (A) (A) (A) (A) (A) (A) (A) (A) (A)
                 (A) (A) (A) (A) (A) (A) (A) (A) (A) (A)
       Virtual   (A) (A) (A) (A) (A) (A) (A) (A) (A) (A) (A) (A)
                 (A) (A) (A) (A) (A) (A) (A) (A) (A) (A) (A) (A)
                 (A) (A) (A) (A) (A) (A) (A) (A) (A) (A) (A) (A)
                 (A) (A) (A) (A) (A) (A) (A) (A) (A) (A) (A) (A)
                 (A) (A) (A) (A) (A) (A) (A) (A) (A) (A) (A) (A)
                 (A) (A) (A) (A) (A) (A) (A) (A) (A) (A) (A) (A)
                 (A) (A) (A) (A) (A) (A) (A) (A) (A) (A) (A) (A)
                 (A) (A) (A) (A) (A) (A) (A) (A) (A) (A) (A) (A)
                 (A) (A) (A) (A) (A) (A) (A) (A) (A) (A) (A) (A)
                 (A) (A) (A) (A) (A) (A) (A) (A) (A) (A) (A) (A)
                 (A) (A) (A) (A) (A) (A) (A) (A) (A) (A) (A) (A)
                 (A) (A) (A) (A) (A) (A) (A) (A) (A) (A) (A) (A)
                 (A) (A) (A) (A) (A) (A) (A) (A) (A) (A) (A) (A)
                 (A) (A) (A) (A) (A) (A) (A) (A) (A) (A) (A) (A)
                 (A) (A) (A) (A) (A) (A) (A) (A) (A) (A) (A) (A)
                 (A) (A) (A) (A) (A) (A) (A) (A) (A) (A) (A) (A)
                 (A) (A) (A) (A) (A) (A) (A) (A) (A) (A) (A) (A)
                 (A) (A) (A) (A) (A) (A) (A) (A) (A) (A) (A) (A)
                 (A) (A) (A) (A) (A) (A) (A) (A) (A) (A) (A) (A)
                 (A) (A) (A) (A) (A) (A) (A) (A) (A) (A) (A) (A)
                 (A) (A) (A) (A) (A) (A) (A) (A) (A) (A) (A) (A)
                 (A) (A) (A) (A) (A) (A) (A) (A) (A) (A) (A) (A)
                 (A) (A) (A) (A) (A) (A) (A) (A) (A) (A) (A) (A)
                 (A) (A) (A) (A) (A) (A) (A) (A) (A) (A) (A) (A)
                 (A) (A) (A) (A) (A) (A) (A) (A) (A) (A) (A) (A)
                 (A) (A) (A) (A) (A) (A) (A) (A) (A) (A) (A) (A)
                 (A) (A) (A) (A)
 The electronic state is 1-A.
 Alpha  occ. eigenvalues --  -19.14543 -14.40719 -14.39693 -14.35144 -14.34924
 Alpha  occ. eigenvalues --  -10.28088 -10.25459 -10.25058 -10.24812 -10.24378
 Alpha  occ. eigenvalues --  -10.24332 -10.24287 -10.22413 -10.22209 -10.20680
 Alpha  occ. eigenvalues --  -10.20287  -1.04195  -1.04055  -0.92399  -0.91782
 Alpha  occ. eigenvalues --   -0.88480  -0.85140  -0.79480  -0.77588  -0.75291
 Alpha  occ. eigenvalues --   -0.72041  -0.67557  -0.62463  -0.61265  -0.58273
 Alpha  occ. eigenvalues --   -0.55514  -0.53653  -0.53085  -0.52188  -0.50803
 Alpha  occ. eigenvalues --   -0.49401  -0.48134  -0.47330  -0.46111  -0.45759
 Alpha  occ. eigenvalues --   -0.44353  -0.43623  -0.42886  -0.41913  -0.41503
 Alpha  occ. eigenvalues --   -0.39445  -0.38750  -0.37716  -0.37163  -0.35905
 Alpha  occ. eigenvalues --   -0.34283  -0.34155  -0.33789  -0.30423  -0.28162
 Alpha  occ. eigenvalues --   -0.26294  -0.24322  -0.22304
 Alpha virt. eigenvalues --   -0.07317  -0.03370  -0.01139  -0.00989  -0.00039
 Alpha virt. eigenvalues --    0.00126   0.01090   0.01339   0.01744   0.01929
 Alpha virt. eigenvalues --    0.02641   0.03424   0.03765   0.04131   0.04393
 Alpha virt. eigenvalues --    0.05069   0.05648   0.06557   0.06904   0.07600
 Alpha virt. eigenvalues --    0.07654   0.08181   0.08562   0.09185   0.09379
 Alpha virt. eigenvalues --    0.09519   0.10076   0.10933   0.11606   0.11955
 Alpha virt. eigenvalues --    0.12050   0.12182   0.12952   0.13104   0.13602
 Alpha virt. eigenvalues --    0.13758   0.14786   0.15321   0.15575   0.16273
 Alpha virt. eigenvalues --    0.16703   0.17179   0.17364   0.17733   0.17963
 Alpha virt. eigenvalues --    0.18613   0.18848   0.19109   0.19627   0.19927
 Alpha virt. eigenvalues --    0.20628   0.21210   0.21601   0.21697   0.21961
 Alpha virt. eigenvalues --    0.22412   0.22629   0.22939   0.23044   0.23357
 Alpha virt. eigenvalues --    0.24247   0.24591   0.24764   0.25058   0.25397
 Alpha virt. eigenvalues --    0.25954   0.26235   0.26799   0.27038   0.27290
 Alpha virt. eigenvalues --    0.28152   0.28742   0.28842   0.29655   0.29908
 Alpha virt. eigenvalues --    0.30560   0.31126   0.31947   0.32413   0.32633
 Alpha virt. eigenvalues --    0.33424   0.34242   0.34279   0.35245   0.36219
 Alpha virt. eigenvalues --    0.36796   0.37249   0.38142   0.39099   0.40401
 Alpha virt. eigenvalues --    0.41180   0.41594   0.43229   0.44532   0.45635
 Alpha virt. eigenvalues --    0.46834   0.48901   0.55343   0.56400   0.57778
 Alpha virt. eigenvalues --    0.63206   0.63688   0.64240   0.65298   0.66190
 Alpha virt. eigenvalues --    0.66479   0.67124   0.68552   0.69909   0.71050
 Alpha virt. eigenvalues --    0.71389   0.72868   0.73674   0.75003   0.75699
 Alpha virt. eigenvalues --    0.76912   0.77413   0.78683   0.79093   0.80048
 Alpha virt. eigenvalues --    0.81894   0.84767   0.85186   0.85602   0.87104
 Alpha virt. eigenvalues --    0.87605   0.89268   0.89727   0.91642   0.92212
 Alpha virt. eigenvalues --    0.92685   0.94142   0.94323   0.94828   0.95050
 Alpha virt. eigenvalues --    0.95930   0.96296   0.98354   1.00004   1.00170
 Alpha virt. eigenvalues --    1.00448   1.00621   1.03013   1.03294   1.03993
 Alpha virt. eigenvalues --    1.05125   1.06951   1.07270   1.09078   1.09662
 Alpha virt. eigenvalues --    1.10133   1.11564   1.12063   1.12402   1.13307
 Alpha virt. eigenvalues --    1.13838   1.15845   1.18153   1.19611   1.21395
 Alpha virt. eigenvalues --    1.23651   1.25705   1.26997   1.27958   1.29581
 Alpha virt. eigenvalues --    1.30327   1.31097   1.32492   1.33317   1.34502
 Alpha virt. eigenvalues --    1.36780   1.37185   1.37301   1.42447   1.43398
 Alpha virt. eigenvalues --    1.43821   1.45511   1.46650   1.47742   1.49783
 Alpha virt. eigenvalues --    1.51540   1.52983   1.53860   1.54298   1.54971
 Alpha virt. eigenvalues --    1.59958   1.61978   1.63811   1.65827   1.66764
 Alpha virt. eigenvalues --    1.70249   1.72113   1.74099   1.76292   1.77252
 Alpha virt. eigenvalues --    1.79587   1.80990   1.83113   1.85032   1.85505
 Alpha virt. eigenvalues --    1.86034   1.87838   1.89270   1.90454   1.91059
 Alpha virt. eigenvalues --    1.92532   1.93299   1.94393   1.94771   1.95561
 Alpha virt. eigenvalues --    1.97448   1.98146   1.99687   2.01106   2.02320
 Alpha virt. eigenvalues --    2.03984   2.04707   2.05454   2.06404   2.08227
 Alpha virt. eigenvalues --    2.08959   2.10887   2.12206   2.12397   2.14475
 Alpha virt. eigenvalues --    2.14966   2.16002   2.17844   2.20195   2.21093
 Alpha virt. eigenvalues --    2.23772   2.25500   2.26239   2.28494   2.29914
 Alpha virt. eigenvalues --    2.31444   2.34431   2.34815   2.36705   2.39514
 Alpha virt. eigenvalues --    2.41995   2.43362   2.44167   2.45171   2.45680
 Alpha virt. eigenvalues --    2.46479   2.49469   2.50564   2.51941   2.52615
 Alpha virt. eigenvalues --    2.53172   2.56080   2.56483   2.57796   2.60001
 Alpha virt. eigenvalues --    2.62733   2.64493   2.65495   2.68059   2.68867
 Alpha virt. eigenvalues --    2.70258   2.71058   2.71716   2.72588   2.74873
 Alpha virt. eigenvalues --    2.77292   2.79103   2.80421   2.82425   2.83524
 Alpha virt. eigenvalues --    2.87152   2.89024   2.90784   2.91424   2.92467
 Alpha virt. eigenvalues --    2.94882   2.96429   3.00075   3.01613   3.08235
 Alpha virt. eigenvalues --    3.08502   3.10294   3.14347   3.20656   3.21652
 Alpha virt. eigenvalues --    3.23997   3.28953   3.30608   3.33008   3.35253
 Alpha virt. eigenvalues --    3.37450   3.41679   3.42285   3.43761   3.46579
 Alpha virt. eigenvalues --    3.47648   3.50924   3.54712   3.56374   3.68797
 Alpha virt. eigenvalues --    4.14124   4.16184   4.18995   4.25746   4.28765
 Alpha virt. eigenvalues --    4.31761   4.35550   4.38845   4.48764   4.51707
 Alpha virt. eigenvalues --    4.51925   4.60119   4.66032   4.73545   4.76751
 Alpha virt. eigenvalues --    4.93715
          Condensed to atoms (all electrons):
               1          2          3          4          5          6
     1  C    5.289649   0.145149  -0.173694   0.062837  -0.045728  -0.089297
     2  N    0.145149   7.716617   0.156931   0.044946  -0.012652  -0.064136
     3  C   -0.173694   0.156931   6.190652  -0.522951  -0.161917  -0.195107
     4  C    0.062837   0.044946  -0.522951   8.283035  -0.567561   0.021241
     5  C   -0.045728  -0.012652  -0.161917  -0.567561   9.916898  -2.847421
     6  C   -0.089297  -0.064136  -0.195107   0.021241  -2.847421  10.573354
     7  C   -0.000568  -0.001539   0.221585  -0.650711   0.378658  -1.536060
     8  O   -0.000016   0.000008  -0.005921  -0.015346   0.010841  -0.036286
     9  C    0.004040   0.046390  -0.138913   0.187470  -0.452387  -0.349637
    10  N    0.000038  -0.000325   0.010562   0.000696  -0.035697   0.017539
    11  C    0.055785   0.014795   0.502412  -1.174997  -0.462894  -0.087210
    12  N   -0.151825  -0.725864  -0.011196  -0.220802   0.113061   0.210604
    13  C   -0.047353   0.019161  -0.037308   0.003077   0.009096  -0.029783
    14  C   -0.050568  -0.297897   0.015269  -0.071103   0.040159   0.041766
    15  C    0.006533   0.108011  -0.008175   0.039261  -0.015613  -0.017828
    16  N    0.001037  -0.006156   0.000242  -0.000778  -0.000091   0.000201
    17  H    0.396116  -0.019709   0.016695  -0.005800   0.007589  -0.003813
    18  H    0.426413  -0.061874  -0.016355   0.008350  -0.001103  -0.005084
    19  H    0.413827  -0.065076  -0.007564  -0.005383   0.002475   0.004239
    20  H    0.003477  -0.105979   0.479552  -0.086084  -0.067811   0.027819
    21  H   -0.015373  -0.049211   0.361569  -0.086629   0.081534   0.014769
    22  H   -0.001706  -0.024723  -0.087754   0.312207   0.041283   0.040638
    23  H   -0.004950  -0.016787   0.012507   0.058664   0.287298  -0.049854
    24  H   -0.000128   0.000678   0.002215   0.021436  -0.029772   0.235399
    25  H   -0.000003  -0.000013   0.000057   0.020629   0.002170  -0.008445
    26  H    0.000003  -0.000003  -0.000113  -0.017631   0.001067   0.036714
    27  H    0.000813   0.000872   0.003477   0.054927   0.029397  -0.015979
    28  H    0.020178  -0.046187  -0.001194   0.000783  -0.004026  -0.001897
    29  H   -0.001399   0.008186   0.002832  -0.000735   0.000110  -0.000110
    30  H   -0.000191  -0.025937  -0.001874   0.004037  -0.004295  -0.000588
               7          8          9         10         11         12
     1  C   -0.000568  -0.000016   0.004040   0.000038   0.055785  -0.151825
     2  N   -0.001539   0.000008   0.046390  -0.000325   0.014795  -0.725864
     3  C    0.221585  -0.005921  -0.138913   0.010562   0.502412  -0.011196
     4  C   -0.650711  -0.015346   0.187470   0.000696  -1.174997  -0.220802
     5  C    0.378658   0.010841  -0.452387  -0.035697  -0.462894   0.113061
     6  C   -1.536060  -0.036286  -0.349637   0.017539  -0.087210   0.210604
     7  C    9.955044   0.465762  -1.027992   0.166360  -1.969115  -0.012813
     8  O    0.465762   8.463766  -0.250175  -0.046192  -0.080231   0.000169
     9  C   -1.027992  -0.250175   8.602210   0.050839  -1.454688   0.028028
    10  N    0.166360  -0.046192   0.050839   7.033483  -0.199025   0.000290
    11  C   -1.969115  -0.080231  -1.454688  -0.199025  11.600090  -0.186560
    12  N   -0.012813   0.000169   0.028028   0.000290  -0.186560   7.797822
    13  C    0.004845   0.000009  -0.001392   0.000078   0.001687   0.381811
    14  C   -0.001315   0.000006  -0.003081  -0.000018  -0.040308   0.045077
    15  C    0.000209  -0.000003   0.001056  -0.000008   0.009510  -0.019080
    16  N   -0.000001   0.000000  -0.000005   0.000000  -0.000046  -0.003381
    17  H    0.000576  -0.000000  -0.000792   0.000000   0.000110  -0.049085
    18  H    0.000437  -0.000000  -0.000580  -0.000000   0.005677   0.010217
    19  H   -0.000433   0.000000   0.000340   0.000000  -0.004992   0.012560
    20  H   -0.011867   0.000005   0.040447   0.000137   0.000956   0.026725
    21  H    0.013949  -0.000024  -0.045394  -0.000198   0.029704   0.010273
    22  H    0.014799   0.000145  -0.110300   0.001135   0.088954   0.003435
    23  H   -0.020451  -0.000726  -0.007783   0.000253   0.035052   0.021113
    24  H    0.085023  -0.010111   0.015721  -0.000362  -0.008159  -0.000764
    25  H    0.063660   0.001412   0.050802   0.328173  -0.137417   0.000011
    26  H   -0.093100   0.022842  -0.035668   0.323326   0.095902  -0.000005
    27  H    0.016271  -0.000892   0.014003  -0.010563   0.205699   0.000699
    28  H    0.000025  -0.000000   0.000096  -0.000000   0.002273  -0.026337
    29  H    0.000010  -0.000000  -0.000040  -0.000000  -0.000202  -0.003781
    30  H   -0.000022  -0.000000   0.000137  -0.000000   0.002316  -0.005457
              13         14         15         16         17         18
     1  C   -0.047353  -0.050568   0.006533   0.001037   0.396116   0.426413
     2  N    0.019161  -0.297897   0.108011  -0.006156  -0.019709  -0.061874
     3  C   -0.037308   0.015269  -0.008175   0.000242   0.016695  -0.016355
     4  C    0.003077  -0.071103   0.039261  -0.000778  -0.005800   0.008350
     5  C    0.009096   0.040159  -0.015613  -0.000091   0.007589  -0.001103
     6  C   -0.029783   0.041766  -0.017828   0.000201  -0.003813  -0.005084
     7  C    0.004845  -0.001315   0.000209  -0.000001   0.000576   0.000437
     8  O    0.000009   0.000006  -0.000003   0.000000  -0.000000  -0.000000
     9  C   -0.001392  -0.003081   0.001056  -0.000005  -0.000792  -0.000580
    10  N    0.000078  -0.000018  -0.000008   0.000000   0.000000  -0.000000
    11  C    0.001687  -0.040308   0.009510  -0.000046   0.000110   0.005677
    12  N    0.381811   0.045077  -0.019080  -0.003381  -0.049085   0.010217
    13  C    5.546631   0.066137  -0.163503   0.027351   0.001956  -0.006919
    14  C    0.066137   6.098825  -0.303769  -0.008016   0.000366  -0.003338
    15  C   -0.163503  -0.303769   5.791866   0.373575   0.003930   0.000127
    16  N    0.027351  -0.008016   0.373575   7.130851  -0.000127  -0.000003
    17  H    0.001956   0.000366   0.003930  -0.000127   0.559068  -0.020202
    18  H   -0.006919  -0.003338   0.000127  -0.000003  -0.020202   0.533817
    19  H    0.002480   0.005468  -0.003359   0.000054  -0.042935  -0.028709
    20  H   -0.002101  -0.003128  -0.000497   0.000003  -0.000416  -0.000139
    21  H   -0.000881   0.001198  -0.000135   0.000001   0.000447   0.003603
    22  H   -0.003926   0.000066  -0.000984   0.000010   0.000015   0.000004
    23  H    0.000527   0.000390   0.000181  -0.000002  -0.000042  -0.000061
    24  H   -0.000056  -0.000021   0.000011  -0.000000   0.000000  -0.000000
    25  H    0.000001   0.000000  -0.000000   0.000000  -0.000000   0.000000
    26  H   -0.000002   0.000000   0.000000   0.000000  -0.000000   0.000000
    27  H    0.000193  -0.000139   0.000029  -0.000000  -0.000000  -0.000000
    28  H    0.381059  -0.044610   0.000673  -0.000173  -0.000317  -0.000028
    29  H   -0.030074   0.394281  -0.057891  -0.003939   0.000024  -0.000000
    30  H   -0.037817   0.464878  -0.071063   0.001178  -0.000006   0.000000
              19         20         21         22         23         24
     1  C    0.413827   0.003477  -0.015373  -0.001706  -0.004950  -0.000128
     2  N   -0.065076  -0.105979  -0.049211  -0.024723  -0.016787   0.000678
     3  C   -0.007564   0.479552   0.361569  -0.087754   0.012507   0.002215
     4  C   -0.005383  -0.086084  -0.086629   0.312207   0.058664   0.021436
     5  C    0.002475  -0.067811   0.081534   0.041283   0.287298  -0.029772
     6  C    0.004239   0.027819   0.014769   0.040638  -0.049854   0.235399
     7  C   -0.000433  -0.011867   0.013949   0.014799  -0.020451   0.085023
     8  O    0.000000   0.000005  -0.000024   0.000145  -0.000726  -0.010111
     9  C    0.000340   0.040447  -0.045394  -0.110300  -0.007783   0.015721
    10  N    0.000000   0.000137  -0.000198   0.001135   0.000253  -0.000362
    11  C   -0.004992   0.000956   0.029704   0.088954   0.035052  -0.008159
    12  N    0.012560   0.026725   0.010273   0.003435   0.021113  -0.000764
    13  C    0.002480  -0.002101  -0.000881  -0.003926   0.000527  -0.000056
    14  C    0.005468  -0.003128   0.001198   0.000066   0.000390  -0.000021
    15  C   -0.003359  -0.000497  -0.000135  -0.000984   0.000181   0.000011
    16  N    0.000054   0.000003   0.000001   0.000010  -0.000002  -0.000000
    17  H   -0.042935  -0.000416   0.000447   0.000015  -0.000042   0.000000
    18  H   -0.028709  -0.000139   0.003603   0.000004  -0.000061  -0.000000
    19  H    0.565488   0.002049  -0.000399  -0.000011   0.000002   0.000000
    20  H    0.002049   0.592999  -0.036456  -0.005072   0.000021   0.000003
    21  H   -0.000399  -0.036456   0.569260   0.005192  -0.000298  -0.000045
    22  H   -0.000011  -0.005072   0.005192   0.537818  -0.002225  -0.000169
    23  H    0.000002   0.000021  -0.000298  -0.002225   0.548323  -0.006114
    24  H    0.000000   0.000003  -0.000045  -0.000169  -0.006114   0.554386
    25  H   -0.000000  -0.000000  -0.000000  -0.000005  -0.000000   0.000002
    26  H   -0.000000   0.000000   0.000000   0.000005   0.000000  -0.000012
    27  H    0.000001   0.003729  -0.000306  -0.002561  -0.000144   0.000009
    28  H   -0.001599  -0.000032   0.000018   0.000004  -0.000000   0.000000
    29  H   -0.000057  -0.000009  -0.000000   0.000001   0.000000   0.000000
    30  H   -0.000003   0.000008   0.000000  -0.000011   0.000001  -0.000000
              25         26         27         28         29         30
     1  C   -0.000003   0.000003   0.000813   0.020178  -0.001399  -0.000191
     2  N   -0.000013  -0.000003   0.000872  -0.046187   0.008186  -0.025937
     3  C    0.000057  -0.000113   0.003477  -0.001194   0.002832  -0.001874
     4  C    0.020629  -0.017631   0.054927   0.000783  -0.000735   0.004037
     5  C    0.002170   0.001067   0.029397  -0.004026   0.000110  -0.004295
     6  C   -0.008445   0.036714  -0.015979  -0.001897  -0.000110  -0.000588
     7  C    0.063660  -0.093100   0.016271   0.000025   0.000010  -0.000022
     8  O    0.001412   0.022842  -0.000892  -0.000000  -0.000000  -0.000000
     9  C    0.050802  -0.035668   0.014003   0.000096  -0.000040   0.000137
    10  N    0.328173   0.323326  -0.010563  -0.000000  -0.000000  -0.000000
    11  C   -0.137417   0.095902   0.205699   0.002273  -0.000202   0.002316
    12  N    0.000011  -0.000005   0.000699  -0.026337  -0.003781  -0.005457
    13  C    0.000001  -0.000002   0.000193   0.381059  -0.030074  -0.037817
    14  C    0.000000   0.000000  -0.000139  -0.044610   0.394281   0.464878
    15  C   -0.000000   0.000000   0.000029   0.000673  -0.057891  -0.071063
    16  N    0.000000   0.000000  -0.000000  -0.000173  -0.003939   0.001178
    17  H   -0.000000  -0.000000  -0.000000  -0.000317   0.000024  -0.000006
    18  H    0.000000   0.000000  -0.000000  -0.000028  -0.000000   0.000000
    19  H   -0.000000  -0.000000   0.000001  -0.001599  -0.000057  -0.000003
    20  H   -0.000000   0.000000   0.003729  -0.000032  -0.000009   0.000008
    21  H   -0.000000   0.000000  -0.000306   0.000018  -0.000000   0.000000
    22  H   -0.000005   0.000005  -0.002561   0.000004   0.000001  -0.000011
    23  H   -0.000000   0.000000  -0.000144  -0.000000   0.000000   0.000001
    24  H    0.000002  -0.000012   0.000009   0.000000   0.000000  -0.000000
    25  H    0.420209  -0.031715   0.003438  -0.000000  -0.000000  -0.000000
    26  H   -0.031715   0.377556  -0.000074  -0.000000  -0.000000   0.000000
    27  H    0.003438  -0.000074   0.587107   0.000000  -0.000000   0.000000
    28  H   -0.000000  -0.000000   0.000000   0.589009   0.000091   0.003394
    29  H   -0.000000  -0.000000  -0.000000   0.000091   0.521358  -0.023945
    30  H   -0.000000   0.000000   0.000000   0.003394  -0.023945   0.493324
 Mulliken charges:
               1
     1  C   -0.243095
     2  N    0.262324
     3  C   -0.606521
     4  C    0.302916
     5  C   -0.212664
     6  C    0.114251
     7  C   -0.061226
     8  O   -0.519043
     9  C    0.837249
    10  N   -0.640519
    11  C   -0.845078
    12  N   -0.244944
    13  C   -0.084985
    14  C   -0.346575
    15  C    0.326934
    16  N   -0.511785
    17  H    0.156350
    18  H    0.155752
    19  H    0.151538
    20  H    0.141661
    21  H    0.143829
    22  H    0.193735
    23  H    0.145105
    24  H    0.140829
    25  H    0.287034
    26  H    0.320906
    27  H    0.109996
    28  H    0.128798
    29  H    0.195291
    30  H    0.201936
 Sum of Mulliken charges =  -0.00000
 Mulliken charges with hydrogens summed into heavy atoms:
               1
     1  C    0.220544
     2  N    0.262324
     3  C   -0.321032
     4  C    0.496651
     5  C   -0.067559
     6  C    0.255081
     7  C   -0.061226
     8  O   -0.519043
     9  C    0.837249
    10  N   -0.032579
    11  C   -0.735081
    12  N   -0.244944
    13  C    0.043813
    14  C    0.050651
    15  C    0.326934
    16  N   -0.511785
 Electronic spatial extent (au):  <R**2>=           5668.1818
 Charge=             -0.0000 electrons
 Dipole moment (field-independent basis, Debye):
    X=              0.8260    Y=              4.9809    Z=              2.7501  Tot=              5.7493
 Quadrupole moment (field-independent basis, Debye-Ang):
   XX=           -131.6656   YY=           -100.9316   ZZ=            -87.3584
   XY=             15.1999   XZ=             -4.4214   YZ=             -5.2717
 Traceless Quadrupole moment (field-independent basis, Debye-Ang):
   XX=            -25.0137   YY=              5.7203   ZZ=             19.2934
   XY=             15.1999   XZ=             -4.4214   YZ=             -5.2717
 Octapole moment (field-independent basis, Debye-Ang**2):
  XXX=            -81.7421  YYY=             31.7779  ZZZ=             13.2691  XYY=            -26.4824
  XXY=            123.9109  XXZ=            105.5860  XZZ=            -12.4527  YZZ=              4.9054
  YYZ=             -1.6604  XYZ=             -9.9433
 Hexadecapole moment (field-independent basis, Debye-Ang**3):
 XXXX=          -7688.1392 YYYY=           -900.8907 ZZZZ=           -568.4415 XXXY=            563.2262
 XXXZ=            -83.1505 YYYX=            132.6807 YYYZ=            -28.2066 ZZZX=            -52.2279
 ZZZY=              9.3490 XXYY=          -1498.5208 XXZZ=          -1047.2016 YYZZ=           -239.1687
 XXYZ=           -127.5747 YYXZ=             16.2332 ZZXY=              4.7467
 N-N= 1.000350195825D+03 E-N=-3.676732826919D+03  KE= 7.148917908195D+02
 Unable to Open any file for archive entry.
 1\1\GINC-N2\SP\RB3LYP TD-FC\6-31+G(d,p)\C11H14N4O1\HPCMGAC13\13-Aug-20
 25\0\\# td=(50-50,nstates=3) b3lyp/6-31+g(d,p) geom=connectivity\\Titl
 e Card Required\\0,1\C,0,1.788842,-2.243368,1.296407\N,0,1.231118,-1.1
 79595,0.472155\C,0,-0.09064,-1.39008,-0.126193\C,0,-0.880143,-0.064475
 ,-0.314503\C,0,-1.1485,0.597198,0.999965\C,0,-2.37892,0.975076,1.39095
 \C,0,-3.561972,0.756657,0.54952\O,0,-4.690497,1.128474,0.882152\C,0,-3
 .353969,0.064599,-0.758343\N,0,-4.519686,-0.168715,-1.459882\C,0,-2.10
 6117,-0.301574,-1.142977\N,0,2.046937,-0.447715,-0.324535\C,0,3.324194
 ,-0.464399,-0.189394\C,0,4.152685,0.422484,-1.092595\C,0,4.973316,1.37
 853,-0.334835\N,0,5.624831,2.11785,0.279925\H,0,2.47252,-1.828057,2.04
 4209\H,0,0.976303,-2.74191,1.82587\H,0,2.338345,-2.988738,0.697043\H,0
 ,-0.000342,-1.890978,-1.101661\H,0,-0.654625,-2.049727,0.537609\H,0,-0
 .195041,0.597748,-0.87092\H,0,-0.288194,0.770664,1.641677\H,0,-2.55756
 7,1.46702,2.342613\H,0,-4.460177,-0.297683,-2.458415\H,0,-5.317306,0.3
 59686,-1.127964\H,0,-1.960432,-0.795592,-2.102851\H,0,3.8584,-1.060149
 ,0.551865\H,0,4.830628,-0.179021,-1.71329\H,0,3.486421,0.972272,-1.764
 639\\Version=ES64L-G16RevC.02\State=1-A\HF=-721.794808\RMSD=3.841e-09\
 PG=C01 [X(C11H14N4O1)]\\@
 The archive entry for this job was punched.


 KNOWLEDGE IS OF TWO KINDS:  WE KNOW A SUBJECT OURSELVES OR WE KNOW 
 WHERE WE CAN FIND INFORMATION UPON IT.

                                    -- SAMUEL JOHNSON
 Job cpu time:       0 days  0 hours 48 minutes 23.4 seconds.
 Elapsed time:       0 days  0 hours  6 minutes  9.4 seconds.
 File lengths (MBytes):  RWF=    821 Int=      0 D2E=      0 Chk=     37 Scr=      2
 Normal termination of Gaussian 16 at Wed Aug 13 15:32:20 2025.
