 Entering Gaussian System, Link 0=g16
 Input=M1149E.gjf
 Output=M1149E.log
 Initial command:
 /hpc/softwares/Gaussian/g16/l1.exe "/hpc/home/hpcmgac13/pbs.13265.admin1.x8z/Gau-3983696.inp" -scrdir="/hpc/home/hpcmgac13/pbs.13265.admin1.x8z/"
 Default linda workers: n1
 Default is to use   8 SMP processors on each worker.
 Entering Link 1 = /hpc/softwares/Gaussian/g16/l1.exe PID=   3983697.
  
 Copyright (c) 1988-2021, Gaussian, Inc.  All Rights Reserved.
  
 This is part of the Gaussian(R) 16 program.  It is based on
 the Gaussian(R) 09 system (copyright 2009, Gaussian, Inc.),
 the Gaussian(R) 03 system (copyright 2003, Gaussian, Inc.),
 the Gaussian(R) 98 system (copyright 1998, Gaussian, Inc.),
 the Gaussian(R) 94 system (copyright 1995, Gaussian, Inc.),
 the Gaussian 92(TM) system (copyright 1992, Gaussian, Inc.),
 the Gaussian 90(TM) system (copyright 1990, Gaussian, Inc.),
 the Gaussian 88(TM) system (copyright 1988, Gaussian, Inc.),
 the Gaussian 86(TM) system (copyright 1986, Carnegie Mellon
 University), and the Gaussian 82(TM) system (copyright 1983,
 Carnegie Mellon University). Gaussian is a federally registered
 trademark of Gaussian, Inc.
  
 This software contains proprietary and confidential information,
 including trade secrets, belonging to Gaussian, Inc.
  
 This software is provided under written license and may be
 used, copied, transmitted, or stored only in accord with that
 written license.
  
 The following legend is applicable only to US Government
 contracts under FAR:
  
                    RESTRICTED RIGHTS LEGEND
  
 Use, reproduction and disclosure by the US Government is
 subject to restrictions as set forth in subparagraphs (a)
 and (c) of the Commercial Computer Software - Restricted
 Rights clause in FAR 52.227-19.
  
 Gaussian, Inc.
 340 Quinnipiac St., Bldg. 40, Wallingford CT 06492
  
  
 ---------------------------------------------------------------
 Warning -- This program may not be used in any manner that
 competes with the business of Gaussian, Inc. or will provide
 assistance to any competitor of Gaussian, Inc.  The licensee
 of this program is prohibited from giving any competitor of
 Gaussian, Inc. access to this program.  By using this program,
 the user acknowledges that Gaussian, Inc. is engaged in the
 business of creating and licensing software in the field of
 computational chemistry and represents and warrants to the
 licensee that it is not a competitor of Gaussian, Inc. and that
 it will not use this program in any manner prohibited above.
 ---------------------------------------------------------------
  

 Cite this work as:
 Gaussian 16, Revision C.02,
 M. J. Frisch, G. W. Trucks, H. B. Schlegel, G. E. Scuseria, 
 M. A. Robb, J. R. Cheeseman, G. Scalmani, V. Barone, 
 G. A. Petersson, H. Nakatsuji, X. Li, M. Caricato, A. V. Marenich, 
 J. Bloino, B. G. Janesko, R. Gomperts, B. Mennucci, H. P. Hratchian, 
 J. V. Ortiz, A. F. Izmaylov, J. L. Sonnenberg, D. Williams-Young, 
 F. Ding, F. Lipparini, F. Egidi, J. Goings, B. Peng, A. Petrone, 
 T. Henderson, D. Ranasinghe, V. G. Zakrzewski, J. Gao, N. Rega, 
 G. Zheng, W. Liang, M. Hada, M. Ehara, K. Toyota, R. Fukuda, 
 J. Hasegawa, M. Ishida, T. Nakajima, Y. Honda, O. Kitao, H. Nakai, 
 T. Vreven, K. Throssell, J. A. Montgomery, Jr., J. E. Peralta, 
 F. Ogliaro, M. J. Bearpark, J. J. Heyd, E. N. Brothers, K. N. Kudin, 
 V. N. Staroverov, T. A. Keith, R. Kobayashi, J. Normand, 
 K. Raghavachari, A. P. Rendell, J. C. Burant, S. S. Iyengar, 
 J. Tomasi, M. Cossi, J. M. Millam, M. Klene, C. Adamo, R. Cammi, 
 J. W. Ochterski, R. L. Martin, K. Morokuma, O. Farkas, 
 J. B. Foresman, and D. J. Fox, Gaussian, Inc., Wallingford CT, 2019.
 
 ******************************************
 Gaussian 16:  ES64L-G16RevC.02  7-Dec-2021
                13-Aug-2025 
 ******************************************
 SetLPE:    new flags="-opt 'Tsnet.Node.lindarsharg: ssh'  -nodelist 'n1' -env GAUSS_MDEF=2147483648 -env GAUSS_EXEDIR="/hpc/softwares/Gaussian/g16/bsd:/hpc/softwares/Gaussian/g16""
 Will use up to    1 processors via Linda.
 ----------------------------------------------------------
 # td=(50-50,nstates=3) b3lyp/6-31+g(d,p) geom=connectivity
 ----------------------------------------------------------
 1/38=1,57=2,172=1/1;
 2/12=2,17=6,18=5,40=1/2;
 3/5=1,6=6,7=111,11=9,25=1,30=1,74=-5/1,2,3,8;
 4//1;
 5/5=2,38=5/2;
 8/6=1,10=2,108=3/1;
 9/41=3,42=1,48=2,70=2/14;
 6/7=2,8=2,9=2,10=2/1;
 99/5=1,9=1/99;
 -------------------
 Title Card Required
 -------------------
 Symbolic Z-matrix:
 Charge =  0 Multiplicity = 1
 C                     2.19042  -2.61579  -0.60909 
 N                     1.37115  -1.47263  -0.23096 
 C                     0.33882  -1.69217   0.78198 
 C                    -0.75693  -0.67318   0.6941 
 N                    -1.08226   0.07789   1.71699 
 O                    -2.15553   0.8408    1.23266 
 C                    -2.35374   0.45159  -0.03916 
 C                    -3.44549   1.0937   -0.81599 
 Cl                   -5.06349   0.36196  -0.42719 
 N                    -1.52969  -0.47461  -0.43075 
 N                     1.92523  -0.23894  -0.13674 
 C                     3.07441   0.02602  -0.64221 
 C                     3.57361   1.45223  -0.56849 
 C                     4.92584   1.54066  -0.00036 
 N                     6.00056   1.59342   0.43664 
 H                     2.56028  -2.49247  -1.63201 
 H                     3.05424  -2.75085   0.06265 
 H                     1.57405  -3.51539  -0.58394 
 H                    -0.09707  -2.67811   0.5968 
 H                     0.74479  -1.68061   1.80334 
 H                    -3.51731   2.15627  -0.58496 
 H                    -3.26796   0.94047  -1.87867 
 H                     3.71069  -0.70214  -1.14735 
 H                     3.6027    1.90756  -1.56845 
 H                     2.88257   2.04124   0.04264 
 
                          Input orientation:                          
 ---------------------------------------------------------------------
 Center     Atomic      Atomic             Coordinates (Angstroms)
 Number     Number       Type             X           Y           Z
 ---------------------------------------------------------------------
      1          6           0        2.190420   -2.615786   -0.609085
      2          7           0        1.371149   -1.472633   -0.230962
      3          6           0        0.338821   -1.692173    0.781980
      4          6           0       -0.756932   -0.673178    0.694104
      5          7           0       -1.082258    0.077893    1.716994
      6          8           0       -2.155528    0.840802    1.232658
      7          6           0       -2.353741    0.451593   -0.039159
      8          6           0       -3.445493    1.093704   -0.815993
      9         17           0       -5.063485    0.361958   -0.427190
     10          7           0       -1.529691   -0.474605   -0.430749
     11          7           0        1.925230   -0.238942   -0.136742
     12          6           0        3.074410    0.026024   -0.642214
     13          6           0        3.573609    1.452229   -0.568489
     14          6           0        4.925837    1.540657   -0.000364
     15          7           0        6.000558    1.593417    0.436637
     16          1           0        2.560280   -2.492468   -1.632014
     17          1           0        3.054240   -2.750846    0.062647
     18          1           0        1.574048   -3.515385   -0.583944
     19          1           0       -0.097072   -2.678108    0.596796
     20          1           0        0.744787   -1.680614    1.803335
     21          1           0       -3.517309    2.156272   -0.584964
     22          1           0       -3.267959    0.940468   -1.878667
     23          1           0        3.710693   -0.702136   -1.147349
     24          1           0        3.602698    1.907558   -1.568448
     25          1           0        2.882572    2.041237    0.042636
 ---------------------------------------------------------------------
                    Distance matrix (angstroms):
                    1          2          3          4          5
     1  C    0.000000
     2  N    1.456359   0.000000
     3  C    2.493299   1.462857   0.000000
     4  C    3.762833   2.454303   1.498915   0.000000
     5  N    4.834974   3.495407   2.454964   1.310057   0.000000
     6  O    5.850409   4.464484   3.583413   2.130316   1.403040
     7  C    5.512080   4.196932   3.538346   2.086285   2.200090
     8  C    6.750307   5.488933   4.963432   3.553959   3.610093
     9  Cl   7.843417   6.693933   5.904782   4.568939   4.530826
    10  N    4.296008   3.074223   2.538606   1.379087   2.262355
    11  N    2.437790   1.355683   2.339364   2.841278   3.547070
    12  C    2.785982   2.305688   3.530436   4.117501   4.779795
    13  C    4.296930   3.676897   4.709022   4.986490   5.365569
    14  C    5.012890   4.665715   5.666036   6.138177   6.417648
    15  N    5.773047   5.592654   6.555122   7.132139   7.355434
    16  H    1.094709   2.101676   3.376791   4.441231   5.575903
    17  H    1.102565   2.133736   3.001954   4.386397   5.277238
    18  H    1.090791   2.082931   2.591454   3.891660   5.026124
    19  H    2.586630   2.072203   1.093784   2.112967   3.133844
    20  H    2.963810   2.138679   1.099140   2.121434   2.537301
    21  H    7.439845   6.098466   5.616832   4.154694   3.943113
    22  H    6.637219   5.482637   5.197952   3.940591   4.295358
    23  H    2.502602   2.628098   4.008990   4.832335   5.637844
    24  H    4.834827   4.265486   5.397728   5.548488   6.007547
    25  H    4.753070   3.834910   4.577734   4.586769   4.730547
                    6          7          8          9         10
     6  O    0.000000
     7  C    1.344727   0.000000
     8  C    2.434120   1.485833   0.000000
     9  Cl   3.382396   2.738853   1.817833   0.000000
    10  N    2.211084   1.300094   2.505654   3.631467   0.000000
    11  N    4.437757   4.335430   5.575123   7.020511   3.475407
    12  C    5.615270   5.478103   6.609030   8.147664   4.636064
    13  C    6.036637   6.034479   7.032609   8.706782   5.456678
    14  C    7.221902   7.360694   8.422837  10.067674   6.776456
    15  N    8.229327   8.445381   9.541838  11.165829   7.857081
    16  H    6.446385   5.945779   7.042431   8.229286   4.716214
    17  H    6.435102   6.285876   7.602572   8.707867   5.141706
    18  H    6.015492   5.609031   6.818602   7.688641   4.347759
    19  H    4.126050   3.910502   5.237792   5.912344   2.821998
    20  H    3.885233   4.188313   5.667113   6.548539   3.408642
    21  H    2.624625   2.134883   1.089763   2.373840   3.300897
    22  H    3.305719   2.111536   1.088244   2.380204   2.668422
    23  H    6.515953   6.271885   7.385515   8.867758   5.294045
    24  H    6.491635   6.319630   7.134812   8.876603   5.771523
    25  H    5.314099   5.472900   6.455964   8.135142   5.101139
                   11         12         13         14         15
    11  N    0.000000
    12  C    1.283091   0.000000
    13  C    2.400754   1.512844   0.000000
    14  C    3.491305   2.476664   1.469390   0.000000
    15  N    4.504953   3.490413   2.630645   1.161369   0.000000
    16  H    2.778040   2.754421   4.209341   4.952195   5.727939
    17  H    2.761174   2.865003   4.281812   4.682290   5.262440
    18  H    3.325417   3.846565   5.354967   6.094146   6.836332
    19  H    3.252278   4.348077   5.647253   6.586668   7.446655
    20  H    2.689937   3.784239   4.841744   5.577732   6.341157
    21  H    5.963152   6.927625   7.125803   8.485721   9.589070
    22  H    5.603082   6.526153   6.984663   8.427725   9.575614
    23  H    2.103272   1.090979   2.234985   2.796832   3.608609
    24  H    3.077522   2.162676   1.099131   2.084275   3.141462
    25  H    2.479495   2.137032   1.094503   2.104130   3.174526
                   16         17         18         19         20
    16  H    0.000000
    17  H    1.783993   0.000000
    18  H    1.765634   1.787056   0.000000
    19  H    3.473266   3.197088   2.210842   0.000000
    20  H    3.969477   3.083661   3.123005   1.777486   0.000000
    21  H    7.722965   8.227057   7.621654   6.038693   6.212176
    22  H    6.768623   7.573949   6.706412   5.410779   6.043951
    23  H    2.182576   2.468245   3.577296   4.630937   4.296575
    24  H    4.522268   4.966085   5.873072   6.277333   5.693115
    25  H    4.843842   4.795199   5.742899   5.608707   4.639220
                   21         22         23         24         25
    21  H    0.000000
    22  H    1.792769   0.000000
    23  H    7.792996   7.206564   0.000000
    24  H    7.191912   6.945317   2.645655   0.000000
    25  H    6.431609   6.536982   3.102893   1.769758   0.000000
 Stoichiometry    C8H10ClN5O
 Framework group  C1[X(C8H10ClN5O)]
 Deg. of freedom    69
 Full point group                 C1      NOp   1
 Largest Abelian subgroup         C1      NOp   1
 Largest concise Abelian subgroup C1      NOp   1
                         Standard orientation:                         
 ---------------------------------------------------------------------
 Center     Atomic      Atomic             Coordinates (Angstroms)
 Number     Number       Type             X           Y           Z
 ---------------------------------------------------------------------
      1          6           0       -2.190420    2.615786   -0.609085
      2          7           0       -1.371149    1.472633   -0.230962
      3          6           0       -0.338821    1.692173    0.781980
      4          6           0        0.756932    0.673178    0.694104
      5          7           0        1.082258   -0.077893    1.716994
      6          8           0        2.155528   -0.840802    1.232658
      7          6           0        2.353741   -0.451593   -0.039159
      8          6           0        3.445493   -1.093704   -0.815993
      9         17           0        5.063485   -0.361958   -0.427190
     10          7           0        1.529691    0.474605   -0.430749
     11          7           0       -1.925230    0.238942   -0.136742
     12          6           0       -3.074410   -0.026024   -0.642214
     13          6           0       -3.573609   -1.452229   -0.568489
     14          6           0       -4.925837   -1.540657   -0.000364
     15          7           0       -6.000558   -1.593417    0.436637
     16          1           0       -2.560280    2.492468   -1.632014
     17          1           0       -3.054240    2.750846    0.062647
     18          1           0       -1.574048    3.515385   -0.583944
     19          1           0        0.097072    2.678108    0.596796
     20          1           0       -0.744787    1.680614    1.803335
     21          1           0        3.517309   -2.156272   -0.584964
     22          1           0        3.267959   -0.940468   -1.878667
     23          1           0       -3.710693    0.702136   -1.147349
     24          1           0       -3.602698   -1.907558   -1.568448
     25          1           0       -2.882572   -2.041237    0.042636
 ---------------------------------------------------------------------
 Rotational constants (GHZ):           1.1101818           0.1915283           0.1779398
 Standard basis: 6-31+G(d,p) (6D, 7F)
 There are   339 symmetry adapted cartesian basis functions of A   symmetry.
 There are   339 symmetry adapted basis functions of A   symmetry.
   339 basis functions,   574 primitive gaussians,   339 cartesian basis functions
    59 alpha electrons       59 beta electrons
       nuclear repulsion energy      1005.4586906579 Hartrees.
 NAtoms=   25 NActive=   25 NUniq=   25 SFac= 1.00D+00 NAtFMM=   60 NAOKFM=F Big=F
 Integral buffers will be    131072 words long.
 Regular integral format.
 Two-electron integral symmetry is turned on.
 One-electron integrals computed using PRISM.
 NBasis=   339 RedAO= T EigKep=  2.15D-06  NBF=   339
 NBsUse=   339 1.00D-06 EigRej= -1.00D+00 NBFU=   339
 ExpMin= 4.38D-02 ExpMax= 2.52D+04 ExpMxC= 3.78D+03 IAcc=3 IRadAn=         5 AccDes= 0.00D+00
 Harris functional with IExCor=  402 and IRadAn=       5 diagonalized for initial guess.
 HarFok:  IExCor=  402 AccDes= 0.00D+00 IRadAn=         5 IDoV= 1 UseB2=F ITyADJ=14
 ICtDFT=  3500011 ScaDFX=  1.000000  1.000000  1.000000  1.000000
 FoFCou: FMM=F IPFlag=           0 FMFlag=      100000 FMFlg1=           0
         NFxFlg=           0 DoJE=T BraDBF=F KetDBF=T FulRan=T
         wScrn=  0.000000 ICntrl=       500 IOpCl=  0 I1Cent=   200000004 NGrid=           0
         NMat0=    1 NMatS0=      1 NMatT0=    0 NMatD0=    1 NMtDS0=    0 NMtDT0=    0
 Petite list used in FoFCou.
 Requested convergence on RMS density matrix=1.00D-08 within 128 cycles.
 Requested convergence on MAX density matrix=1.00D-06.
 Requested convergence on             energy=1.00D-06.
 No special actions if energy rises.
 SCF Done:  E(RB3LYP) =  -1119.98091815     A.U. after   15 cycles
            NFock= 15  Conv=0.57D-08     -V/T= 2.0068
 DoSCS=F DFT=T ScalE2(SS,OS)=  1.000000  1.000000
 ExpMin= 4.38D-02 ExpMax= 2.52D+04 ExpMxC= 3.78D+03 IAcc=3 IRadAn=         5 AccDes= 0.00D+00
 HarFok:  IExCor=  205 AccDes= 0.00D+00 IRadAn=         5 IDoV=-2 UseB2=F ITyADJ=14
 ICtDFT= 12500011 ScaDFX=  1.000000  1.000000  1.000000  1.000000
 Range of M.O.s used for correlation:    20   339
 NBasis=   339 NAE=    59 NBE=    59 NFC=    19 NFV=     0
 NROrb=    320 NOA=    40 NOB=    40 NVA=   280 NVB=   280

 **** Warning!!: The largest alpha MO coefficient is  0.11851331D+03

 Orbital symmetries:
       Occupied  (A) (A) (A) (A) (A) (A) (A) (A) (A) (A) (A) (A)
                 (A) (A) (A) (A) (A) (A) (A) (A) (A) (A) (A) (A)
                 (A) (A) (A) (A) (A) (A) (A) (A) (A) (A) (A) (A)
                 (A) (A) (A) (A) (A) (A) (A) (A) (A) (A) (A) (A)
                 (A) (A) (A) (A) (A) (A) (A) (A) (A) (A) (A)
       Virtual   (A) (A) (A) (A) (A) (A) (A) (A) (A) (A) (A) (A)
                 (A) (A) (A) (A) (A) (A) (A) (A) (A) (A) (A) (A)
                 (A) (A) (A) (A) (A) (A) (A) (A) (A) (A) (A) (A)
                 (A) (A) (A) (A) (A) (A) (A) (A) (A) (A) (A) (A)
                 (A) (A) (A) (A) (A) (A) (A) (A) (A) (A) (A) (A)
                 (A) (A) (A) (A) (A) (A) (A) (A) (A) (A) (A) (A)
                 (A) (A) (A) (A) (A) (A) (A) (A) (A) (A) (A) (A)
                 (A) (A) (A) (A) (A) (A) (A) (A) (A) (A) (A) (A)
                 (A) (A) (A) (A) (A) (A) (A) (A) (A) (A) (A) (A)
                 (A) (A) (A) (A) (A) (A) (A) (A) (A) (A) (A) (A)
                 (A) (A) (A) (A) (A) (A) (A) (A) (A) (A) (A) (A)
                 (A) (A) (A) (A) (A) (A) (A) (A) (A) (A) (A) (A)
                 (A) (A) (A) (A) (A) (A) (A) (A) (A) (A) (A) (A)
                 (A) (A) (A) (A) (A) (A) (A) (A) (A) (A) (A) (A)
                 (A) (A) (A) (A) (A) (A) (A) (A) (A) (A) (A) (A)
                 (A) (A) (A) (A) (A) (A) (A) (A) (A) (A) (A) (A)
                 (A) (A) (A) (A) (A) (A) (A) (A) (A) (A) (A) (A)
                 (A) (A) (A) (A) (A) (A) (A) (A) (A) (A) (A) (A)
                 (A) (A) (A) (A) (A) (A) (A) (A) (A) (A) (A) (A)
                 (A) (A) (A) (A) (A) (A) (A) (A) (A) (A) (A) (A)
                 (A) (A) (A) (A) (A) (A) (A) (A) (A) (A) (A) (A)
                 (A) (A) (A) (A) (A) (A) (A) (A) (A) (A) (A) (A)
                 (A) (A) (A) (A) (A) (A) (A) (A) (A) (A) (A) (A)
                 (A) (A) (A) (A)
    24 initial guesses have been made.
 Convergence on wavefunction:    0.001000000000000
 Iteration     1 Dimension    24 NMult     0 NNew     24
 CISAX will form    24 AO SS matrices at one time.
 New state      1 was old state      4
 New state      3 was old state      1
 New state      4 was old state     14
 New state      5 was old state     16
 New state      7 was old state      5
 New state      8 was old state     10
 New state     10 was old state     20
 New state     11 was old state      8
 New state     12 was old state      7
 Vector   5 SDiff=5.17D+00 TDiff=8.67D+00 assumed to be singlet.
 Vector   6 SDiff=1.81D-01 TDiff=7.31D+00 assumed to be singlet.
 Vector  11 SDiff=5.20D+00 TDiff=8.51D+00 assumed to be singlet.
 Vector  12 SDiff=1.87D-01 TDiff=7.01D+00 assumed to be singlet.
 Iteration     2 Dimension    36 NMult    24 NNew     12
 New state      5 was old state      7
 New state      6 was old state      9
 Iteration     3 Dimension    48 NMult    36 NNew     12
 Iteration     4 Dimension    60 NMult    48 NNew     12
 Iteration     5 Dimension    70 NMult    60 NNew     10
 Iteration     6 Dimension    78 NMult    70 NNew      8
 Iteration     7 Dimension    80 NMult    78 NNew      2
 ***********************************************************************
 Excited states from <AA,BB:AA,BB> singles matrix:
 ***********************************************************************
 
 Ground to excited state transition densities written to RWF  633
 Ground to excited state transition electric dipole moments (Au):
       state          X           Y           Z        Dip. S.      Osc.
         1         0.0000      0.0000     -0.0000      0.0000      0.0000
         2        -0.0000      0.0000     -0.0000      0.0000      0.0000
         3        -0.2470      0.1024     -0.0207      0.0719      0.0071
         4        -0.0000      0.0000     -0.0000      0.0000      0.0000
         5         0.0743      0.0827      0.1667      0.0402      0.0052
         6        -0.8811     -0.7074     -0.3987      1.4357      0.1900
 Ground to excited state transition velocity dipole moments (Au):
       state          X           Y           Z        Dip. S.      Osc.
         1        -0.0000     -0.0000     -0.0000      0.0000      0.0000
         2         0.0000     -0.0000     -0.0000      0.0000      0.0000
         3         0.0340     -0.0129     -0.0009      0.0013      0.0059
         4         0.0000     -0.0000      0.0000      0.0000      0.0000
         5        -0.0125     -0.0137     -0.0261      0.0010      0.0035
         6         0.1708      0.1360      0.0787      0.0539      0.1809
 Ground to excited state transition magnetic dipole moments (Au):
       state          X           Y           Z
         1        -0.0000     -0.0000      0.0000
         2        -0.0000     -0.0000     -0.0000
         3        -0.0191     -0.0288     -0.1168
         4         0.0000      0.0000     -0.0000
         5        -0.1873     -0.2102      0.1110
         6         0.3723      0.3654     -0.5428
 Ground to excited state transition velocity quadrupole moments (Au):
       state          XX          YY          ZZ          XY          XZ          YZ
         1        -0.0000     -0.0000     -0.0000     -0.0000      0.0000     -0.0000
         2        -0.0000     -0.0000     -0.0000      0.0000      0.0000      0.0000
         3         0.0686     -0.0599      0.0060      0.0271     -0.0010      0.0004
         4        -0.0000     -0.0000      0.0000     -0.0000     -0.0000      0.0000
         5         0.0975     -0.0177     -0.0238      0.1439      0.1696     -0.0954
         6        -1.1606      0.3823     -0.0327     -0.7977     -0.4256      0.1139
 <0|del|b> * <b|rxdel|0> + <0|del|b> * <b|delr+rdel|0>
 Rotatory Strengths (R) in cgs (10**-40 erg-esu-cm/Gauss)
       state          XX          YY          ZZ    R(velocity)    E-M Angle
         1         0.0000      0.0000      0.0000      0.0000       90.00
         2         0.0000      0.0000      0.0000      0.0000       90.00
         3         1.0384     -1.2111     -0.6614     -0.2780       92.27
         4        -0.0000      0.0000      0.0000     -0.0000       90.00
         5        -2.6418      7.9441      3.0785      2.7936       76.13
         6         3.5363    183.6448     64.0335     83.7382       66.19
 1/2[<0|r|b>*<b|rxdel|0> + (<0|rxdel|b>*<b|r|0>)*]
 Rotatory Strengths (R) in cgs (10**-40 erg-esu-cm/Gauss)
       state          XX          YY          ZZ     R(length)
         1         0.0000      0.0000      0.0000      0.0000
         2        -0.0000      0.0000     -0.0000      0.0000
         3        -3.3315      2.0833     -1.7132     -0.9871
         4         0.0000     -0.0000     -0.0000     -0.0000
         5         9.8449     12.2861    -13.0898      3.0137
         6       231.9935    182.7660   -153.0624     87.2323
  1/2[<0|del|b>*<b|r|0> + (<0|r|b>*<b|del|0>)*] (Au)
       state          X           Y           Z        Dip. S.   Osc.(frdel)
         1        -0.0000     -0.0000      0.0000      0.0000      0.0000
         2        -0.0000     -0.0000      0.0000      0.0000      0.0000
         3        -0.0084     -0.0013      0.0000      0.0097      0.0065
         4        -0.0000     -0.0000     -0.0000      0.0000      0.0000
         5        -0.0009     -0.0011     -0.0044      0.0064      0.0043
         6        -0.1505     -0.0962     -0.0314      0.2781      0.1854

 Excitation energies and oscillator strengths:
 
 Excited State   1:      Triplet-A      3.4269 eV  361.80 nm  f=0.0000  <S**2>=2.000
      48 -> 61         0.12357
      59 -> 60        -0.10535
      59 -> 61         0.66481
 This state for optimization and/or second-order correction.
 Total Energy, E(TD-HF/TD-DFT) =  -1119.85498200    
 Copying the excited state density for this state as the 1-particle RhoCI density.
 
 Excited State   2:      Triplet-A      4.0224 eV  308.24 nm  f=0.0000  <S**2>=2.000
      59 -> 60         0.69184
 
 Excited State   3:      Singlet-A      4.0493 eV  306.19 nm  f=0.0071  <S**2>=0.000
      59 -> 60         0.70445
 
 Excited State   4:      Triplet-A      4.0880 eV  303.29 nm  f=0.0000  <S**2>=2.000
      54 -> 60         0.14532
      57 -> 60         0.58428
      57 -> 62        -0.16671
      58 -> 60        -0.23766
 
 Excited State   5:      Singlet-A      5.3316 eV  232.55 nm  f=0.0052  <S**2>=0.000
      59 -> 62         0.66916
      59 -> 64        -0.20043
 
 Excited State   6:      Singlet-A      5.4030 eV  229.47 nm  f=0.1900  <S**2>=0.000
      59 -> 61         0.59616
      59 -> 63         0.35698
 SavETr:  write IOETrn=   770 NScale= 10 NData=  16 NLR=1 NState=    6 LETran=     118.

 **********************************************************************

            Population analysis using the SCF Density.

 **********************************************************************

 Orbital symmetries:
       Occupied  (A) (A) (A) (A) (A) (A) (A) (A) (A) (A) (A) (A)
                 (A) (A) (A) (A) (A) (A) (A) (A) (A) (A) (A) (A)
                 (A) (A) (A) (A) (A) (A) (A) (A) (A) (A) (A) (A)
                 (A) (A) (A) (A) (A) (A) (A) (A) (A) (A) (A) (A)
                 (A) (A) (A) (A) (A) (A) (A) (A) (A) (A) (A)
       Virtual   (A) (A) (A) (A) (A) (A) (A) (A) (A) (A) (A) (A)
                 (A) (A) (A) (A) (A) (A) (A) (A) (A) (A) (A) (A)
                 (A) (A) (A) (A) (A) (A) (A) (A) (A) (A) (A) (A)
                 (A) (A) (A) (A) (A) (A) (A) (A) (A) (A) (A) (A)
                 (A) (A) (A) (A) (A) (A) (A) (A) (A) (A) (A) (A)
                 (A) (A) (A) (A) (A) (A) (A) (A) (A) (A) (A) (A)
                 (A) (A) (A) (A) (A) (A) (A) (A) (A) (A) (A) (A)
                 (A) (A) (A) (A) (A) (A) (A) (A) (A) (A) (A) (A)
                 (A) (A) (A) (A) (A) (A) (A) (A) (A) (A) (A) (A)
                 (A) (A) (A) (A) (A) (A) (A) (A) (A) (A) (A) (A)
                 (A) (A) (A) (A) (A) (A) (A) (A) (A) (A) (A) (A)
                 (A) (A) (A) (A) (A) (A) (A) (A) (A) (A) (A) (A)
                 (A) (A) (A) (A) (A) (A) (A) (A) (A) (A) (A) (A)
                 (A) (A) (A) (A) (A) (A) (A) (A) (A) (A) (A) (A)
                 (A) (A) (A) (A) (A) (A) (A) (A) (A) (A) (A) (A)
                 (A) (A) (A) (A) (A) (A) (A) (A) (A) (A) (A) (A)
                 (A) (A) (A) (A) (A) (A) (A) (A) (A) (A) (A) (A)
                 (A) (A) (A) (A) (A) (A) (A) (A) (A) (A) (A) (A)
                 (A) (A) (A) (A) (A) (A) (A) (A) (A) (A) (A) (A)
                 (A) (A) (A) (A) (A) (A) (A) (A) (A) (A) (A) (A)
                 (A) (A) (A) (A) (A) (A) (A) (A) (A) (A) (A) (A)
                 (A) (A) (A) (A) (A) (A) (A) (A) (A) (A) (A) (A)
                 (A) (A) (A) (A) (A) (A) (A) (A) (A) (A) (A) (A)
                 (A) (A) (A) (A)
 The electronic state is 1-A.
 Alpha  occ. eigenvalues -- -101.56539 -19.27622 -14.41780 -14.40899 -14.39443
 Alpha  occ. eigenvalues --  -14.37306 -14.34749 -10.32554 -10.29077 -10.28460
 Alpha  occ. eigenvalues --  -10.26010 -10.25200 -10.24872 -10.24341 -10.24158
 Alpha  occ. eigenvalues --   -9.48067  -7.24525  -7.23468  -7.23443  -1.19316
 Alpha  occ. eigenvalues --   -1.04133  -0.96884  -0.91718  -0.91514  -0.88168
 Alpha  occ. eigenvalues --   -0.86882  -0.79444  -0.76975  -0.74376  -0.70483
 Alpha  occ. eigenvalues --   -0.65032  -0.62503  -0.58677  -0.56206  -0.53344
 Alpha  occ. eigenvalues --   -0.53233  -0.51678  -0.50861  -0.49399  -0.48663
 Alpha  occ. eigenvalues --   -0.47155  -0.46411  -0.44840  -0.44309  -0.43429
 Alpha  occ. eigenvalues --   -0.42995  -0.41212  -0.38164  -0.36895  -0.36734
 Alpha  occ. eigenvalues --   -0.35248  -0.34048  -0.33619  -0.32992  -0.32615
 Alpha  occ. eigenvalues --   -0.32127  -0.31221  -0.29982  -0.24309
 Alpha virt. eigenvalues --   -0.07132  -0.02956  -0.01760  -0.00978  -0.00545
 Alpha virt. eigenvalues --    0.00711   0.01264   0.01954   0.02046   0.02447
 Alpha virt. eigenvalues --    0.02848   0.03566   0.03873   0.04451   0.04659
 Alpha virt. eigenvalues --    0.04916   0.05423   0.05846   0.06533   0.07417
 Alpha virt. eigenvalues --    0.07452   0.07979   0.08223   0.08853   0.09085
 Alpha virt. eigenvalues --    0.09375   0.09905   0.10192   0.10752   0.11380
 Alpha virt. eigenvalues --    0.11710   0.12180   0.12691   0.13525   0.14171
 Alpha virt. eigenvalues --    0.14320   0.15266   0.16133   0.16482   0.16744
 Alpha virt. eigenvalues --    0.17481   0.17616   0.18128   0.18620   0.19279
 Alpha virt. eigenvalues --    0.19785   0.19960   0.20086   0.20932   0.21460
 Alpha virt. eigenvalues --    0.22111   0.22433   0.22999   0.23167   0.24098
 Alpha virt. eigenvalues --    0.24321   0.24466   0.24816   0.25675   0.25764
 Alpha virt. eigenvalues --    0.25882   0.26275   0.26893   0.27321   0.28026
 Alpha virt. eigenvalues --    0.28161   0.28661   0.29002   0.29574   0.29839
 Alpha virt. eigenvalues --    0.30793   0.31114   0.32056   0.33520   0.34238
 Alpha virt. eigenvalues --    0.34965   0.35696   0.36737   0.36967   0.38051
 Alpha virt. eigenvalues --    0.38699   0.39561   0.40585   0.42823   0.43105
 Alpha virt. eigenvalues --    0.44468   0.46791   0.48276   0.50434   0.55577
 Alpha virt. eigenvalues --    0.56966   0.59591   0.61536   0.62367   0.62777
 Alpha virt. eigenvalues --    0.63910   0.64483   0.66168   0.66403   0.66595
 Alpha virt. eigenvalues --    0.68678   0.69196   0.70002   0.70970   0.72827
 Alpha virt. eigenvalues --    0.73374   0.76696   0.77798   0.78174   0.79913
 Alpha virt. eigenvalues --    0.81404   0.83959   0.84683   0.85491   0.86076
 Alpha virt. eigenvalues --    0.86634   0.87058   0.88667   0.89551   0.90642
 Alpha virt. eigenvalues --    0.91434   0.92104   0.92715   0.93277   0.94501
 Alpha virt. eigenvalues --    0.95149   0.95524   0.96346   0.98145   0.99304
 Alpha virt. eigenvalues --    1.00159   1.00810   1.01328   1.01796   1.02650
 Alpha virt. eigenvalues --    1.03104   1.04692   1.05704   1.06734   1.07110
 Alpha virt. eigenvalues --    1.08618   1.09199   1.10653   1.12902   1.14515
 Alpha virt. eigenvalues --    1.14912   1.16748   1.18493   1.20497   1.22118
 Alpha virt. eigenvalues --    1.22648   1.25535   1.28630   1.30007   1.30854
 Alpha virt. eigenvalues --    1.32319   1.34609   1.35899   1.36846   1.39019
 Alpha virt. eigenvalues --    1.41201   1.43323   1.44890   1.47032   1.47963
 Alpha virt. eigenvalues --    1.49855   1.51869   1.52357   1.53076   1.53788
 Alpha virt. eigenvalues --    1.56107   1.57095   1.60203   1.62724   1.64969
 Alpha virt. eigenvalues --    1.66453   1.67292   1.68281   1.73057   1.74080
 Alpha virt. eigenvalues --    1.78250   1.81230   1.81806   1.84095   1.85478
 Alpha virt. eigenvalues --    1.87393   1.88560   1.89707   1.90643   1.92151
 Alpha virt. eigenvalues --    1.92944   1.94319   1.96623   1.98510   2.00126
 Alpha virt. eigenvalues --    2.02104   2.03502   2.05400   2.06073   2.07195
 Alpha virt. eigenvalues --    2.08944   2.10520   2.11544   2.12592   2.13274
 Alpha virt. eigenvalues --    2.15432   2.16078   2.17998   2.20146   2.22467
 Alpha virt. eigenvalues --    2.22770   2.23056   2.26660   2.27963   2.30908
 Alpha virt. eigenvalues --    2.31801   2.34062   2.35717   2.39049   2.41026
 Alpha virt. eigenvalues --    2.42755   2.44799   2.45515   2.49929   2.51742
 Alpha virt. eigenvalues --    2.53761   2.54676   2.57265   2.57871   2.58959
 Alpha virt. eigenvalues --    2.61187   2.62327   2.65003   2.66270   2.70257
 Alpha virt. eigenvalues --    2.72369   2.76171   2.77284   2.78781   2.79276
 Alpha virt. eigenvalues --    2.83200   2.86587   2.88547   2.89910   2.91223
 Alpha virt. eigenvalues --    2.91786   2.94663   2.96665   2.99038   3.02928
 Alpha virt. eigenvalues --    3.04572   3.09877   3.11872   3.20896   3.22536
 Alpha virt. eigenvalues --    3.25782   3.28745   3.32520   3.35100   3.42095
 Alpha virt. eigenvalues --    3.42514   3.43515   3.45675   3.48651   3.54169
 Alpha virt. eigenvalues --    4.09717   4.14792   4.16755   4.23820   4.25694
 Alpha virt. eigenvalues --    4.29216   4.32924   4.38041   4.40676   4.51069
 Alpha virt. eigenvalues --    4.55552   4.60096   4.60354   4.68404   4.76184
          Condensed to atoms (all electrons):
               1          2          3          4          5          6
     1  C    5.229521   0.111900   0.076707  -0.175593  -0.003400   0.000388
     2  N    0.111900   7.488668   0.337563  -0.063182  -0.046246   0.007089
     3  C    0.076707   0.337563  21.074739  -8.912870  -1.165442   0.207365
     4  C   -0.175593  -0.063182  -8.912870  19.299568  -1.107478  -0.096096
     5  N   -0.003400  -0.046246  -1.165442  -1.107478   7.691547   0.012117
     6  O    0.000388   0.007089   0.207365  -0.096096   0.012117   7.835497
     7  C   -0.035851  -0.118951  -4.583430  -0.443287   1.123657   0.220526
     8  C   -0.006785  -0.037329  -1.380531  -3.443406   0.908915  -0.212408
     9  Cl  -0.000050  -0.000420   0.002041  -0.059438   0.001459  -0.005788
    10  N   -0.010498  -0.068048  -0.565268   0.750856  -0.052316  -0.067463
    11  N   -0.053291  -0.445736   0.053679  -0.101498   0.036398  -0.008685
    12  C   -0.086577   0.109458   0.101504  -0.113660   0.001707  -0.000226
    13  C   -0.008858  -0.108324  -0.094629   0.043885   0.003110  -0.000251
    14  C    0.004468  -0.038450   0.008119   0.003038  -0.000632   0.000064
    15  N   -0.000196   0.001449  -0.001239   0.001254   0.000020  -0.000003
    16  H    0.392664  -0.029858   0.027054  -0.011291  -0.000016   0.000000
    17  H    0.420642  -0.073015   0.003041  -0.019415   0.000127  -0.000004
    18  H    0.424819  -0.058622  -0.001663  -0.005325   0.000066   0.000009
    19  H   -0.010521  -0.071380   0.470256  -0.092830   0.004882  -0.000402
    20  H    0.015222  -0.082221   0.637615  -0.260813   0.005495  -0.000129
    21  H    0.000025   0.000171   0.001592   0.015156  -0.003886  -0.004386
    22  H   -0.000047  -0.000526  -0.002387  -0.011844  -0.001058   0.007727
    23  H    0.018633  -0.050131  -0.000459   0.001410  -0.000032  -0.000003
    24  H    0.001378  -0.000560   0.001031   0.000518  -0.000089   0.000005
    25  H   -0.000756  -0.022036  -0.012742   0.011553  -0.000271  -0.000018
               7          8          9         10         11         12
     1  C   -0.035851  -0.006785  -0.000050  -0.010498  -0.053291  -0.086577
     2  N   -0.118951  -0.037329  -0.000420  -0.068048  -0.445736   0.109458
     3  C   -4.583430  -1.380531   0.002041  -0.565268   0.053679   0.101504
     4  C   -0.443287  -3.443406  -0.059438   0.750856  -0.101498  -0.113660
     5  N    1.123657   0.908915   0.001459  -0.052316   0.036398   0.001707
     6  O    0.220526  -0.212408  -0.005788  -0.067463  -0.008685  -0.000226
     7  C   11.768756  -1.852774  -0.119462   0.483183   0.001143   0.009610
     8  C   -1.852774  11.708981   0.298877  -0.243292   0.021555  -0.001176
     9  Cl  -0.119462   0.298877  16.902619  -0.006059   0.000442   0.000037
    10  N    0.483183  -0.243292  -0.006059   6.886029   0.072005   0.007381
    11  N    0.001143   0.021555   0.000442   0.072005   7.382964   0.331625
    12  C    0.009610  -0.001176   0.000037   0.007381   0.331625   5.509981
    13  C    0.002847   0.002289  -0.000015  -0.000512  -0.179680   0.170764
    14  C   -0.003713  -0.001414  -0.000032   0.002862   0.159122  -0.252136
    15  N    0.000197   0.000027   0.000000  -0.000027  -0.008945   0.031704
    16  H   -0.000857  -0.000142   0.000001  -0.000150  -0.040462   0.008655
    17  H   -0.001114  -0.000031  -0.000001  -0.000088   0.023226  -0.002657
    18  H   -0.000166   0.000067   0.000001   0.000173   0.005951  -0.005606
    19  H   -0.002604   0.003593   0.000132  -0.003681   0.023379  -0.000098
    20  H   -0.038226  -0.002755  -0.000060   0.009824   0.022563  -0.001858
    21  H   -0.070631   0.395308  -0.045880   0.009365  -0.000174   0.000027
    22  H   -0.113758   0.474861  -0.042018  -0.010201   0.000330   0.000046
    23  H    0.000733   0.000038  -0.000000   0.000062  -0.007745   0.359376
    24  H   -0.001813  -0.000154  -0.000000  -0.000022   0.009155  -0.048695
    25  H    0.002402   0.000304  -0.000000  -0.000077  -0.005171  -0.045102
              13         14         15         16         17         18
     1  C   -0.008858   0.004468  -0.000196   0.392664   0.420642   0.424819
     2  N   -0.108324  -0.038450   0.001449  -0.029858  -0.073015  -0.058622
     3  C   -0.094629   0.008119  -0.001239   0.027054   0.003041  -0.001663
     4  C    0.043885   0.003038   0.001254  -0.011291  -0.019415  -0.005325
     5  N    0.003110  -0.000632   0.000020  -0.000016   0.000127   0.000066
     6  O   -0.000251   0.000064  -0.000003   0.000000  -0.000004   0.000009
     7  C    0.002847  -0.003713   0.000197  -0.000857  -0.001114  -0.000166
     8  C    0.002289  -0.001414   0.000027  -0.000142  -0.000031   0.000067
     9  Cl  -0.000015  -0.000032   0.000000   0.000001  -0.000001   0.000001
    10  N   -0.000512   0.002862  -0.000027  -0.000150  -0.000088   0.000173
    11  N   -0.179680   0.159122  -0.008945  -0.040462   0.023226   0.005951
    12  C    0.170764  -0.252136   0.031704   0.008655  -0.002657  -0.005606
    13  C    5.958475  -0.281080  -0.012553   0.008921  -0.002128  -0.003025
    14  C   -0.281080   5.878425   0.368405  -0.005831   0.007095  -0.000297
    15  N   -0.012553   0.368405   7.133874   0.000111  -0.000178   0.000000
    16  H    0.008921  -0.005831   0.000111   0.561793  -0.042782  -0.019531
    17  H   -0.002128   0.007095  -0.000178  -0.042782   0.556295  -0.029469
    18  H   -0.003025  -0.000297   0.000000  -0.019531  -0.029469   0.539320
    19  H   -0.000120  -0.000305   0.000001   0.000420  -0.000588   0.002992
    20  H   -0.002597   0.003322  -0.000038  -0.000436   0.002570  -0.000247
    21  H   -0.000031  -0.000001   0.000000   0.000000   0.000000   0.000000
    22  H   -0.000003  -0.000001   0.000000  -0.000000  -0.000000  -0.000000
    23  H   -0.047153   0.004479   0.000292  -0.000862  -0.001056  -0.000059
    24  H    0.390939  -0.040969  -0.004902  -0.000049   0.000017  -0.000000
    25  H    0.466720  -0.070173   0.001493  -0.000002  -0.000007   0.000000
              19         20         21         22         23         24
     1  C   -0.010521   0.015222   0.000025  -0.000047   0.018633   0.001378
     2  N   -0.071380  -0.082221   0.000171  -0.000526  -0.050131  -0.000560
     3  C    0.470256   0.637615   0.001592  -0.002387  -0.000459   0.001031
     4  C   -0.092830  -0.260813   0.015156  -0.011844   0.001410   0.000518
     5  N    0.004882   0.005495  -0.003886  -0.001058  -0.000032  -0.000089
     6  O   -0.000402  -0.000129  -0.004386   0.007727  -0.000003   0.000005
     7  C   -0.002604  -0.038226  -0.070631  -0.113758   0.000733  -0.001813
     8  C    0.003593  -0.002755   0.395308   0.474861   0.000038  -0.000154
     9  Cl   0.000132  -0.000060  -0.045880  -0.042018  -0.000000  -0.000000
    10  N   -0.003681   0.009824   0.009365  -0.010201   0.000062  -0.000022
    11  N    0.023379   0.022563  -0.000174   0.000330  -0.007745   0.009155
    12  C   -0.000098  -0.001858   0.000027   0.000046   0.359376  -0.048695
    13  C   -0.000120  -0.002597  -0.000031  -0.000003  -0.047153   0.390939
    14  C   -0.000305   0.003322  -0.000001  -0.000001   0.004479  -0.040969
    15  N    0.000001  -0.000038   0.000000   0.000000   0.000292  -0.004902
    16  H    0.000420  -0.000436   0.000000  -0.000000  -0.000862  -0.000049
    17  H   -0.000588   0.002570   0.000000  -0.000000  -0.001056   0.000017
    18  H    0.002992  -0.000247   0.000000  -0.000000  -0.000059  -0.000000
    19  H    0.559321  -0.035633   0.000000   0.000001   0.000020  -0.000000
    20  H   -0.035633   0.564355  -0.000000   0.000000  -0.000030   0.000002
    21  H    0.000000  -0.000000   0.511836  -0.029148   0.000000  -0.000000
    22  H    0.000001   0.000000  -0.029148   0.503020  -0.000000   0.000000
    23  H    0.000020  -0.000030   0.000000  -0.000000   0.589259  -0.000062
    24  H   -0.000000   0.000002  -0.000000   0.000000  -0.000062   0.522339
    25  H    0.000000  -0.000007   0.000000   0.000000   0.003404  -0.023654
              25
     1  C   -0.000756
     2  N   -0.022036
     3  C   -0.012742
     4  C    0.011553
     5  N   -0.000271
     6  O   -0.000018
     7  C    0.002402
     8  C    0.000304
     9  Cl  -0.000000
    10  N   -0.000077
    11  N   -0.005171
    12  C   -0.045102
    13  C    0.466720
    14  C   -0.070173
    15  N    0.001493
    16  H   -0.000002
    17  H   -0.000007
    18  H    0.000000
    19  H    0.000000
    20  H   -0.000007
    21  H    0.000000
    22  H    0.000000
    23  H    0.003404
    24  H   -0.023654
    25  H    0.487876
 Mulliken charges:
               1
     1  C   -0.303944
     2  N    0.258739
     3  C   -0.281646
     4  C    0.790787
     5  N   -0.408638
     6  O    0.105076
     7  C   -0.226419
     8  C   -0.632618
     9  Cl   0.073615
    10  N   -0.194039
    11  N   -0.292150
    12  C   -0.084084
    13  C   -0.306992
    14  C    0.255632
    15  N   -0.510746
    16  H    0.152650
    17  H    0.159520
    18  H    0.150612
    19  H    0.153163
    20  H    0.164081
    21  H    0.220657
    22  H    0.225008
    23  H    0.129888
    24  H    0.195586
    25  H    0.206263
 Sum of Mulliken charges =  -0.00000
 Mulliken charges with hydrogens summed into heavy atoms:
               1
     1  C    0.158838
     2  N    0.258739
     3  C    0.035598
     4  C    0.790787
     5  N   -0.408638
     6  O    0.105076
     7  C   -0.226419
     8  C   -0.186953
     9  Cl   0.073615
    10  N   -0.194039
    11  N   -0.292150
    12  C    0.045804
    13  C    0.094857
    14  C    0.255632
    15  N   -0.510746
 Electronic spatial extent (au):  <R**2>=           5739.6187
 Charge=             -0.0000 electrons
 Dipole moment (field-independent basis, Debye):
    X=              2.0065    Y=              1.8885    Z=             -3.3024  Tot=              4.3009
 Quadrupole moment (field-independent basis, Debye-Ang):
   XX=           -133.3151   YY=            -83.6099   ZZ=            -98.0678
   XY=            -15.2306   XZ=              6.4726   YZ=              6.6994
 Traceless Quadrupole moment (field-independent basis, Debye-Ang):
   XX=            -28.3175   YY=             21.3877   ZZ=              6.9298
   XY=            -15.2306   XZ=              6.4726   YZ=              6.6994
 Octapole moment (field-independent basis, Debye-Ang**2):
  XXX=            256.3030  YYY=             15.7526  ZZZ=            -15.0652  XYY=             15.8754
  XXY=             62.0415  XXZ=            -56.4005  XZZ=              2.8760  YZZ=              0.6237
  YYZ=             -6.1506  XYZ=             -0.8586
 Hexadecapole moment (field-independent basis, Debye-Ang**3):
 XXXX=          -8477.9732 YYYY=           -930.9529 ZZZZ=           -450.0998 XXXY=           -512.8181
 XXXZ=            284.3817 YYYX=            -88.9607 YYYZ=              4.9626 ZZZX=             -6.2223
 ZZZY=             10.2885 XXYY=          -1271.8244 XXZZ=          -1125.9010 YYZZ=           -235.2888
 XXYZ=             80.1355 YYXZ=             24.4701 ZZXY=            -17.9299
 N-N= 1.005458690658D+03 E-N=-4.637748452448D+03  KE= 1.112406474989D+03
 Unable to Open any file for archive entry.
 1\1\GINC-N1\SP\RB3LYP TD-FC\6-31+G(d,p)\C8H10Cl1N5O1\HPCMGAC13\13-Aug-
 2025\0\\# td=(50-50,nstates=3) b3lyp/6-31+g(d,p) geom=connectivity\\Ti
 tle Card Required\\0,1\C,0,2.19042,-2.615786,-0.609085\N,0,1.371149,-1
 .472633,-0.230962\C,0,0.338821,-1.692173,0.78198\C,0,-0.756932,-0.6731
 78,0.694104\N,0,-1.082258,0.077893,1.716994\O,0,-2.155528,0.840802,1.2
 32658\C,0,-2.353741,0.451593,-0.039159\C,0,-3.445493,1.093704,-0.81599
 3\Cl,0,-5.063485,0.361958,-0.42719\N,0,-1.529691,-0.474605,-0.430749\N
 ,0,1.92523,-0.238942,-0.136742\C,0,3.07441,0.026024,-0.642214\C,0,3.57
 3609,1.452229,-0.568489\C,0,4.925837,1.540657,-0.000364\N,0,6.000558,1
 .593417,0.436637\H,0,2.56028,-2.492468,-1.632014\H,0,3.05424,-2.750846
 ,0.062647\H,0,1.574048,-3.515385,-0.583944\H,0,-0.097072,-2.678108,0.5
 96796\H,0,0.744787,-1.680614,1.803335\H,0,-3.517309,2.156272,-0.584964
 \H,0,-3.267959,0.940468,-1.878667\H,0,3.710693,-0.702136,-1.147349\H,0
 ,3.602698,1.907558,-1.568448\H,0,2.882572,2.041237,0.042636\\Version=E
 S64L-G16RevC.02\State=1-A\HF=-1119.9809182\RMSD=5.660e-09\PG=C01 [X(C8
 H10Cl1N5O1)]\\@
 The archive entry for this job was punched.


 BLESSED ARE THOSE WHO NOUGHT EXPECT,
 FOR THEY SHALL NOT BE DISAPPOINTED..  WALCOT - ODE TO PITT
 Job cpu time:       0 days  0 hours 46 minutes 36.6 seconds.
 Elapsed time:       0 days  0 hours  5 minutes 56.7 seconds.
 File lengths (MBytes):  RWF=    716 Int=      0 D2E=      0 Chk=     31 Scr=      2
 Normal termination of Gaussian 16 at Wed Aug 13 15:29:55 2025.
