 Entering Gaussian System, Link 0=g16
 Input=M1151enew.gjf
 Output=M1151enew.log
 Initial command:
 /hpc/softwares/Gaussian/g16/l1.exe "/hpc/home/hpcmgac13/pbs.13406.admin1.x8z/Gau-3275004.inp" -scrdir="/hpc/home/hpcmgac13/pbs.13406.admin1.x8z/"
 Default linda workers: n2
 Default is to use  32 SMP processors on each worker.
 Entering Link 1 = /hpc/softwares/Gaussian/g16/l1.exe PID=   3275005.
  
 Copyright (c) 1988-2021, Gaussian, Inc.  All Rights Reserved.
  
 This is part of the Gaussian(R) 16 program.  It is based on
 the Gaussian(R) 09 system (copyright 2009, Gaussian, Inc.),
 the Gaussian(R) 03 system (copyright 2003, Gaussian, Inc.),
 the Gaussian(R) 98 system (copyright 1998, Gaussian, Inc.),
 the Gaussian(R) 94 system (copyright 1995, Gaussian, Inc.),
 the Gaussian 92(TM) system (copyright 1992, Gaussian, Inc.),
 the Gaussian 90(TM) system (copyright 1990, Gaussian, Inc.),
 the Gaussian 88(TM) system (copyright 1988, Gaussian, Inc.),
 the Gaussian 86(TM) system (copyright 1986, Carnegie Mellon
 University), and the Gaussian 82(TM) system (copyright 1983,
 Carnegie Mellon University). Gaussian is a federally registered
 trademark of Gaussian, Inc.
  
 This software contains proprietary and confidential information,
 including trade secrets, belonging to Gaussian, Inc.
  
 This software is provided under written license and may be
 used, copied, transmitted, or stored only in accord with that
 written license.
  
 The following legend is applicable only to US Government
 contracts under FAR:
  
                    RESTRICTED RIGHTS LEGEND
  
 Use, reproduction and disclosure by the US Government is
 subject to restrictions as set forth in subparagraphs (a)
 and (c) of the Commercial Computer Software - Restricted
 Rights clause in FAR 52.227-19.
  
 Gaussian, Inc.
 340 Quinnipiac St., Bldg. 40, Wallingford CT 06492
  
  
 ---------------------------------------------------------------
 Warning -- This program may not be used in any manner that
 competes with the business of Gaussian, Inc. or will provide
 assistance to any competitor of Gaussian, Inc.  The licensee
 of this program is prohibited from giving any competitor of
 Gaussian, Inc. access to this program.  By using this program,
 the user acknowledges that Gaussian, Inc. is engaged in the
 business of creating and licensing software in the field of
 computational chemistry and represents and warrants to the
 licensee that it is not a competitor of Gaussian, Inc. and that
 it will not use this program in any manner prohibited above.
 ---------------------------------------------------------------
  

 Cite this work as:
 Gaussian 16, Revision C.02,
 M. J. Frisch, G. W. Trucks, H. B. Schlegel, G. E. Scuseria, 
 M. A. Robb, J. R. Cheeseman, G. Scalmani, V. Barone, 
 G. A. Petersson, H. Nakatsuji, X. Li, M. Caricato, A. V. Marenich, 
 J. Bloino, B. G. Janesko, R. Gomperts, B. Mennucci, H. P. Hratchian, 
 J. V. Ortiz, A. F. Izmaylov, J. L. Sonnenberg, D. Williams-Young, 
 F. Ding, F. Lipparini, F. Egidi, J. Goings, B. Peng, A. Petrone, 
 T. Henderson, D. Ranasinghe, V. G. Zakrzewski, J. Gao, N. Rega, 
 G. Zheng, W. Liang, M. Hada, M. Ehara, K. Toyota, R. Fukuda, 
 J. Hasegawa, M. Ishida, T. Nakajima, Y. Honda, O. Kitao, H. Nakai, 
 T. Vreven, K. Throssell, J. A. Montgomery, Jr., J. E. Peralta, 
 F. Ogliaro, M. J. Bearpark, J. J. Heyd, E. N. Brothers, K. N. Kudin, 
 V. N. Staroverov, T. A. Keith, R. Kobayashi, J. Normand, 
 K. Raghavachari, A. P. Rendell, J. C. Burant, S. S. Iyengar, 
 J. Tomasi, M. Cossi, J. M. Millam, M. Klene, C. Adamo, R. Cammi, 
 J. W. Ochterski, R. L. Martin, K. Morokuma, O. Farkas, 
 J. B. Foresman, and D. J. Fox, Gaussian, Inc., Wallingford CT, 2019.
 
 ******************************************
 Gaussian 16:  ES64L-G16RevC.02  7-Dec-2021
                25-Aug-2025 
 ******************************************
 SetLPE:    new flags="-opt 'Tsnet.Node.lindarsharg: ssh'  -nodelist 'n2.head.cm.mguif.local' -env GAUSS_MDEF=4294967296 -env GAUSS_EXEDIR="/hpc/softwares/Gaussian/g16/bsd:/hpc/softwares/Gaussian/g16""
 Will use up to    1 processors via Linda.
 ----------------------------------------------------------
 # td=(50-50,nstates=3) b3lyp/6-31+g(d,p) geom=connectivity
 ----------------------------------------------------------
 1/38=1,57=2,172=1/1;
 2/12=2,17=6,18=5,40=1/2;
 3/5=1,6=6,7=111,11=9,25=1,30=1,74=-5/1,2,3,8;
 4//1;
 5/5=2,38=5/2;
 8/6=1,10=2,108=3/1;
 9/41=3,42=1,48=2,70=2/14;
 6/7=2,8=2,9=2,10=2/1;
 99/5=1,9=1/99;
 -------------------
 Title Card Required
 -------------------
 Symbolic Z-matrix:
 Charge =  0 Multiplicity = 1
 C                    -0.45016  -1.75483  -1.8753 
 N                    -0.75274  -0.91298  -0.72703 
 C                    -2.08991  -0.78782  -0.3144 
 C                    -3.13148  -1.70795  -0.46348 
 C                    -4.38766  -1.3801    0.06505 
 C                    -4.60344  -0.16457   0.71908 
 C                    -3.5494    0.75322   0.85515 
 C                    -2.30204   0.44255   0.32985 
 C                    -0.9918    1.21751   0.38548 
 C                    -1.13608   2.70559   0.03288 
 C                    -0.37526   1.07772   1.79556 
 C                    -0.17388   0.44333  -0.72589 
 C                     1.33469   0.45375  -0.57302 
 C                     2.09222   1.46639  -1.17988 
 C                     3.47981   1.52482  -1.02272 
 C                     4.14198   0.56043  -0.26685 
 C                     3.39604  -0.47001   0.33185 
 C                     4.06466  -1.48176   1.10166 
 N                     4.60936  -2.30051   1.72431 
 C                     2.001    -0.51967   0.17905 
 H                     0.63044  -1.78608  -2.03154 
 H                    -0.7876   -2.77717  -1.688 
 H                    -0.92986  -1.39002  -2.80006 
 H                    -2.98358  -2.65464  -0.97247 
 H                    -5.20701  -2.08497  -0.04475 
 H                    -5.58561   0.07366   1.11543 
 H                    -3.71695   1.70188   1.35902 
 H                    -1.74797   3.22146   0.78037 
 H                    -0.15798   3.20014   0.01598 
 H                    -1.61226   2.84179  -0.9435 
 H                    -1.04755   1.52891   2.53242 
 H                    -0.23607   0.02882   2.0721 
 H                     0.59276   1.58507   1.86249 
 H                    -0.41405   0.93319  -1.68828 
 H                     1.59145   2.21458  -1.78869 
 H                     4.04594   2.3188   -1.49991 
 H                     5.21933   0.58979  -0.14407 
 H                     1.43455  -1.32245   0.63799 
 
                          Input orientation:                          
 ---------------------------------------------------------------------
 Center     Atomic      Atomic             Coordinates (Angstroms)
 Number     Number       Type             X           Y           Z
 ---------------------------------------------------------------------
      1          6           0       -0.450164   -1.754833   -1.875299
      2          7           0       -0.752741   -0.912979   -0.727027
      3          6           0       -2.089913   -0.787816   -0.314399
      4          6           0       -3.131483   -1.707950   -0.463482
      5          6           0       -4.387660   -1.380099    0.065050
      6          6           0       -4.603443   -0.164566    0.719077
      7          6           0       -3.549402    0.753224    0.855153
      8          6           0       -2.302044    0.442551    0.329852
      9          6           0       -0.991802    1.217506    0.385480
     10          6           0       -1.136077    2.705594    0.032884
     11          6           0       -0.375256    1.077718    1.795557
     12          6           0       -0.173881    0.443330   -0.725894
     13          6           0        1.334689    0.453752   -0.573023
     14          6           0        2.092222    1.466390   -1.179877
     15          6           0        3.479812    1.524820   -1.022716
     16          6           0        4.141980    0.560425   -0.266849
     17          6           0        3.396044   -0.470009    0.331854
     18          6           0        4.064661   -1.481756    1.101660
     19          7           0        4.609359   -2.300509    1.724313
     20          6           0        2.001000   -0.519669    0.179051
     21          1           0        0.630444   -1.786083   -2.031539
     22          1           0       -0.787602   -2.777174   -1.687995
     23          1           0       -0.929860   -1.390022   -2.800059
     24          1           0       -2.983583   -2.654638   -0.972465
     25          1           0       -5.207011   -2.084966   -0.044749
     26          1           0       -5.585610    0.073663    1.115434
     27          1           0       -3.716949    1.701877    1.359019
     28          1           0       -1.747974    3.221460    0.780365
     29          1           0       -0.157977    3.200143    0.015975
     30          1           0       -1.612258    2.841794   -0.943499
     31          1           0       -1.047546    1.528908    2.532421
     32          1           0       -0.236068    0.028823    2.072097
     33          1           0        0.592757    1.585066    1.862488
     34          1           0       -0.414050    0.933186   -1.688278
     35          1           0        1.591453    2.214576   -1.788685
     36          1           0        4.045939    2.318801   -1.499912
     37          1           0        5.219329    0.589785   -0.144074
     38          1           0        1.434546   -1.322453    0.637991
 ---------------------------------------------------------------------
                    Distance matrix (angstroms):
                    1          2          3          4          5
     1  C    0.000000
     2  N    1.455610   0.000000
     3  C    2.461769   1.404976   0.000000
     4  C    3.030659   2.521874   1.397763   0.000000
     5  C    4.405594   3.749430   2.403003   1.401718   0.000000
     6  C    5.148734   4.180819   2.788251   2.438677   1.397081
     7  C    4.832287   3.619508   2.423379   2.823266   2.424460
     8  C    3.622243   2.314043   1.404942   2.437622   2.782439
     9  C    3.773499   2.415324   2.391024   3.722535   4.287433
    10  C    4.899699   3.717322   3.637901   4.869024   5.221754
    11  C    4.637256   3.235552   3.297299   4.523272   5.013472
    12  C    2.495874   1.474671   2.314352   3.666644   4.659015
    13  C    3.124015   2.499807   3.651887   4.963028   6.042799
    14  C    4.162165   3.736346   4.829156   6.154409   7.186182
    15  C    5.189194   4.893343   6.072218   7.380567   8.456885
    16  C    5.388443   5.132346   6.376245   7.621513   8.753888
    17  C    4.616883   4.304633   5.533025   6.691313   7.841269
    18  C    5.414841   5.184107   6.353389   7.367857   8.516256
    19  N    6.233277   6.056932   7.164135   8.065867   9.194926
    20  C    3.428438   2.925536   4.129281   5.307282   6.447349
    21  H    1.092292   2.092191   3.368301   4.076396   5.453611
    22  H    1.092762   2.097593   2.745965   2.852446   4.240920
    23  H    1.103801   2.134573   2.808359   3.226114   4.490582
    24  H    2.836013   2.840822   2.171801   1.084968   2.161555
    25  H    5.107592   4.656133   3.386976   2.150650   1.086384
    26  H    6.217772   5.265429   3.873818   3.419044   2.156807
    27  H    5.751656   4.469406   3.412645   3.910396   3.409221
    28  H    5.787949   4.511796   4.170099   5.268808   5.352940
    29  H    5.311693   4.221797   4.443573   5.758558   6.234681
    30  H    4.831945   3.857972   3.714565   4.820646   5.152127
    31  H    5.528817   4.083347   3.815511   4.878061   5.070168
    32  H    4.336958   2.998172   3.130336   4.222436   4.821723
    33  H    5.119928   3.841378   4.191196   5.488538   6.068570
    34  H    2.694759   2.108801   2.767293   3.982482   4.920876
    35  H    4.464517   4.050181   4.973965   6.280804   7.218574
    36  H    6.078680   5.836873   6.978910   8.294836   9.341122
    37  H    6.374757   6.185770   7.439880   8.667045   9.809099
    38  H    3.171074   2.610588   3.689810   4.712799   5.850613
                    6          7          8          9         10
     6  C    0.000000
     7  C    1.404228   0.000000
     8  C    2.411747   1.388654   0.000000
     9  C    3.881412   2.641490   1.523281   0.000000
    10  C    4.553164   3.211232   2.563012   1.536081   0.000000
    11  C    4.536479   3.326388   2.502846   1.545311   2.517110
    12  C    4.698776   3.740306   2.375643   1.582244   2.572820
    13  C    6.108457   5.097422   3.747150   2.629564   3.397440
    14  C    7.148285   6.039692   4.757846   3.467490   3.664469
    15  C    8.439602   7.316529   6.035777   4.698169   4.880056
    16  C    8.830633   7.775180   6.472665   5.216609   5.705215
    17  C    8.014676   7.071730   5.770700   4.701465   5.542018
    18  C    8.775955   7.939135   6.695788   5.776396   6.761942
    19  N    9.510440   8.754776   7.565474   6.748474   7.805897
    20  C    6.635992   5.734486   4.411893   3.466591   4.501660
    21  H    6.130969   5.679101   4.375210   4.182728   5.249533
    22  H    5.213479   5.153528   4.090461   4.505382   5.757048
    23  H    5.232712   4.981574   3.877829   4.117123   4.984191
    24  H    3.418438   3.908179   3.428280   4.561218   5.758133
    25  H    2.153058   3.407758   3.868786   5.372095   6.287129
    26  H    1.085589   2.162335   3.396325   4.790019   5.281791
    27  H    2.163101   1.087150   2.155700   2.934079   3.070339
    28  H    4.429744   3.056620   2.869197   2.177972   1.095109
    29  H    5.619412   4.265372   3.507115   2.182349   1.096150
    30  H    4.555167   3.368947   2.802427   2.188484   1.094816
    31  H    4.335951   3.110337   2.757761   2.170123   2.764075
    32  H    4.576246   3.603317   2.734016   2.197448   3.483319
    33  H    5.600812   4.343290   3.469032   2.197153   2.755340
    34  H    4.954940   4.041270   2.806794   2.171430   2.573937
    35  H    7.094077   5.962702   4.773635   3.520561   3.316419
    36  H    9.268378   8.104725   6.867695   5.490573   5.417782
    37  H    9.889435   8.826993   7.537727   6.265190   6.700683
    38  H    6.148544   5.403270   4.143947   3.521693   4.816578
                   11         12         13         14         15
    11  C    0.000000
    12  C    2.607818   0.000000
    13  C    2.987209   1.516332   0.000000
    14  C    3.884935   2.527444   1.402699   0.000000
    15  C    4.796260   3.821936   2.439460   1.397684   0.000000
    16  C    4.992648   4.341784   2.825952   2.419897   1.392788
    17  C    4.331350   3.833717   2.433377   2.781173   2.412720
    18  C    5.171582   5.001115   3.742125   4.217522   3.727536
    19  N    6.021950   6.034199   4.856662   5.381433   4.843056
    20  C    3.288059   2.544877   1.398976   2.408202   2.794828
    21  H    4.884614   2.705906   2.764071   3.666157   4.483157
    22  H    5.212040   3.416714   4.023203   5.153582   6.095947
    23  H    5.245666   2.869642   3.672516   4.462853   5.576779
    24  H    5.328771   4.189586   5.335646   6.541383   7.697134
    25  H    6.060953   5.673503   7.036903   8.196307   9.457688
    26  H    5.349625   5.728346   7.133435   8.133710   9.426527
    27  H    3.427397   4.299318   5.550644   6.344124   7.582703
    28  H    2.740547   3.530523   4.358288   4.655097   5.784413
    29  H    2.778275   2.854933   3.180823   3.082103   4.137523
    30  H    3.484905   2.805158   3.811101   3.958634   5.260216
    31  H    1.094767   3.543781   4.058914   4.862428   5.756387
    32  H    1.093631   2.829211   3.105560   4.250043   5.061980
    33  H    1.094957   2.931044   2.786045   3.393886   4.082048
    34  H    3.487048   1.106265   2.128788   2.612313   3.994392
    35  H    4.243487   2.717212   2.155055   1.086830   2.151365
    36  H    5.652200   4.682241   3.418831   2.155467   1.085643
    37  H    5.941349   5.426479   3.910618   3.408830   2.161532
    38  H    3.221205   2.750493   2.152076   3.393350   3.879178
                   16         17         18         19         20
    16  C    0.000000
    17  C    1.405937   0.000000
    18  C    2.459532   1.436413   0.000000
    19  N    3.516833   2.600347   1.163937   0.000000
    20  C    2.439103   1.404266   2.456729   3.516072   0.000000
    21  H    4.577239   3.868620   4.658691   5.495710   2.892911
    22  H    6.120458   5.187070   5.744975   6.402987   4.044563
    23  H    5.995411   5.419294   6.338538   7.209846   4.268788
    24  H    7.849087   6.868296   7.440120   8.065407   5.543478
    25  H    9.718593   8.761419   9.361732   9.976831   7.379408
    26  H    9.837360   9.032147   9.774827  10.485458   7.667171
    27  H    8.106116   7.507784   8.411611   9.245536   6.246802
    28  H    6.547467   6.347364   7.483996   8.473421   5.330331
    29  H    5.053487   5.118678   6.397622   7.476836   4.304042
    30  H    6.226858   6.138213   7.423151   8.501119   5.061145
    31  H    5.975370   5.346369   6.102937   6.878811   4.362184
    32  H    4.992051   4.058265   4.660458   5.387477   2.981433
    33  H    4.263912   3.797972   4.694505   5.590159   3.040891
    34  H    4.787152   4.535053   5.802978   6.880203   3.380854
    35  H    3.399616   3.867846   5.304123   6.467991   3.393495
    36  H    2.149780   3.399293   4.605731   5.661369   3.880413
    37  H    1.084720   2.161953   2.678879   3.495244   3.419494
    38  H    3.419673   2.160522   2.675420   3.495158   1.084416
                   21         22         23         24         25
    21  H    0.000000
    22  H    1.763842   0.000000
    23  H    1.783826   1.783568   0.000000
    24  H    3.864870   2.312862   3.026075   0.000000
    25  H    6.173536   4.765562   5.135046   2.475644   0.000000
    26  H    7.211201   6.245588   6.256954   4.309698   2.479726
    27  H    6.523923   6.158512   5.884355   4.995284   4.304768
    28  H    6.216041   6.557341   5.895296   6.255211   6.387794
    29  H    5.447602   6.247260   5.440171   6.575677   7.309501
    30  H    5.256500   5.727751   4.671268   5.664992   6.164654
    31  H    5.885112   6.035050   6.080242   5.790900   6.083012
    32  H    4.569962   4.723992   5.121755   4.900935   5.801673
    33  H    5.150681   5.791412   5.736624   6.229146   7.123482
    34  H    2.933125   3.729117   2.626673   4.470724   5.897703
    35  H    4.121625   5.530607   4.513649   6.731004   8.230825
    36  H    5.366405   7.026198   6.340688   8.627136  10.350253
    37  H    5.501376   7.057147   6.984727   8.860038  10.764419
    38  H    2.826291   3.530491   4.173149   4.887550   6.719958
                   26         27         28         29         30
    26  H    0.000000
    27  H    2.490443   0.000000
    28  H    4.974771   2.553593   0.000000
    29  H    6.359472   4.088380   1.764323   0.000000
    30  H    5.262060   3.321253   1.770388   1.778746   0.000000
    31  H    4.971882   2.921045   2.534765   3.149105   3.758269
    32  H    5.434594   3.927356   3.761298   3.780345   4.347473
    33  H    6.404268   4.340587   3.054144   2.565480   3.783519
    34  H    5.945134   4.559172   3.620739   2.847656   2.373433
    35  H    8.032910   6.192740   4.331929   2.699749   3.372166
    36  H   10.229732   8.295572   6.291572   4.554952   5.709493
    37  H   10.890337   9.129792   7.504906   5.979549   7.237486
    38  H    7.173540   6.017005   5.549401   4.834967   5.396766
                   31         32         33         34         35
    31  H    0.000000
    32  H    1.766536   0.000000
    33  H    1.772726   1.775607   0.000000
    34  H    4.309351   3.871688   3.747872   0.000000
    35  H    5.109444   4.798227   3.837283   2.382034   0.000000
    36  H    6.544252   6.028170   4.875302   4.674068   2.473612
    37  H    6.878903   5.915019   5.140238   5.851278   4.301880
    38  H    4.228464   2.583323   3.265221   3.730515   4.292313
                   36         37         38
    36  H    0.000000
    37  H    2.490911   0.000000
    38  H    4.964749   4.311944   0.000000
 Stoichiometry    C18H18N2
 Framework group  C1[X(C18H18N2)]
 Deg. of freedom   108
 Full point group                 C1      NOp   1
 Largest Abelian subgroup         C1      NOp   1
 Largest concise Abelian subgroup C1      NOp   1
                         Standard orientation:                         
 ---------------------------------------------------------------------
 Center     Atomic      Atomic             Coordinates (Angstroms)
 Number     Number       Type             X           Y           Z
 ---------------------------------------------------------------------
      1          6           0       -0.450164   -1.754833   -1.875299
      2          7           0       -0.752741   -0.912979   -0.727027
      3          6           0       -2.089913   -0.787816   -0.314399
      4          6           0       -3.131483   -1.707950   -0.463482
      5          6           0       -4.387660   -1.380099    0.065050
      6          6           0       -4.603443   -0.164566    0.719077
      7          6           0       -3.549402    0.753224    0.855153
      8          6           0       -2.302044    0.442551    0.329852
      9          6           0       -0.991802    1.217506    0.385480
     10          6           0       -1.136077    2.705594    0.032884
     11          6           0       -0.375256    1.077718    1.795557
     12          6           0       -0.173881    0.443330   -0.725894
     13          6           0        1.334689    0.453752   -0.573023
     14          6           0        2.092222    1.466390   -1.179877
     15          6           0        3.479812    1.524820   -1.022716
     16          6           0        4.141980    0.560425   -0.266849
     17          6           0        3.396044   -0.470009    0.331854
     18          6           0        4.064661   -1.481756    1.101660
     19          7           0        4.609359   -2.300509    1.724313
     20          6           0        2.001000   -0.519669    0.179051
     21          1           0        0.630444   -1.786083   -2.031539
     22          1           0       -0.787602   -2.777174   -1.687995
     23          1           0       -0.929860   -1.390022   -2.800059
     24          1           0       -2.983583   -2.654638   -0.972465
     25          1           0       -5.207011   -2.084966   -0.044749
     26          1           0       -5.585610    0.073663    1.115434
     27          1           0       -3.716949    1.701877    1.359019
     28          1           0       -1.747974    3.221460    0.780365
     29          1           0       -0.157977    3.200143    0.015975
     30          1           0       -1.612258    2.841794   -0.943499
     31          1           0       -1.047546    1.528908    2.532421
     32          1           0       -0.236068    0.028823    2.072097
     33          1           0        0.592757    1.585066    1.862488
     34          1           0       -0.414050    0.933186   -1.688278
     35          1           0        1.591453    2.214576   -1.788685
     36          1           0        4.045939    2.318801   -1.499912
     37          1           0        5.219329    0.589785   -0.144074
     38          1           0        1.434546   -1.322453    0.637991
 ---------------------------------------------------------------------
 Rotational constants (GHZ):           0.6851411           0.2099036           0.1912062
 Standard basis: 6-31+G(d,p) (6D, 7F)
 There are   470 symmetry adapted cartesian basis functions of A   symmetry.
 There are   470 symmetry adapted basis functions of A   symmetry.
   470 basis functions,   766 primitive gaussians,   470 cartesian basis functions
    70 alpha electrons       70 beta electrons
       nuclear repulsion energy      1467.3898233637 Hartrees.
 NAtoms=   38 NActive=   38 NUniq=   38 SFac= 1.00D+00 NAtFMM=   60 NAOKFM=F Big=F
 Integral buffers will be    131072 words long.
 Regular integral format.
 Two-electron integral symmetry is turned on.
 One-electron integrals computed using PRISM.
 NBasis=   470 RedAO= T EigKep=  1.38D-06  NBF=   470
 NBsUse=   467 1.00D-06 EigRej=  9.72D-07 NBFU=   467
 ExpMin= 4.38D-02 ExpMax= 4.17D+03 ExpMxC= 6.27D+02 IAcc=3 IRadAn=         5 AccDes= 0.00D+00
 Harris functional with IExCor=  402 and IRadAn=       5 diagonalized for initial guess.
 HarFok:  IExCor=  402 AccDes= 0.00D+00 IRadAn=         5 IDoV= 1 UseB2=F ITyADJ=14
 ICtDFT=  3500011 ScaDFX=  1.000000  1.000000  1.000000  1.000000
 FoFCou: FMM=F IPFlag=           0 FMFlag=      100000 FMFlg1=           0
         NFxFlg=           0 DoJE=T BraDBF=F KetDBF=T FulRan=T
         wScrn=  0.000000 ICntrl=       500 IOpCl=  0 I1Cent=   200000004 NGrid=           0
         NMat0=    1 NMatS0=      1 NMatT0=    0 NMatD0=    1 NMtDS0=    0 NMtDT0=    0
 Petite list used in FoFCou.
 Requested convergence on RMS density matrix=1.00D-08 within 128 cycles.
 Requested convergence on MAX density matrix=1.00D-06.
 Requested convergence on             energy=1.00D-06.
 No special actions if energy rises.
 SCF Done:  E(RB3LYP) =  -806.305911247     A.U. after   16 cycles
            NFock= 16  Conv=0.59D-08     -V/T= 2.0098
 DoSCS=F DFT=T ScalE2(SS,OS)=  1.000000  1.000000
 ExpMin= 4.38D-02 ExpMax= 4.17D+03 ExpMxC= 6.27D+02 IAcc=3 IRadAn=         5 AccDes= 0.00D+00
 HarFok:  IExCor=  205 AccDes= 0.00D+00 IRadAn=         5 IDoV=-2 UseB2=F ITyADJ=14
 ICtDFT= 12500011 ScaDFX=  1.000000  1.000000  1.000000  1.000000
 Range of M.O.s used for correlation:    21   467
 NBasis=   470 NAE=    70 NBE=    70 NFC=    20 NFV=     0
 NROrb=    447 NOA=    50 NOB=    50 NVA=   397 NVB=   397

 **** Warning!!: The largest alpha MO coefficient is  0.16774285D+03

 Orbital symmetries:
       Occupied  (A) (A) (A) (A) (A) (A) (A) (A) (A) (A) (A) (A)
                 (A) (A) (A) (A) (A) (A) (A) (A) (A) (A) (A) (A)
                 (A) (A) (A) (A) (A) (A) (A) (A) (A) (A) (A) (A)
                 (A) (A) (A) (A) (A) (A) (A) (A) (A) (A) (A) (A)
                 (A) (A) (A) (A) (A) (A) (A) (A) (A) (A) (A) (A)
                 (A) (A) (A) (A) (A) (A) (A) (A) (A) (A)
       Virtual   (A) (A) (A) (A) (A) (A) (A) (A) (A) (A) (A) (A)
                 (A) (A) (A) (A) (A) (A) (A) (A) (A) (A) (A) (A)
                 (A) (A) (A) (A) (A) (A) (A) (A) (A) (A) (A) (A)
                 (A) (A) (A) (A) (A) (A) (A) (A) (A) (A) (A) (A)
                 (A) (A) (A) (A) (A) (A) (A) (A) (A) (A) (A) (A)
                 (A) (A) (A) (A) (A) (A) (A) (A) (A) (A) (A) (A)
                 (A) (A) (A) (A) (A) (A) (A) (A) (A) (A) (A) (A)
                 (A) (A) (A) (A) (A) (A) (A) (A) (A) (A) (A) (A)
                 (A) (A) (A) (A) (A) (A) (A) (A) (A) (A) (A) (A)
                 (A) (A) (A) (A) (A) (A) (A) (A) (A) (A) (A) (A)
                 (A) (A) (A) (A) (A) (A) (A) (A) (A) (A) (A) (A)
                 (A) (A) (A) (A) (A) (A) (A) (A) (A) (A) (A) (A)
                 (A) (A) (A) (A) (A) (A) (A) (A) (A) (A) (A) (A)
                 (A) (A) (A) (A) (A) (A) (A) (A) (A) (A) (A) (A)
                 (A) (A) (A) (A) (A) (A) (A) (A) (A) (A) (A) (A)
                 (A) (A) (A) (A) (A) (A) (A) (A) (A) (A) (A) (A)
                 (A) (A) (A) (A) (A) (A) (A) (A) (A) (A) (A) (A)
                 (A) (A) (A) (A) (A) (A) (A) (A) (A) (A) (A) (A)
                 (A) (A) (A) (A) (A) (A) (A) (A) (A) (A) (A) (A)
                 (A) (A) (A) (A) (A) (A) (A) (A) (A) (A) (A) (A)
                 (A) (A) (A) (A) (A) (A) (A) (A) (A) (A) (A) (A)
                 (A) (A) (A) (A) (A) (A) (A) (A) (A) (A) (A) (A)
                 (A) (A) (A) (A) (A) (A) (A) (A) (A) (A) (A) (A)
                 (A) (A) (A) (A) (A) (A) (A) (A) (A) (A) (A) (A)
                 (A) (A) (A) (A) (A) (A) (A) (A) (A) (A) (A) (A)
                 (A) (A) (A) (A) (A) (A) (A) (A) (A) (A) (A) (A)
                 (A) (A) (A) (A) (A) (A) (A) (A) (A) (A) (A) (A)
                 (A) (A) (A) (A) (A) (A) (A) (A) (A) (A) (A) (A)
                 (A) (A) (A) (A) (A) (A) (A) (A) (A) (A) (A) (A)
                 (A) (A) (A) (A) (A) (A) (A) (A) (A) (A) (A) (A)
                 (A) (A) (A) (A) (A) (A) (A) (A) (A) (A) (A) (A)
                 (A) (A) (A) (A) (A) (A) (A) (A) (A) (A) (A) (A)
                 (A) (A) (A) (A) (A) (A) (A) (A) (A) (A) (A) (A)
                 (A)
    24 initial guesses have been made.
 Convergence on wavefunction:    0.001000000000000
 Iteration     1 Dimension    24 NMult     0 NNew     24
 CISAX will form    24 AO SS matrices at one time.
 New state      1 was old state      2
 New state      2 was old state      1
 New state      3 was old state      4
 New state      4 was old state      8
 New state      5 was old state      3
 New state      6 was old state     14
 New state      7 was old state     12
 New state      8 was old state     22
 New state      9 was old state      5
 New state     10 was old state      6
 New state     11 was old state      9
 New state     12 was old state     10
 Vector   6 SDiff=1.44D-01 TDiff=5.68D+00 assumed to be singlet.
 Vector  12 SDiff=1.58D-01 TDiff=4.81D+00 assumed to be singlet.
 Iteration     2 Dimension    36 NMult    24 NNew     12
 New state      6 was old state      9
 Iteration     3 Dimension    48 NMult    36 NNew     12
 Iteration     4 Dimension    60 NMult    48 NNew     12
 Iteration     5 Dimension    70 NMult    60 NNew     10
 Iteration     6 Dimension    78 NMult    70 NNew      8
 Iteration     7 Dimension    84 NMult    78 NNew      6
 Iteration     8 Dimension    86 NMult    84 NNew      2
 Iteration     9 Dimension    88 NMult    86 NNew      2
 ***********************************************************************
 Excited states from <AA,BB:AA,BB> singles matrix:
 ***********************************************************************
 
 Ground to excited state transition densities written to RWF  633
 Ground to excited state transition electric dipole moments (Au):
       state          X           Y           Z        Dip. S.      Osc.
         1         0.0000      0.0000      0.0000      0.0000      0.0000
         2        -0.0875     -0.0051     -0.0093      0.0078      0.0006
         3        -0.0000     -0.0000     -0.0000      0.0000      0.0000
         4        -0.0000     -0.0000      0.0000      0.0000      0.0000
         5        -0.0023      0.0157     -0.1101      0.0124      0.0012
         6         0.5293      0.5022      0.1022      0.5428      0.0595
 Ground to excited state transition velocity dipole moments (Au):
       state          X           Y           Z        Dip. S.      Osc.
         1         0.0000      0.0000     -0.0000      0.0000      0.0000
         2         0.0108      0.0003      0.0035      0.0001      0.0007
         3         0.0000      0.0000     -0.0000      0.0000      0.0000
         4         0.0000      0.0000     -0.0000      0.0000      0.0000
         5        -0.0003     -0.0016      0.0172      0.0003      0.0014
         6        -0.0882     -0.0827     -0.0161      0.0149      0.0603
 Ground to excited state transition magnetic dipole moments (Au):
       state          X           Y           Z
         1         0.0000     -0.0000      0.0000
         2        -0.0319      0.0854      0.0473
         3        -0.0000     -0.0000      0.0000
         4         0.0000     -0.0000     -0.0000
         5        -0.0407      0.0420     -0.2779
         6         0.1504     -0.3906      0.9991
 Ground to excited state transition velocity quadrupole moments (Au):
       state          XX          YY          ZZ          XY          XZ          YZ
         1        -0.0000     -0.0000     -0.0000     -0.0000     -0.0000      0.0000
         2         0.0502      0.0183     -0.0286      0.0287     -0.0073      0.0103
         3         0.0000     -0.0000     -0.0000      0.0000     -0.0000      0.0000
         4        -0.0000     -0.0000     -0.0000     -0.0000      0.0000      0.0000
         5         0.1887     -0.0148     -0.0689     -0.0017     -0.0580      0.0028
         6         0.6858      0.0670     -0.1219      0.5591      0.0799      0.0051
 <0|del|b> * <b|rxdel|0> + <0|del|b> * <b|delr+rdel|0>
 Rotatory Strengths (R) in cgs (10**-40 erg-esu-cm/Gauss)
       state          XX          YY          ZZ    R(velocity)    E-M Angle
         1        -0.0000     -0.0000     -0.0000     -0.0000       90.00
         2         0.8504     -0.4919     -1.2590     -0.3002       97.61
         3         0.0000     -0.0000     -0.0000     -0.0000       90.00
         4        -0.0000      0.0000     -0.0000     -0.0000       90.00
         5       -12.4286    -11.8556      0.0916     -8.0642      170.35
         6        29.8142    -44.7048     27.7369      4.2821       88.70
 1/2[<0|r|b>*<b|rxdel|0> + (<0|rxdel|b>*<b|r|0>)*]
 Rotatory Strengths (R) in cgs (10**-40 erg-esu-cm/Gauss)
       state          XX          YY          ZZ     R(length)
         1        -0.0000      0.0000     -0.0000     -0.0000
         2        -1.9733      0.3086      0.3124     -0.4508
         3        -0.0000     -0.0000      0.0000     -0.0000
         4         0.0000     -0.0000      0.0000      0.0000
         5        -0.0665     -0.4656    -21.6461     -7.3928
         6       -56.2771    138.7157    -72.2116      3.4090
  1/2[<0|del|b>*<b|r|0> + (<0|r|b>*<b|del|0>)*] (Au)
       state          X           Y           Z        Dip. S.   Osc.(frdel)
         1         0.0000      0.0000     -0.0000     -0.0000     -0.0000
         2        -0.0009     -0.0000     -0.0000      0.0010      0.0007
         3        -0.0000     -0.0000      0.0000      0.0000      0.0000
         4        -0.0000     -0.0000     -0.0000      0.0000      0.0000
         5         0.0000     -0.0000     -0.0019      0.0019      0.0013
         6        -0.0467     -0.0415     -0.0016      0.0898      0.0599

 Excitation energies and oscillator strengths:
 
 Excited State   1:      Triplet-A      3.2761 eV  378.45 nm  f=0.0000  <S**2>=2.000
      68 -> 71         0.17140
      70 -> 71         0.67662
 This state for optimization and/or second-order correction.
 Total Energy, E(TD-HF/TD-DFT) =  -806.185516081    
 Copying the excited state density for this state as the 1-particle RhoCI density.
 
 Excited State   2:      Singlet-A      3.2992 eV  375.80 nm  f=0.0006  <S**2>=0.000
      70 -> 71         0.70589
 
 Excited State   3:      Triplet-A      3.4065 eV  363.97 nm  f=0.0000  <S**2>=2.000
      67 -> 71         0.29146
      67 -> 72        -0.27191
      68 -> 71         0.49650
      68 -> 72         0.17244
      70 -> 71        -0.19540
      70 -> 72         0.10729
 
 Excited State   4:      Triplet-A      3.5057 eV  353.66 nm  f=0.0000  <S**2>=2.000
      66 -> 75        -0.11088
      69 -> 73         0.31488
      70 -> 72         0.23250
      70 -> 74        -0.23215
      70 -> 75         0.47692
 
 Excited State   5:      Singlet-A      3.8461 eV  322.36 nm  f=0.0012  <S**2>=0.000
      70 -> 72         0.70476
 
 Excited State   6:      Singlet-A      4.4726 eV  277.21 nm  f=0.0595  <S**2>=0.000
      69 -> 75        -0.16690
      70 -> 73         0.67517
 SavETr:  write IOETrn=   770 NScale= 10 NData=  16 NLR=1 NState=    6 LETran=     118.

 **********************************************************************

            Population analysis using the SCF Density.

 **********************************************************************

 Orbital symmetries:
       Occupied  (A) (A) (A) (A) (A) (A) (A) (A) (A) (A) (A) (A)
                 (A) (A) (A) (A) (A) (A) (A) (A) (A) (A) (A) (A)
                 (A) (A) (A) (A) (A) (A) (A) (A) (A) (A) (A) (A)
                 (A) (A) (A) (A) (A) (A) (A) (A) (A) (A) (A) (A)
                 (A) (A) (A) (A) (A) (A) (A) (A) (A) (A) (A) (A)
                 (A) (A) (A) (A) (A) (A) (A) (A) (A) (A)
       Virtual   (A) (A) (A) (A) (A) (A) (A) (A) (A) (A) (A) (A)
                 (A) (A) (A) (A) (A) (A) (A) (A) (A) (A) (A) (A)
                 (A) (A) (A) (A) (A) (A) (A) (A) (A) (A) (A) (A)
                 (A) (A) (A) (A) (A) (A) (A) (A) (A) (A) (A) (A)
                 (A) (A) (A) (A) (A) (A) (A) (A) (A) (A) (A) (A)
                 (A) (A) (A) (A) (A) (A) (A) (A) (A) (A) (A) (A)
                 (A) (A) (A) (A) (A) (A) (A) (A) (A) (A) (A) (A)
                 (A) (A) (A) (A) (A) (A) (A) (A) (A) (A) (A) (A)
                 (A) (A) (A) (A) (A) (A) (A) (A) (A) (A) (A) (A)
                 (A) (A) (A) (A) (A) (A) (A) (A) (A) (A) (A) (A)
                 (A) (A) (A) (A) (A) (A) (A) (A) (A) (A) (A) (A)
                 (A) (A) (A) (A) (A) (A) (A) (A) (A) (A) (A) (A)
                 (A) (A) (A) (A) (A) (A) (A) (A) (A) (A) (A) (A)
                 (A) (A) (A) (A) (A) (A) (A) (A) (A) (A) (A) (A)
                 (A) (A) (A) (A) (A) (A) (A) (A) (A) (A) (A) (A)
                 (A) (A) (A) (A) (A) (A) (A) (A) (A) (A) (A) (A)
                 (A) (A) (A) (A) (A) (A) (A) (A) (A) (A) (A) (A)
                 (A) (A) (A) (A) (A) (A) (A) (A) (A) (A) (A) (A)
                 (A) (A) (A) (A) (A) (A) (A) (A) (A) (A) (A) (A)
                 (A) (A) (A) (A) (A) (A) (A) (A) (A) (A) (A) (A)
                 (A) (A) (A) (A) (A) (A) (A) (A) (A) (A) (A) (A)
                 (A) (A) (A) (A) (A) (A) (A) (A) (A) (A) (A) (A)
                 (A) (A) (A) (A) (A) (A) (A) (A) (A) (A) (A) (A)
                 (A) (A) (A) (A) (A) (A) (A) (A) (A) (A) (A) (A)
                 (A) (A) (A) (A) (A) (A) (A) (A) (A) (A) (A) (A)
                 (A) (A) (A) (A) (A) (A) (A) (A) (A) (A) (A) (A)
                 (A) (A) (A) (A) (A) (A) (A) (A) (A) (A) (A) (A)
                 (A) (A) (A) (A) (A) (A) (A) (A) (A) (A) (A) (A)
                 (A) (A) (A) (A) (A) (A) (A) (A) (A) (A) (A) (A)
                 (A) (A) (A) (A) (A) (A) (A) (A) (A) (A) (A) (A)
                 (A) (A) (A) (A) (A) (A) (A) (A) (A) (A) (A) (A)
                 (A) (A) (A) (A) (A) (A) (A) (A) (A) (A) (A) (A)
                 (A) (A) (A) (A) (A) (A) (A) (A) (A) (A) (A) (A)
                 (A)
 The electronic state is 1-A.
 Alpha  occ. eigenvalues --  -14.36321 -14.34840 -10.25163 -10.24506 -10.23990
 Alpha  occ. eigenvalues --  -10.22888 -10.22879 -10.22819 -10.22507 -10.22488
 Alpha  occ. eigenvalues --  -10.22437 -10.22382 -10.22356 -10.19802 -10.19711
 Alpha  occ. eigenvalues --  -10.19525 -10.19483 -10.19200 -10.19029 -10.18623
 Alpha  occ. eigenvalues --   -0.97248  -0.91813  -0.88914  -0.85401  -0.83103
 Alpha  occ. eigenvalues --   -0.79768  -0.78564  -0.74976  -0.74335  -0.72041
 Alpha  occ. eigenvalues --   -0.69987  -0.66829  -0.66422  -0.63779  -0.61347
 Alpha  occ. eigenvalues --   -0.58601  -0.57189  -0.55190  -0.51761  -0.51053
 Alpha  occ. eigenvalues --   -0.50624  -0.48904  -0.47659  -0.47089  -0.45954
 Alpha  occ. eigenvalues --   -0.45339  -0.44362  -0.44130  -0.43163  -0.42430
 Alpha  occ. eigenvalues --   -0.41459  -0.41065  -0.40285  -0.39693  -0.38847
 Alpha  occ. eigenvalues --   -0.38596  -0.37470  -0.36883  -0.36683  -0.36312
 Alpha  occ. eigenvalues --   -0.35917  -0.34979  -0.34247  -0.33888  -0.32979
 Alpha  occ. eigenvalues --   -0.29756  -0.27999  -0.27340  -0.25412  -0.20764
 Alpha virt. eigenvalues --   -0.06527  -0.04239  -0.01706  -0.01186  -0.00210
 Alpha virt. eigenvalues --    0.00378   0.00611   0.01097   0.01652   0.02078
 Alpha virt. eigenvalues --    0.02594   0.02761   0.03275   0.03426   0.03696
 Alpha virt. eigenvalues --    0.04667   0.04894   0.05456   0.05773   0.05970
 Alpha virt. eigenvalues --    0.06225   0.06735   0.06890   0.07479   0.07656
 Alpha virt. eigenvalues --    0.08108   0.08886   0.09294   0.09422   0.10028
 Alpha virt. eigenvalues --    0.10634   0.10885   0.11126   0.11461   0.11807
 Alpha virt. eigenvalues --    0.12190   0.12506   0.12933   0.13324   0.13616
 Alpha virt. eigenvalues --    0.13800   0.14237   0.14625   0.15019   0.15368
 Alpha virt. eigenvalues --    0.15656   0.16259   0.16668   0.16993   0.17252
 Alpha virt. eigenvalues --    0.17610   0.17703   0.18176   0.18332   0.18743
 Alpha virt. eigenvalues --    0.18953   0.19107   0.19266   0.19727   0.20111
 Alpha virt. eigenvalues --    0.20363   0.20569   0.20771   0.20978   0.21388
 Alpha virt. eigenvalues --    0.21679   0.22111   0.22463   0.22894   0.23184
 Alpha virt. eigenvalues --    0.23267   0.23669   0.24393   0.24594   0.24928
 Alpha virt. eigenvalues --    0.25356   0.25501   0.25595   0.25899   0.26404
 Alpha virt. eigenvalues --    0.26600   0.26825   0.27230   0.27892   0.28014
 Alpha virt. eigenvalues --    0.28212   0.28648   0.28832   0.29172   0.29507
 Alpha virt. eigenvalues --    0.30151   0.30467   0.30879   0.31166   0.31564
 Alpha virt. eigenvalues --    0.31704   0.31723   0.32462   0.32635   0.33256
 Alpha virt. eigenvalues --    0.33699   0.34273   0.34783   0.35549   0.35662
 Alpha virt. eigenvalues --    0.35987   0.36550   0.37932   0.38506   0.38680
 Alpha virt. eigenvalues --    0.40169   0.40642   0.41221   0.42317   0.43339
 Alpha virt. eigenvalues --    0.44302   0.44997   0.45698   0.47427   0.50605
 Alpha virt. eigenvalues --    0.54945   0.57985   0.58811   0.60992   0.64539
 Alpha virt. eigenvalues --    0.65181   0.66668   0.67280   0.67864   0.68569
 Alpha virt. eigenvalues --    0.69096   0.69619   0.70185   0.70579   0.71133
 Alpha virt. eigenvalues --    0.71850   0.72779   0.73386   0.73712   0.74258
 Alpha virt. eigenvalues --    0.74492   0.75080   0.75478   0.76673   0.77276
 Alpha virt. eigenvalues --    0.77841   0.78673   0.79388   0.80099   0.80383
 Alpha virt. eigenvalues --    0.81267   0.81645   0.81690   0.82549   0.83598
 Alpha virt. eigenvalues --    0.85195   0.85637   0.86457   0.87221   0.88102
 Alpha virt. eigenvalues --    0.88396   0.88960   0.90470   0.91227   0.91851
 Alpha virt. eigenvalues --    0.92604   0.93342   0.93584   0.94545   0.95859
 Alpha virt. eigenvalues --    0.97359   0.97793   0.98554   0.99735   1.00248
 Alpha virt. eigenvalues --    1.00961   1.01467   1.01857   1.02767   1.03671
 Alpha virt. eigenvalues --    1.04598   1.04848   1.05292   1.05588   1.06539
 Alpha virt. eigenvalues --    1.07670   1.08441   1.08683   1.09669   1.11815
 Alpha virt. eigenvalues --    1.13926   1.14401   1.15026   1.15800   1.17273
 Alpha virt. eigenvalues --    1.18156   1.19128   1.19444   1.20473   1.21891
 Alpha virt. eigenvalues --    1.22459   1.24295   1.24977   1.25120   1.26297
 Alpha virt. eigenvalues --    1.27919   1.29080   1.30055   1.30877   1.33014
 Alpha virt. eigenvalues --    1.34480   1.34915   1.36011   1.37318   1.38286
 Alpha virt. eigenvalues --    1.38725   1.39412   1.40175   1.41050   1.41557
 Alpha virt. eigenvalues --    1.43081   1.44260   1.46082   1.47589   1.48581
 Alpha virt. eigenvalues --    1.50000   1.52413   1.52945   1.55624   1.56246
 Alpha virt. eigenvalues --    1.57523   1.60077   1.64218   1.67759   1.71514
 Alpha virt. eigenvalues --    1.73186   1.74238   1.76020   1.76556   1.78161
 Alpha virt. eigenvalues --    1.78971   1.79765   1.80468   1.82725   1.83200
 Alpha virt. eigenvalues --    1.86651   1.86986   1.87922   1.88330   1.89296
 Alpha virt. eigenvalues --    1.90099   1.90635   1.91279   1.92670   1.93495
 Alpha virt. eigenvalues --    1.93766   1.94116   1.94950   1.96373   1.96714
 Alpha virt. eigenvalues --    1.97559   1.98714   1.99424   1.99929   2.00806
 Alpha virt. eigenvalues --    2.02153   2.02320   2.03145   2.03413   2.04967
 Alpha virt. eigenvalues --    2.05234   2.06609   2.07867   2.09196   2.09772
 Alpha virt. eigenvalues --    2.10501   2.11194   2.12998   2.13821   2.15063
 Alpha virt. eigenvalues --    2.15860   2.15908   2.17619   2.18272   2.19587
 Alpha virt. eigenvalues --    2.19789   2.21703   2.24232   2.26107   2.27631
 Alpha virt. eigenvalues --    2.28968   2.30581   2.31500   2.32414   2.32970
 Alpha virt. eigenvalues --    2.35600   2.36820   2.37821   2.38924   2.39260
 Alpha virt. eigenvalues --    2.39624   2.41955   2.43636   2.44956   2.45792
 Alpha virt. eigenvalues --    2.47526   2.48845   2.49747   2.50832   2.51190
 Alpha virt. eigenvalues --    2.53285   2.53887   2.54448   2.55011   2.57414
 Alpha virt. eigenvalues --    2.58761   2.59590   2.59864   2.60739   2.61815
 Alpha virt. eigenvalues --    2.63741   2.64500   2.65102   2.65486   2.67140
 Alpha virt. eigenvalues --    2.67769   2.69264   2.70172   2.71061   2.73101
 Alpha virt. eigenvalues --    2.73212   2.75049   2.75505   2.76891   2.79858
 Alpha virt. eigenvalues --    2.80052   2.80617   2.82576   2.84263   2.84407
 Alpha virt. eigenvalues --    2.86449   2.88071   2.90135   2.92118   2.93209
 Alpha virt. eigenvalues --    2.95858   2.97295   3.00459   3.02128   3.06327
 Alpha virt. eigenvalues --    3.06797   3.08506   3.10422   3.16628   3.18059
 Alpha virt. eigenvalues --    3.23040   3.25644   3.25850   3.27347   3.27802
 Alpha virt. eigenvalues --    3.28677   3.30413   3.33115   3.35952   3.37566
 Alpha virt. eigenvalues --    3.40506   3.45542   3.46767   3.46872   3.48060
 Alpha virt. eigenvalues --    3.49105   3.49239   3.50642   3.51943   3.53527
 Alpha virt. eigenvalues --    3.82187   3.85673   4.25342   4.29591   4.30653
 Alpha virt. eigenvalues --    4.33929   4.36942   4.40297   4.41549   4.42917
 Alpha virt. eigenvalues --    4.47443   4.50034   4.51914   4.55086   4.56872
 Alpha virt. eigenvalues --    4.60882   4.62572   4.66276   4.70749   4.84794
 Alpha virt. eigenvalues --    4.91736   4.93156
          Condensed to atoms (all electrons):
               1          2          3          4          5          6
     1  C    5.336896   0.265323  -0.248194   0.183643   0.003746  -0.009353
     2  N    0.265323   8.017394   0.524454  -0.453153   0.017802   0.007971
     3  C   -0.248194   0.524454  23.609565 -10.329677   1.178595  -0.234255
     4  C    0.183643  -0.453153 -10.329677  15.285707  -0.411390  -0.704502
     5  C    0.003746   0.017802   1.178595  -0.411390   6.023006   0.284660
     6  C   -0.009353   0.007971  -0.234255  -0.704502   0.284660   6.176649
     7  C   -0.082420  -0.776193  -6.361089   4.952993   0.004180   0.220476
     8  C    0.029107   0.550258  -0.587123  -0.325012  -1.066643  -0.174673
     9  C   -0.564165  -0.910892  -1.849704  -1.340921   0.002719   0.391789
    10  C    0.029780   0.094321   0.259569  -0.379809   0.009876  -0.057977
    11  C   -0.062310  -0.162244  -0.672302   0.034493  -0.005872   0.120795
    12  C   -0.422231  -0.461381   0.932821  -0.282950  -0.010602  -0.285621
    13  C    0.504043   0.082589   0.450069  -0.160384  -0.019380  -0.126008
    14  C   -0.144432  -0.285517  -0.312900  -0.135330   0.000055   0.011207
    15  C   -0.040838  -0.165325  -0.195303  -0.003030  -0.005868   0.007094
    16  C    0.020741   0.069539   0.031356   0.001704   0.003161  -0.001572
    17  C    0.217163   0.339962   0.154038  -0.065287   0.008558   0.007798
    18  C   -0.007549  -0.031708  -0.041403  -0.016178   0.000374   0.001310
    19  N    0.001071   0.000594   0.000715   0.000394  -0.000005  -0.000013
    20  C   -0.109000   0.419031   0.460520  -0.052369   0.016759   0.015160
    21  H    0.406095  -0.059892   0.056718  -0.030202  -0.004370  -0.000838
    22  H    0.436068  -0.035664   0.022542  -0.011315   0.007013  -0.001422
    23  H    0.419458  -0.093547  -0.137010   0.097906  -0.001169   0.003991
    24  H   -0.009423  -0.023782   0.030729   0.215748   0.041957   0.010298
    25  H   -0.000278  -0.000367  -0.039295   0.061102   0.249291   0.016533
    26  H    0.000245   0.000549   0.009829   0.014662  -0.016405   0.271687
    27  H    0.000189  -0.001343   0.135045  -0.057289   0.019850   0.019357
    28  H   -0.000451  -0.000636  -0.039207   0.003428  -0.003381   0.001232
    29  H    0.000026  -0.002679   0.011512   0.003706   0.000440  -0.004170
    30  H    0.000753   0.000717  -0.013866   0.000815   0.001579   0.011850
    31  H   -0.000632  -0.005518   0.004355   0.015487   0.001588  -0.000156
    32  H    0.002112   0.026457  -0.077379  -0.033693  -0.004491   0.008793
    33  H   -0.001703  -0.016230   0.006573   0.003253   0.000128  -0.003108
    34  H    0.012753  -0.060175  -0.084187   0.026055  -0.005838   0.008384
    35  H   -0.002482   0.000161  -0.002231   0.000025  -0.000158   0.000431
    36  H    0.000402   0.000003   0.000208   0.000012   0.000000  -0.000000
    37  H   -0.000058  -0.000004   0.000118  -0.000001   0.000000  -0.000001
    38  H    0.019316   0.016330   0.020460  -0.001666   0.000850  -0.000849
               7          8          9         10         11         12
     1  C   -0.082420   0.029107  -0.564165   0.029780  -0.062310  -0.422231
     2  N   -0.776193   0.550258  -0.910892   0.094321  -0.162244  -0.461381
     3  C   -6.361089  -0.587123  -1.849704   0.259569  -0.672302   0.932821
     4  C    4.952993  -0.325012  -1.340921  -0.379809   0.034493  -0.282950
     5  C    0.004180  -1.066643   0.002719   0.009876  -0.005872  -0.010602
     6  C    0.220476  -0.174673   0.391789  -0.057977   0.120795  -0.285621
     7  C   15.067799  -7.213085   2.636222  -1.186195   0.835215  -0.283726
     8  C   -7.213085  19.927536  -5.569063   0.739364  -1.545195  -1.491121
     9  C    2.636222  -5.569063  18.741426  -1.311892   1.073173   1.083968
    10  C   -1.186195   0.739364  -1.311892   6.762287  -0.742011   0.056589
    11  C    0.835215  -1.545195   1.073173  -0.742011   7.105411   0.320912
    12  C   -0.283726  -1.491121   1.083968   0.056589   0.320912  12.452121
    13  C   -1.407032   2.227197  -6.964750   0.789007  -1.015168  -3.272564
    14  C    0.264882  -0.305323   0.899923   0.022470   0.177447  -0.053532
    15  C    0.027493  -0.028646   0.142153   0.069336   0.062301  -0.275417
    16  C    0.000873  -0.105414   0.112356   0.009518  -0.004365   0.123136
    17  C   -0.461399   0.097232  -0.633778   0.144546  -0.497673  -2.182626
    18  C   -0.014317   0.091984  -0.126142   0.004374  -0.040043  -0.702360
    19  N   -0.000115  -0.001685   0.002024   0.000071  -0.000804   0.013209
    20  C   -0.192911   0.168529   0.301828  -0.167761   0.151247   0.888752
    21  H   -0.000475  -0.016835  -0.007689   0.002038   0.000178   0.006377
    22  H   -0.005269  -0.036873  -0.032811  -0.000465  -0.000152  -0.047446
    23  H    0.014102   0.070555   0.020870  -0.004198   0.002560   0.032788
    24  H   -0.027801   0.074089   0.005771   0.000212  -0.000371  -0.020247
    25  H    0.015180   0.004934   0.001099  -0.000125  -0.000096   0.001736
    26  H    0.025324   0.018617  -0.010887   0.000428  -0.001724   0.000155
    27  H    0.182415   0.070348  -0.069075   0.000510   0.003042  -0.007041
    28  H   -0.025613   0.075436  -0.111324   0.455659  -0.023641  -0.013605
    29  H    0.018124  -0.066696  -0.035017   0.407906   0.006510   0.054935
    30  H    0.056978  -0.090232  -0.056574   0.489279  -0.000382  -0.021310
    31  H    0.113896  -0.167394  -0.019921  -0.068419   0.495638   0.023236
    32  H   -0.032881   0.027460  -0.029016   0.004425   0.515982  -0.040808
    33  H    0.008599  -0.032982  -0.084013  -0.018901   0.432590   0.008950
    34  H    0.021228   0.112551   0.094707  -0.020341   0.005493   0.373885
    35  H    0.000752   0.015888   0.028515  -0.002659   0.001036   0.000018
    36  H   -0.000027   0.000636  -0.004064   0.000187  -0.000382  -0.012007
    37  H    0.000008  -0.000084  -0.000240  -0.000046   0.000279   0.007040
    38  H   -0.000436  -0.030932  -0.025205   0.001945   0.002114  -0.015537
              13         14         15         16         17         18
     1  C    0.504043  -0.144432  -0.040838   0.020741   0.217163  -0.007549
     2  N    0.082589  -0.285517  -0.165325   0.069539   0.339962  -0.031708
     3  C    0.450069  -0.312900  -0.195303   0.031356   0.154038  -0.041403
     4  C   -0.160384  -0.135330  -0.003030   0.001704  -0.065287  -0.016178
     5  C   -0.019380   0.000055  -0.005868   0.003161   0.008558   0.000374
     6  C   -0.126008   0.011207   0.007094  -0.001572   0.007798   0.001310
     7  C   -1.407032   0.264882   0.027493   0.000873  -0.461399  -0.014317
     8  C    2.227197  -0.305323  -0.028646  -0.105414   0.097232   0.091984
     9  C   -6.964750   0.899923   0.142153   0.112356  -0.633778  -0.126142
    10  C    0.789007   0.022470   0.069336   0.009518   0.144546   0.004374
    11  C   -1.015168   0.177447   0.062301  -0.004365  -0.497673  -0.040043
    12  C   -3.272564  -0.053532  -0.275417   0.123136  -2.182626  -0.702360
    13  C   19.008847  -2.361546   0.497488  -0.480688   1.924255  -1.176648
    14  C   -2.361546   9.841153  -1.392404  -0.492123  -2.200111   0.637424
    15  C    0.497488  -1.392404   8.109102  -0.045807   0.912654  -0.056650
    16  C   -0.480688  -0.492123  -0.045807   8.159661   0.311898  -0.652756
    17  C    1.924255  -2.200111   0.912654   0.311898  15.480142  -3.495112
    18  C   -1.176648   0.637424  -0.056650  -0.652756  -3.495112  12.372163
    19  N    0.092795  -0.027906   0.001663   0.015835   0.660334  -0.519340
    20  C   -2.917589   1.740821  -1.988527  -1.156640  -5.149769   0.076011
    21  H    0.052732  -0.004758  -0.004545  -0.003066  -0.004558  -0.000603
    22  H    0.029925   0.000617  -0.001598   0.001219   0.008989   0.000148
    23  H   -0.072474  -0.006478   0.006317  -0.001099  -0.003310  -0.000250
    24  H    0.006377   0.000412  -0.000047  -0.000005  -0.000870   0.000074
    25  H    0.000029   0.000022   0.000001  -0.000000  -0.000008   0.000001
    26  H    0.000088  -0.000038  -0.000001  -0.000000   0.000009  -0.000000
    27  H    0.002447  -0.000385  -0.000016  -0.000022   0.000170   0.000012
    28  H    0.027693   0.007288   0.004789  -0.000294   0.000174   0.000050
    29  H   -0.012681  -0.014407  -0.029901  -0.001100  -0.002605   0.000140
    30  H   -0.061398   0.029911   0.008057   0.001469  -0.002659  -0.000029
    31  H   -0.037339  -0.006490  -0.003106   0.000635  -0.004735  -0.000259
    32  H   -0.012923   0.002486  -0.003030   0.002330  -0.003733  -0.004713
    33  H   -0.010756   0.029294   0.008944  -0.005756  -0.005415   0.004813
    34  H   -0.334194   0.012939   0.048505   0.003736  -0.013352  -0.001017
    35  H   -0.041769   0.301565  -0.018846  -0.016128   0.028460   0.003421
    36  H    0.035625   0.063173   0.268725  -0.038790   0.003581  -0.007211
    37  H    0.028603  -0.013759  -0.053096   0.251248   0.074275  -0.057689
    38  H    0.090250   0.004047  -0.004056   0.023136  -0.097054  -0.060674
              19         20         21         22         23         24
     1  C    0.001071  -0.109000   0.406095   0.436068   0.419458  -0.009423
     2  N    0.000594   0.419031  -0.059892  -0.035664  -0.093547  -0.023782
     3  C    0.000715   0.460520   0.056718   0.022542  -0.137010   0.030729
     4  C    0.000394  -0.052369  -0.030202  -0.011315   0.097906   0.215748
     5  C   -0.000005   0.016759  -0.004370   0.007013  -0.001169   0.041957
     6  C   -0.000013   0.015160  -0.000838  -0.001422   0.003991   0.010298
     7  C   -0.000115  -0.192911  -0.000475  -0.005269   0.014102  -0.027801
     8  C   -0.001685   0.168529  -0.016835  -0.036873   0.070555   0.074089
     9  C    0.002024   0.301828  -0.007689  -0.032811   0.020870   0.005771
    10  C    0.000071  -0.167761   0.002038  -0.000465  -0.004198   0.000212
    11  C   -0.000804   0.151247   0.000178  -0.000152   0.002560  -0.000371
    12  C    0.013209   0.888752   0.006377  -0.047446   0.032788  -0.020247
    13  C    0.092795  -2.917589   0.052732   0.029925  -0.072474   0.006377
    14  C   -0.027906   1.740821  -0.004758   0.000617  -0.006478   0.000412
    15  C    0.001663  -1.988527  -0.004545  -0.001598   0.006317  -0.000047
    16  C    0.015835  -1.156640  -0.003066   0.001219  -0.001099  -0.000005
    17  C    0.660334  -5.149769  -0.004558   0.008989  -0.003310  -0.000870
    18  C   -0.519340   0.076011  -0.000603   0.000148  -0.000250   0.000074
    19  N    7.339564  -0.053408   0.000040   0.000016  -0.000003  -0.000000
    20  C   -0.053408  13.475747  -0.022302   0.020514  -0.012129  -0.003507
    21  H    0.000040  -0.022302   0.544699  -0.022219  -0.036176   0.000006
    22  H    0.000016   0.020514  -0.022219   0.559645  -0.036984   0.000777
    23  H   -0.000003  -0.012129  -0.036176  -0.036984   0.585971  -0.000117
    24  H   -0.000000  -0.003507   0.000006   0.000777  -0.000117   0.592306
    25  H   -0.000000  -0.000045  -0.000000   0.000003  -0.000000  -0.005602
    26  H    0.000000   0.000122  -0.000000   0.000000   0.000000  -0.000163
    27  H   -0.000000  -0.000153  -0.000000   0.000000   0.000000   0.000019
    28  H   -0.000000  -0.007815  -0.000000  -0.000000   0.000000   0.000000
    29  H   -0.000000   0.016541   0.000000   0.000000   0.000000  -0.000000
    30  H    0.000000  -0.004063   0.000000   0.000000  -0.000005   0.000000
    31  H    0.000000   0.005002   0.000000  -0.000000   0.000000   0.000000
    32  H    0.000045   0.007727  -0.000003   0.000007   0.000002   0.000004
    33  H   -0.000013   0.022638  -0.000001   0.000000  -0.000000  -0.000000
    34  H   -0.000003   0.009620  -0.001781  -0.000129   0.008595  -0.000002
    35  H   -0.000018  -0.002862  -0.000010  -0.000000   0.000011   0.000000
    36  H    0.000052   0.002842  -0.000001   0.000000   0.000000   0.000000
    37  H   -0.000027   0.069063   0.000000  -0.000000  -0.000000   0.000000
    38  H    0.002649   0.348779  -0.000136  -0.000079   0.000033   0.000002
              25         26         27         28         29         30
     1  C   -0.000278   0.000245   0.000189  -0.000451   0.000026   0.000753
     2  N   -0.000367   0.000549  -0.001343  -0.000636  -0.002679   0.000717
     3  C   -0.039295   0.009829   0.135045  -0.039207   0.011512  -0.013866
     4  C    0.061102   0.014662  -0.057289   0.003428   0.003706   0.000815
     5  C    0.249291  -0.016405   0.019850  -0.003381   0.000440   0.001579
     6  C    0.016533   0.271687   0.019357   0.001232  -0.004170   0.011850
     7  C    0.015180   0.025324   0.182415  -0.025613   0.018124   0.056978
     8  C    0.004934   0.018617   0.070348   0.075436  -0.066696  -0.090232
     9  C    0.001099  -0.010887  -0.069075  -0.111324  -0.035017  -0.056574
    10  C   -0.000125   0.000428   0.000510   0.455659   0.407906   0.489279
    11  C   -0.000096  -0.001724   0.003042  -0.023641   0.006510  -0.000382
    12  C    0.001736   0.000155  -0.007041  -0.013605   0.054935  -0.021310
    13  C    0.000029   0.000088   0.002447   0.027693  -0.012681  -0.061398
    14  C    0.000022  -0.000038  -0.000385   0.007288  -0.014407   0.029911
    15  C    0.000001  -0.000001  -0.000016   0.004789  -0.029901   0.008057
    16  C   -0.000000  -0.000000  -0.000022  -0.000294  -0.001100   0.001469
    17  C   -0.000008   0.000009   0.000170   0.000174  -0.002605  -0.002659
    18  C    0.000001  -0.000000   0.000012   0.000050   0.000140  -0.000029
    19  N   -0.000000   0.000000  -0.000000  -0.000000  -0.000000   0.000000
    20  C   -0.000045   0.000122  -0.000153  -0.007815   0.016541  -0.004063
    21  H   -0.000000  -0.000000  -0.000000  -0.000000   0.000000   0.000000
    22  H    0.000003   0.000000   0.000000  -0.000000   0.000000   0.000000
    23  H   -0.000000   0.000000   0.000000   0.000000   0.000000  -0.000005
    24  H   -0.005602  -0.000163   0.000019   0.000000  -0.000000   0.000000
    25  H    0.578556  -0.005372  -0.000173  -0.000000  -0.000000  -0.000000
    26  H   -0.005372   0.577030  -0.005225   0.000002  -0.000000   0.000000
    27  H   -0.000173  -0.005225   0.588340   0.000501  -0.000050  -0.000012
    28  H   -0.000000   0.000002   0.000501   0.553655  -0.028689  -0.025908
    29  H   -0.000000  -0.000000  -0.000050  -0.028689   0.558124  -0.030809
    30  H   -0.000000   0.000000  -0.000012  -0.025908  -0.030809   0.547924
    31  H   -0.000000   0.000001  -0.000033   0.002672   0.000079   0.000049
    32  H   -0.000000   0.000000   0.000066   0.000057   0.000081  -0.000165
    33  H    0.000000  -0.000000  -0.000026  -0.000363   0.002856   0.000057
    34  H   -0.000000   0.000000  -0.000007   0.000512  -0.000489   0.003224
    35  H    0.000000   0.000000   0.000000   0.000045  -0.000167  -0.000003
    36  H    0.000000   0.000000  -0.000000   0.000000  -0.000005   0.000000
    37  H   -0.000000   0.000000   0.000000  -0.000000   0.000000  -0.000000
    38  H    0.000000  -0.000000   0.000000   0.000000  -0.000001   0.000000
              31         32         33         34         35         36
     1  C   -0.000632   0.002112  -0.001703   0.012753  -0.002482   0.000402
     2  N   -0.005518   0.026457  -0.016230  -0.060175   0.000161   0.000003
     3  C    0.004355  -0.077379   0.006573  -0.084187  -0.002231   0.000208
     4  C    0.015487  -0.033693   0.003253   0.026055   0.000025   0.000012
     5  C    0.001588  -0.004491   0.000128  -0.005838  -0.000158   0.000000
     6  C   -0.000156   0.008793  -0.003108   0.008384   0.000431  -0.000000
     7  C    0.113896  -0.032881   0.008599   0.021228   0.000752  -0.000027
     8  C   -0.167394   0.027460  -0.032982   0.112551   0.015888   0.000636
     9  C   -0.019921  -0.029016  -0.084013   0.094707   0.028515  -0.004064
    10  C   -0.068419   0.004425  -0.018901  -0.020341  -0.002659   0.000187
    11  C    0.495638   0.515982   0.432590   0.005493   0.001036  -0.000382
    12  C    0.023236  -0.040808   0.008950   0.373885   0.000018  -0.012007
    13  C   -0.037339  -0.012923  -0.010756  -0.334194  -0.041769   0.035625
    14  C   -0.006490   0.002486   0.029294   0.012939   0.301565   0.063173
    15  C   -0.003106  -0.003030   0.008944   0.048505  -0.018846   0.268725
    16  C    0.000635   0.002330  -0.005756   0.003736  -0.016128  -0.038790
    17  C   -0.004735  -0.003733  -0.005415  -0.013352   0.028460   0.003581
    18  C   -0.000259  -0.004713   0.004813  -0.001017   0.003421  -0.007211
    19  N    0.000000   0.000045  -0.000013  -0.000003  -0.000018   0.000052
    20  C    0.005002   0.007727   0.022638   0.009620  -0.002862   0.002842
    21  H    0.000000  -0.000003  -0.000001  -0.001781  -0.000010  -0.000001
    22  H   -0.000000   0.000007   0.000000  -0.000129  -0.000000   0.000000
    23  H    0.000000   0.000002  -0.000000   0.008595   0.000011   0.000000
    24  H    0.000000   0.000004  -0.000000  -0.000002   0.000000   0.000000
    25  H   -0.000000  -0.000000   0.000000  -0.000000   0.000000   0.000000
    26  H    0.000001   0.000000  -0.000000   0.000000   0.000000   0.000000
    27  H   -0.000033   0.000066  -0.000026  -0.000007   0.000000  -0.000000
    28  H    0.002672   0.000057  -0.000363   0.000512   0.000045   0.000000
    29  H    0.000079   0.000081   0.002856  -0.000489  -0.000167  -0.000005
    30  H    0.000049  -0.000165   0.000057   0.003224  -0.000003   0.000000
    31  H    0.555723  -0.025916  -0.028582  -0.000107   0.000002   0.000000
    32  H   -0.025916   0.537438  -0.028873  -0.000078  -0.000003   0.000000
    33  H   -0.028582  -0.028873   0.554525   0.000017  -0.000035  -0.000002
    34  H   -0.000107  -0.000078   0.000017   0.660503   0.004566   0.000002
    35  H    0.000002  -0.000003  -0.000035   0.004566   0.581264  -0.005376
    36  H    0.000000   0.000000  -0.000002   0.000002  -0.005376   0.559473
    37  H   -0.000000   0.000000   0.000000  -0.000000  -0.000139  -0.004745
    38  H    0.000048   0.000239  -0.000137   0.000024  -0.000154   0.000017
              37         38
     1  C   -0.000058   0.019316
     2  N   -0.000004   0.016330
     3  C    0.000118   0.020460
     4  C   -0.000001  -0.001666
     5  C    0.000000   0.000850
     6  C   -0.000001  -0.000849
     7  C    0.000008  -0.000436
     8  C   -0.000084  -0.030932
     9  C   -0.000240  -0.025205
    10  C   -0.000046   0.001945
    11  C    0.000279   0.002114
    12  C    0.007040  -0.015537
    13  C    0.028603   0.090250
    14  C   -0.013759   0.004047
    15  C   -0.053096  -0.004056
    16  C    0.251248   0.023136
    17  C    0.074275  -0.097054
    18  C   -0.057689  -0.060674
    19  N   -0.000027   0.002649
    20  C    0.069063   0.348779
    21  H    0.000000  -0.000136
    22  H   -0.000000  -0.000079
    23  H   -0.000000   0.000033
    24  H    0.000000   0.000002
    25  H   -0.000000   0.000000
    26  H    0.000000  -0.000000
    27  H    0.000000   0.000000
    28  H   -0.000000   0.000000
    29  H    0.000000  -0.000001
    30  H   -0.000000   0.000000
    31  H   -0.000000   0.000048
    32  H    0.000000   0.000239
    33  H    0.000000  -0.000137
    34  H   -0.000000   0.000024
    35  H   -0.000139  -0.000154
    36  H   -0.004745   0.000017
    37  H    0.550970  -0.000127
    38  H   -0.000127   0.547244
 Mulliken charges:
               1
     1  C   -0.183413
     2  N    0.112794
     3  C   -0.674667
     4  C   -0.106975
     5  C   -0.320614
     6  C    0.007051
     7  C   -0.395756
     8  C    0.553292
     9  C    0.218600
    10  C   -0.392896
    11  C   -0.571683
    12  C   -0.478497
    13  C    0.635233
    14  C   -0.289697
    15  C    0.141436
    16  C   -0.137923
    17  C    0.449816
    18  C   -0.179649
    19  N   -0.527730
    20  C   -0.376402
    21  H    0.151577
    22  H    0.144943
    23  H    0.141788
    24  H    0.113157
    25  H    0.122874
    26  H    0.121067
    27  H    0.118537
    28  H    0.147731
    29  H    0.148486
    30  H    0.154752
    31  H    0.150193
    32  H    0.161995
    33  H    0.153660
    34  H    0.114402
    35  H    0.126880
    36  H    0.137670
    37  H    0.148412
    38  H    0.159557
 Sum of Mulliken charges =  -0.00000
 Mulliken charges with hydrogens summed into heavy atoms:
               1
     1  C    0.254895
     2  N    0.112794
     3  C   -0.674667
     4  C    0.006182
     5  C   -0.197740
     6  C    0.128118
     7  C   -0.277219
     8  C    0.553292
     9  C    0.218600
    10  C    0.058073
    11  C   -0.105834
    12  C   -0.364095
    13  C    0.635233
    14  C   -0.162817
    15  C    0.279106
    16  C    0.010488
    17  C    0.449816
    18  C   -0.179649
    19  N   -0.527730
    20  C   -0.216846
 Electronic spatial extent (au):  <R**2>=           5901.2348
 Charge=             -0.0000 electrons
 Dipole moment (field-independent basis, Debye):
    X=             -1.7776    Y=              3.4904    Z=             -3.0671  Tot=              4.9749
 Quadrupole moment (field-independent basis, Debye-Ang):
   XX=           -131.6366   YY=           -120.5699   ZZ=           -123.7085
   XY=             16.8305   XZ=            -12.8572   YZ=              7.2520
 Traceless Quadrupole moment (field-independent basis, Debye-Ang):
   XX=             -6.3316   YY=              4.7351   ZZ=              1.5965
   XY=             16.8305   XZ=            -12.8572   YZ=              7.2520
 Octapole moment (field-independent basis, Debye-Ang**2):
  XXX=            -71.3561  YYY=             18.7406  ZZZ=            -14.7895  XYY=            -43.6702
  XXY=             78.5746  XXZ=            -46.4459  XZZ=            -19.3123  YZZ=             16.5522
  YYZ=            -28.2256  XYZ=             11.3944
 Hexadecapole moment (field-independent basis, Debye-Ang**3):
 XXXX=          -6149.1238 YYYY=          -1570.5616 ZZZZ=           -916.1018 XXXY=            462.4873
 XXXZ=           -349.5593 YYYX=            144.0039 YYYZ=             57.4297 ZZZX=            -41.5052
 ZZZY=             30.6256 XXYY=          -1393.7091 XXZZ=          -1296.4058 YYZZ=           -417.4856
 XXYZ=            150.4356 YYXZ=            -92.8481 ZZXY=             55.0772
 N-N= 1.467389823364D+03 E-N=-4.800366269845D+03  KE= 7.984864769531D+02
 Unable to Open any file for archive entry.
 1\1\GINC-N2\SP\RB3LYP TD-FC\6-31+G(d,p)\C18H18N2\HPCMGAC13\25-Aug-2025
 \0\\# td=(50-50,nstates=3) b3lyp/6-31+g(d,p) geom=connectivity\\Title 
 Card Required\\0,1\C,0,-0.450164,-1.754833,-1.875299\N,0,-0.752741,-0.
 912979,-0.727027\C,0,-2.089913,-0.787816,-0.314399\C,0,-3.131483,-1.70
 795,-0.463482\C,0,-4.38766,-1.380099,0.06505\C,0,-4.603443,-0.164566,0
 .719077\C,0,-3.549402,0.753224,0.855153\C,0,-2.302044,0.442551,0.32985
 2\C,0,-0.991802,1.217506,0.38548\C,0,-1.136077,2.705594,0.032884\C,0,-
 0.375256,1.077718,1.795557\C,0,-0.173881,0.44333,-0.725894\C,0,1.33468
 9,0.453752,-0.573023\C,0,2.092222,1.46639,-1.179877\C,0,3.479812,1.524
 82,-1.022716\C,0,4.14198,0.560425,-0.266849\C,0,3.396044,-0.470009,0.3
 31854\C,0,4.064661,-1.481756,1.10166\N,0,4.609359,-2.300509,1.724313\C
 ,0,2.001,-0.519669,0.179051\H,0,0.630444,-1.786083,-2.031539\H,0,-0.78
 7602,-2.777174,-1.687995\H,0,-0.92986,-1.390022,-2.800059\H,0,-2.98358
 3,-2.654638,-0.972465\H,0,-5.207011,-2.084966,-0.044749\H,0,-5.58561,0
 .073663,1.115434\H,0,-3.716949,1.701877,1.359019\H,0,-1.747974,3.22146
 ,0.780365\H,0,-0.157977,3.200143,0.015975\H,0,-1.612258,2.841794,-0.94
 3499\H,0,-1.047546,1.528908,2.532421\H,0,-0.236068,0.028823,2.072097\H
 ,0,0.592757,1.585066,1.862488\H,0,-0.41405,0.933186,-1.688278\H,0,1.59
 1453,2.214576,-1.788685\H,0,4.045939,2.318801,-1.499912\H,0,5.219329,0
 .589785,-0.144074\H,0,1.434546,-1.322453,0.637991\\Version=ES64L-G16Re
 vC.02\State=1-A\HF=-806.3059112\RMSD=5.866e-09\PG=C01 [X(C18H18N2)]\\@
 The archive entry for this job was punched.


 ACCORDING TO HEN3RY, LIFE IS MUCH LIKE A SEWER........
 YOU GET OUT OF IT JUST WHAT YOU PUT INTO IT...........
                         TOM LEHRER - (THE 3 IS SILENT)
 Job cpu time:       0 days  2 hours 14 minutes 11.2 seconds.
 Elapsed time:       0 days  0 hours  4 minutes 20.3 seconds.
 File lengths (MBytes):  RWF=   1209 Int=      0 D2E=      0 Chk=     57 Scr=      2
 Normal termination of Gaussian 16 at Mon Aug 25 11:22:44 2025.
