 Entering Gaussian System, Link 0=g16
 Input=M1181enew.gjf
 Output=M1181enew.log
 Initial command:
 /hpc/softwares/Gaussian/g16/l1.exe "/hpc/home/hpcmgac13/pbs.13401.admin1.x8z/Gau-337092.inp" -scrdir="/hpc/home/hpcmgac13/pbs.13401.admin1.x8z/"
 Default linda workers: n1
 Default is to use  16 SMP processors on each worker.
 Entering Link 1 = /hpc/softwares/Gaussian/g16/l1.exe PID=    337093.
  
 Copyright (c) 1988-2021, Gaussian, Inc.  All Rights Reserved.
  
 This is part of the Gaussian(R) 16 program.  It is based on
 the Gaussian(R) 09 system (copyright 2009, Gaussian, Inc.),
 the Gaussian(R) 03 system (copyright 2003, Gaussian, Inc.),
 the Gaussian(R) 98 system (copyright 1998, Gaussian, Inc.),
 the Gaussian(R) 94 system (copyright 1995, Gaussian, Inc.),
 the Gaussian 92(TM) system (copyright 1992, Gaussian, Inc.),
 the Gaussian 90(TM) system (copyright 1990, Gaussian, Inc.),
 the Gaussian 88(TM) system (copyright 1988, Gaussian, Inc.),
 the Gaussian 86(TM) system (copyright 1986, Carnegie Mellon
 University), and the Gaussian 82(TM) system (copyright 1983,
 Carnegie Mellon University). Gaussian is a federally registered
 trademark of Gaussian, Inc.
  
 This software contains proprietary and confidential information,
 including trade secrets, belonging to Gaussian, Inc.
  
 This software is provided under written license and may be
 used, copied, transmitted, or stored only in accord with that
 written license.
  
 The following legend is applicable only to US Government
 contracts under FAR:
  
                    RESTRICTED RIGHTS LEGEND
  
 Use, reproduction and disclosure by the US Government is
 subject to restrictions as set forth in subparagraphs (a)
 and (c) of the Commercial Computer Software - Restricted
 Rights clause in FAR 52.227-19.
  
 Gaussian, Inc.
 340 Quinnipiac St., Bldg. 40, Wallingford CT 06492
  
  
 ---------------------------------------------------------------
 Warning -- This program may not be used in any manner that
 competes with the business of Gaussian, Inc. or will provide
 assistance to any competitor of Gaussian, Inc.  The licensee
 of this program is prohibited from giving any competitor of
 Gaussian, Inc. access to this program.  By using this program,
 the user acknowledges that Gaussian, Inc. is engaged in the
 business of creating and licensing software in the field of
 computational chemistry and represents and warrants to the
 licensee that it is not a competitor of Gaussian, Inc. and that
 it will not use this program in any manner prohibited above.
 ---------------------------------------------------------------
  

 Cite this work as:
 Gaussian 16, Revision C.02,
 M. J. Frisch, G. W. Trucks, H. B. Schlegel, G. E. Scuseria, 
 M. A. Robb, J. R. Cheeseman, G. Scalmani, V. Barone, 
 G. A. Petersson, H. Nakatsuji, X. Li, M. Caricato, A. V. Marenich, 
 J. Bloino, B. G. Janesko, R. Gomperts, B. Mennucci, H. P. Hratchian, 
 J. V. Ortiz, A. F. Izmaylov, J. L. Sonnenberg, D. Williams-Young, 
 F. Ding, F. Lipparini, F. Egidi, J. Goings, B. Peng, A. Petrone, 
 T. Henderson, D. Ranasinghe, V. G. Zakrzewski, J. Gao, N. Rega, 
 G. Zheng, W. Liang, M. Hada, M. Ehara, K. Toyota, R. Fukuda, 
 J. Hasegawa, M. Ishida, T. Nakajima, Y. Honda, O. Kitao, H. Nakai, 
 T. Vreven, K. Throssell, J. A. Montgomery, Jr., J. E. Peralta, 
 F. Ogliaro, M. J. Bearpark, J. J. Heyd, E. N. Brothers, K. N. Kudin, 
 V. N. Staroverov, T. A. Keith, R. Kobayashi, J. Normand, 
 K. Raghavachari, A. P. Rendell, J. C. Burant, S. S. Iyengar, 
 J. Tomasi, M. Cossi, J. M. Millam, M. Klene, C. Adamo, R. Cammi, 
 J. W. Ochterski, R. L. Martin, K. Morokuma, O. Farkas, 
 J. B. Foresman, and D. J. Fox, Gaussian, Inc., Wallingford CT, 2019.
 
 ******************************************
 Gaussian 16:  ES64L-G16RevC.02  7-Dec-2021
                25-Aug-2025 
 ******************************************
 SetLPE:    new flags="-opt 'Tsnet.Node.lindarsharg: ssh'  -nodelist 'n1' -env GAUSS_MDEF=2147483648 -env GAUSS_EXEDIR="/hpc/softwares/Gaussian/g16/bsd:/hpc/softwares/Gaussian/g16""
 Will use up to    1 processors via Linda.
 ----------------------------------------------------------
 # td=(50-50,nstates=3) b3lyp/6-31+g(d,p) geom=connectivity
 ----------------------------------------------------------
 1/38=1,57=2,172=1/1;
 2/12=2,17=6,18=5,40=1/2;
 3/5=1,6=6,7=111,11=9,25=1,30=1,74=-5/1,2,3,8;
 4//1;
 5/5=2,38=5/2;
 8/6=1,10=2,108=3/1;
 9/41=3,42=1,48=2,70=2/14;
 6/7=2,8=2,9=2,10=2/1;
 99/5=1,9=1/99;
 -------------------
 Title Card Required
 -------------------
 Symbolic Z-matrix:
 Charge =  0 Multiplicity = 1
 C                    -4.18102   0.22737  -0.09487 
 C                    -2.79283  -0.32315   0.25567 
 C                    -2.35828   0.13528   1.65615 
 O                    -2.9169   -1.74158   0.21197 
 C                    -1.80513   0.17549  -0.84204 
 N                    -0.38024   0.12926  -0.49421 
 C                     0.48895   1.1754   -0.25502 
 C                     0.06888   2.51892  -0.25843 
 N                    -0.26335   3.63813  -0.25885 
 C                     1.76326   0.61919  -0.03297 
 C                     3.04644   1.14357   0.25913 
 C                     4.08707   0.25192   0.41418 
 C                     3.90001  -1.15851   0.29018 
 C                     2.66391  -1.70067   0.0079 
 C                     1.60322  -0.78811  -0.15126 
 N                     0.29047  -1.05134  -0.43108 
 O                    -0.28467  -2.17998  -0.62044 
 H                    -4.45678  -0.04203  -1.11959 
 H                    -4.91763  -0.22031   0.57756 
 H                    -4.2225    1.31604   0.01281 
 H                    -1.40314  -0.31731   1.94136 
 H                    -3.10833  -0.18773   2.38291 
 H                    -2.25985   1.22503   1.71855 
 H                    -2.03668  -2.1323    0.04882 
 H                    -1.9431   -0.42539  -1.74566 
 H                    -2.00137   1.22336  -1.07603 
 H                     3.19811   2.21353   0.35503 
 H                     5.08064   0.62792   0.63756 
 H                     4.75439  -1.81445   0.42282 
 H                     2.49372  -2.76629  -0.09122 
 
                          Input orientation:                          
 ---------------------------------------------------------------------
 Center     Atomic      Atomic             Coordinates (Angstroms)
 Number     Number       Type             X           Y           Z
 ---------------------------------------------------------------------
      1          6           0       -4.181021    0.227373   -0.094874
      2          6           0       -2.792829   -0.323154    0.255670
      3          6           0       -2.358284    0.135275    1.656150
      4          8           0       -2.916898   -1.741584    0.211966
      5          6           0       -1.805125    0.175488   -0.842043
      6          7           0       -0.380235    0.129255   -0.494206
      7          6           0        0.488949    1.175401   -0.255018
      8          6           0        0.068878    2.518919   -0.258426
      9          7           0       -0.263354    3.638129   -0.258846
     10          6           0        1.763260    0.619189   -0.032966
     11          6           0        3.046445    1.143565    0.259131
     12          6           0        4.087067    0.251924    0.414183
     13          6           0        3.900013   -1.158506    0.290178
     14          6           0        2.663912   -1.700667    0.007900
     15          6           0        1.603216   -0.788109   -0.151256
     16          7           0        0.290469   -1.051344   -0.431076
     17          8           0       -0.284667   -2.179983   -0.620444
     18          1           0       -4.456775   -0.042031   -1.119593
     19          1           0       -4.917625   -0.220311    0.577563
     20          1           0       -4.222500    1.316035    0.012811
     21          1           0       -1.403141   -0.317309    1.941359
     22          1           0       -3.108330   -0.187729    2.382914
     23          1           0       -2.259846    1.225031    1.718549
     24          1           0       -2.036676   -2.132299    0.048823
     25          1           0       -1.943095   -0.425385   -1.745663
     26          1           0       -2.001374    1.223360   -1.076025
     27          1           0        3.198107    2.213530    0.355034
     28          1           0        5.080637    0.627921    0.637562
     29          1           0        4.754388   -1.814454    0.422821
     30          1           0        2.493715   -2.766291   -0.091219
 ---------------------------------------------------------------------
                    Distance matrix (angstroms):
                    1          2          3          4          5
     1  C    0.000000
     2  C    1.533962   0.000000
     3  C    2.529217   1.536337   0.000000
     4  O    2.359862   1.424516   2.433170   0.000000
     5  C    2.491151   1.558582   2.559017   2.454005   0.000000
     6  N    3.822966   2.566632   2.921771   3.230074   1.467460
     7  C    4.767916   3.643698   3.583457   4.508511   2.570447
     8  C    4.831105   4.065838   3.903649   5.223793   3.056823
     9  N    5.196947   4.728079   4.508428   6.016999   3.834978
    10  C    5.957502   4.661466   4.480448   5.247582   3.685763
    11  C    7.293901   6.020664   5.672690   6.624784   5.068283
    12  C    8.283781   6.905709   6.564955   7.284950   6.025104
    13  C    8.208047   6.744860   6.534985   6.842249   5.967417
    14  C    7.112033   5.633379   5.595522   5.584690   4.920839
    15  C    5.872970   4.439255   4.451161   4.633840   3.608669
    16  N    4.662872   3.241698   3.574978   3.343223   2.462829
    17  O    4.610115   3.241337   3.852686   2.795307   2.812320
    18  H    1.094837   2.176946   3.484229   2.651933   2.674995
    19  H    1.093242   2.151499   2.800003   2.539851   3.443776
    20  H    1.094761   2.188580   2.751374   3.330660   2.806301
    21  H    3.487053   2.184677   1.094749   2.703853   2.855130
    22  H    2.731741   2.154773   1.093200   2.676589   3.497230
    23  H    2.823958   2.195669   1.095971   3.391506   2.804451
    24  H    3.191695   1.971689   2.798004   0.976762   2.484580
    25  H    2.856486   2.176656   3.472615   2.552055   1.093898
    26  H    2.589500   2.188954   2.962447   3.359762   1.091466
    27  H    7.654983   6.506608   6.073346   7.284002   5.533438
    28  H    9.299205   7.939890   7.524478   8.352021   7.057453
    29  H    9.180338   7.694959   7.477476   7.674529   6.970435
    30  H    7.315336   5.834106   5.917286   5.515132   5.262872
                    6          7          8          9         10
     6  N    0.000000
     7  C    1.380983   0.000000
     8  C    2.442906   1.407662   0.000000
     9  N    3.518700   2.575074   1.167480   0.000000
    10  C    2.246630   1.408030   2.555531   3.643101   0.000000
    11  C    3.652188   2.608860   3.320447   4.176831   1.416635
    12  C    4.560373   3.774532   4.662350   5.553874   2.394766
    13  C    4.538073   4.168899   5.338728   6.375167   2.798274
    14  C    3.587138   3.615433   4.960850   6.094488   2.488890
    15  C    2.212069   2.260029   3.647206   4.804919   1.421300
    16  N    1.359280   2.242495   3.581297   4.725203   2.262363
    17  O    2.314660   3.462747   4.726069   5.829377   3.517741
    18  H    4.127787   5.166219   5.270826   5.645285   6.348764
    19  H    4.675339   5.645551   5.750432   6.103227   6.761045
    20  H    4.053210   4.721150   4.465022   4.597908   6.026360
    21  H    2.679129   3.260715   3.879444   4.667495   3.847218
    22  H    3.977537   4.664464   4.939359   5.450686   5.497270
    23  H    3.103216   3.384273   3.317459   3.703932   4.429473
    24  H    2.855399   4.172767   5.114840   6.044598   4.692216
    25  H    2.077571   3.270990   3.863785   4.641584   4.214443
    26  H    2.040507   2.622606   2.575439   3.085386   3.952906
    27  H    4.227285   2.964694   3.203384   3.793157   2.179737
    28  H    5.599169   4.709568   5.431058   6.198640   3.384475
    29  H    5.566264   5.252872   6.418428   7.441308   3.882938
    30  H    4.099533   4.425252   5.817322   6.974677   3.463875
                   11         12         13         14         15
    11  C    0.000000
    12  C    1.379115   0.000000
    13  C    2.455417   1.428173   0.000000
    14  C    2.880817   2.450112   1.378972   0.000000
    15  C    2.445954   2.751528   2.367981   1.408250   0.000000
    16  N    3.590183   4.102088   3.682458   2.499510   1.367807
    17  O    4.787059   5.108491   4.402749   3.052651   2.391977
    18  H    7.720416   8.685397   8.548092   7.397736   6.182055
    19  H    8.086283   9.018546   8.872065   7.745687   6.585965
    20  H    7.275162   8.387034   8.495617   7.518190   6.196233
    21  H    4.976229   5.727013   5.617602   4.710930   3.693084
    22  H    6.645604   7.472813   7.378267   6.422496   5.383413
    23  H    5.503931   6.552222   6.757615   5.977409   4.740480
    24  H    6.050920   6.581659   6.020864   4.720541   3.885318
    25  H    5.601456   6.441004   6.230893   5.091742   3.905128
    26  H    5.222019   6.342990   6.508930   5.611570   4.230162
    27  H    1.084907   2.154448   3.444925   3.965704   3.436545
    28  H    2.132378   1.085566   2.169302   3.414580   3.836643
    29  H    3.419611   2.171476   1.085274   2.134291   3.363456
    30  H    3.964244   3.450192   2.169818   1.083673   2.170207
                   16         17         18         19         20
    16  N    0.000000
    17  O    1.280807   0.000000
    18  H    4.901948   4.714496   0.000000
    19  H    5.369563   5.171057   1.767627   0.000000
    20  H    5.115507   5.303742   1.783695   1.778343   0.000000
    21  H    3.005922   3.359073   4.332423   3.771067   3.786277
    22  H    4.496243   4.578461   3.755940   2.556150   3.019945
    23  H    4.038177   4.578902   3.806178   3.233365   2.601891
    24  H    2.610435   1.876094   3.404599   3.497875   4.082907
    25  H    2.666228   2.663666   2.618685   3.779850   3.364589
    26  H    3.292838   3.838930   2.762627   3.650077   2.475390
    27  H    4.442041   5.690714   8.115374   8.475742   7.482514
    28  H    5.187256   6.184933   9.721042  10.034358   9.349448
    29  H    4.608476   5.158884   9.506106   9.803727   9.515912
    30  H    2.812621   2.888467   7.535812   7.864938   7.860264
                   21         22         23         24         25
    21  H    0.000000
    22  H    1.766191   0.000000
    23  H    1.778314   1.776850   0.000000
    24  H    2.697637   3.221456   3.756255   0.000000
    25  H    3.727917   4.296441   3.850321   2.478405   0.000000
    26  H    3.440371   3.896252   2.806502   3.539347   1.780498
    27  H    5.485714   7.046239   5.711878   6.810503   6.148883
    28  H    6.680773   8.412533   7.443639   7.656473   7.491464
    29  H    6.516331   8.265019   7.753506   6.808777   7.175522
    30  H    5.031339   6.644789   6.465466   4.576680   5.282264
                   26         27         28         29         30
    26  H    0.000000
    27  H    5.482971   0.000000
    28  H    7.310664   2.477478   0.000000
    29  H    7.557458   4.318711   2.473408   0.000000
    30  H    6.090401   5.049151   4.329430   2.506167   0.000000
 Stoichiometry    C12H13N3O2
 Framework group  C1[X(C12H13N3O2)]
 Deg. of freedom    84
 Full point group                 C1      NOp   1
 Largest Abelian subgroup         C1      NOp   1
 Largest concise Abelian subgroup C1      NOp   1
                         Standard orientation:                         
 ---------------------------------------------------------------------
 Center     Atomic      Atomic             Coordinates (Angstroms)
 Number     Number       Type             X           Y           Z
 ---------------------------------------------------------------------
      1          6           0       -4.181021    0.227373   -0.094874
      2          6           0       -2.792829   -0.323154    0.255670
      3          6           0       -2.358284    0.135275    1.656150
      4          8           0       -2.916898   -1.741584    0.211966
      5          6           0       -1.805125    0.175488   -0.842043
      6          7           0       -0.380235    0.129255   -0.494206
      7          6           0        0.488949    1.175401   -0.255018
      8          6           0        0.068878    2.518919   -0.258426
      9          7           0       -0.263354    3.638129   -0.258846
     10          6           0        1.763260    0.619189   -0.032966
     11          6           0        3.046445    1.143565    0.259131
     12          6           0        4.087067    0.251924    0.414183
     13          6           0        3.900013   -1.158506    0.290178
     14          6           0        2.663912   -1.700667    0.007900
     15          6           0        1.603216   -0.788109   -0.151256
     16          7           0        0.290469   -1.051344   -0.431076
     17          8           0       -0.284667   -2.179983   -0.620444
     18          1           0       -4.456775   -0.042031   -1.119593
     19          1           0       -4.917625   -0.220311    0.577563
     20          1           0       -4.222500    1.316035    0.012811
     21          1           0       -1.403141   -0.317309    1.941359
     22          1           0       -3.108330   -0.187729    2.382914
     23          1           0       -2.259846    1.225031    1.718549
     24          1           0       -2.036676   -2.132299    0.048823
     25          1           0       -1.943095   -0.425385   -1.745663
     26          1           0       -2.001374    1.223360   -1.076025
     27          1           0        3.198107    2.213530    0.355034
     28          1           0        5.080637    0.627921    0.637562
     29          1           0        4.754388   -1.814454    0.422821
     30          1           0        2.493715   -2.766291   -0.091219
 ---------------------------------------------------------------------
 Rotational constants (GHZ):           0.8326307           0.3513379           0.2682999
 Standard basis: 6-31+G(d,p) (6D, 7F)
 There are   388 symmetry adapted cartesian basis functions of A   symmetry.
 There are   388 symmetry adapted basis functions of A   symmetry.
   388 basis functions,   635 primitive gaussians,   388 cartesian basis functions
    61 alpha electrons       61 beta electrons
       nuclear repulsion energy      1200.1842856647 Hartrees.
 NAtoms=   30 NActive=   30 NUniq=   30 SFac= 1.00D+00 NAtFMM=   60 NAOKFM=F Big=F
 Integral buffers will be    131072 words long.
 Regular integral format.
 Two-electron integral symmetry is turned on.
 One-electron integrals computed using PRISM.
 NBasis=   388 RedAO= T EigKep=  1.02D-06  NBF=   388
 NBsUse=   387 1.00D-06 EigRej=  7.19D-07 NBFU=   387
 ExpMin= 4.38D-02 ExpMax= 5.48D+03 ExpMxC= 8.25D+02 IAcc=3 IRadAn=         5 AccDes= 0.00D+00
 Harris functional with IExCor=  402 and IRadAn=       5 diagonalized for initial guess.
 HarFok:  IExCor=  402 AccDes= 0.00D+00 IRadAn=         5 IDoV= 1 UseB2=F ITyADJ=14
 ICtDFT=  3500011 ScaDFX=  1.000000  1.000000  1.000000  1.000000
 FoFCou: FMM=F IPFlag=           0 FMFlag=      100000 FMFlg1=           0
         NFxFlg=           0 DoJE=T BraDBF=F KetDBF=T FulRan=T
         wScrn=  0.000000 ICntrl=       500 IOpCl=  0 I1Cent=   200000004 NGrid=           0
         NMat0=    1 NMatS0=      1 NMatT0=    0 NMatD0=    1 NMtDS0=    0 NMtDT0=    0
 Petite list used in FoFCou.
 Requested convergence on RMS density matrix=1.00D-08 within 128 cycles.
 Requested convergence on MAX density matrix=1.00D-06.
 Requested convergence on             energy=1.00D-06.
 No special actions if energy rises.
 SCF Done:  E(RB3LYP) =  -779.764714036     A.U. after   17 cycles
            NFock= 17  Conv=0.47D-08     -V/T= 2.0094
 DoSCS=F DFT=T ScalE2(SS,OS)=  1.000000  1.000000
 ExpMin= 4.38D-02 ExpMax= 5.48D+03 ExpMxC= 8.25D+02 IAcc=3 IRadAn=         5 AccDes= 0.00D+00
 HarFok:  IExCor=  205 AccDes= 0.00D+00 IRadAn=         5 IDoV=-2 UseB2=F ITyADJ=14
 ICtDFT= 12500011 ScaDFX=  1.000000  1.000000  1.000000  1.000000
 Range of M.O.s used for correlation:    18   387
 NBasis=   388 NAE=    61 NBE=    61 NFC=    17 NFV=     0
 NROrb=    370 NOA=    44 NOB=    44 NVA=   326 NVB=   326

 **** Warning!!: The largest alpha MO coefficient is  0.22670786D+03

 Orbital symmetries:
       Occupied  (A) (A) (A) (A) (A) (A) (A) (A) (A) (A) (A) (A)
                 (A) (A) (A) (A) (A) (A) (A) (A) (A) (A) (A) (A)
                 (A) (A) (A) (A) (A) (A) (A) (A) (A) (A) (A) (A)
                 (A) (A) (A) (A) (A) (A) (A) (A) (A) (A) (A) (A)
                 (A) (A) (A) (A) (A) (A) (A) (A) (A) (A) (A) (A)
                 (A)
       Virtual   (A) (A) (A) (A) (A) (A) (A) (A) (A) (A) (A) (A)
                 (A) (A) (A) (A) (A) (A) (A) (A) (A) (A) (A) (A)
                 (A) (A) (A) (A) (A) (A) (A) (A) (A) (A) (A) (A)
                 (A) (A) (A) (A) (A) (A) (A) (A) (A) (A) (A) (A)
                 (A) (A) (A) (A) (A) (A) (A) (A) (A) (A) (A) (A)
                 (A) (A) (A) (A) (A) (A) (A) (A) (A) (A) (A) (A)
                 (A) (A) (A) (A) (A) (A) (A) (A) (A) (A) (A) (A)
                 (A) (A) (A) (A) (A) (A) (A) (A) (A) (A) (A) (A)
                 (A) (A) (A) (A) (A) (A) (A) (A) (A) (A) (A) (A)
                 (A) (A) (A) (A) (A) (A) (A) (A) (A) (A) (A) (A)
                 (A) (A) (A) (A) (A) (A) (A) (A) (A) (A) (A) (A)
                 (A) (A) (A) (A) (A) (A) (A) (A) (A) (A) (A) (A)
                 (A) (A) (A) (A) (A) (A) (A) (A) (A) (A) (A) (A)
                 (A) (A) (A) (A) (A) (A) (A) (A) (A) (A) (A) (A)
                 (A) (A) (A) (A) (A) (A) (A) (A) (A) (A) (A) (A)
                 (A) (A) (A) (A) (A) (A) (A) (A) (A) (A) (A) (A)
                 (A) (A) (A) (A) (A) (A) (A) (A) (A) (A) (A) (A)
                 (A) (A) (A) (A) (A) (A) (A) (A) (A) (A) (A) (A)
                 (A) (A) (A) (A) (A) (A) (A) (A) (A) (A) (A) (A)
                 (A) (A) (A) (A) (A) (A) (A) (A) (A) (A) (A) (A)
                 (A) (A) (A) (A) (A) (A) (A) (A) (A) (A) (A) (A)
                 (A) (A) (A) (A) (A) (A) (A) (A) (A) (A) (A) (A)
                 (A) (A) (A) (A) (A) (A) (A) (A) (A) (A) (A) (A)
                 (A) (A) (A) (A) (A) (A) (A) (A) (A) (A) (A) (A)
                 (A) (A) (A) (A) (A) (A) (A) (A) (A) (A) (A) (A)
                 (A) (A) (A) (A) (A) (A) (A) (A) (A) (A) (A) (A)
                 (A) (A) (A) (A) (A) (A) (A) (A) (A) (A) (A) (A)
                 (A) (A)
    24 initial guesses have been made.
 Convergence on wavefunction:    0.001000000000000
 Iteration     1 Dimension    24 NMult     0 NNew     24
 CISAX will form    24 AO SS matrices at one time.
 New state      1 was old state      2
 New state      2 was old state      6
 New state      3 was old state      4
 New state      4 was old state      1
 New state      5 was old state     12
 New state      6 was old state      3
 New state      7 was old state      8
 New state      8 was old state     16
 New state      9 was old state     14
 New state     10 was old state     15
 New state     11 was old state     10
 New state     12 was old state      5
 Vector   5 SDiff=3.18D+00 TDiff=7.89D+00 assumed to be singlet.
 Vector  11 SDiff=3.22D+00 TDiff=7.64D+00 assumed to be singlet.
 Iteration     2 Dimension    36 NMult    24 NNew     12
 New state      2 was old state      4
 New state      3 was old state      2
 New state      4 was old state      3
 New state      5 was old state      6
 New state      6 was old state     12
 Iteration     3 Dimension    48 NMult    36 NNew     12
 Iteration     4 Dimension    60 NMult    48 NNew     12
 Iteration     5 Dimension    72 NMult    60 NNew     12
 Iteration     6 Dimension    80 NMult    72 NNew      8
 Iteration     7 Dimension    82 NMult    80 NNew      2
 ***********************************************************************
 Excited states from <AA,BB:AA,BB> singles matrix:
 ***********************************************************************
 
 Ground to excited state transition densities written to RWF  633
 Ground to excited state transition electric dipole moments (Au):
       state          X           Y           Z        Dip. S.      Osc.
         1        -0.0000     -0.0000     -0.0000      0.0000      0.0000
         2         0.0790      1.3200      0.0767      1.7547      0.1431
         3         0.0000     -0.0000      0.0000      0.0000      0.0000
         4         0.0000     -0.0000      0.0000      0.0000      0.0000
         5         0.4450      0.0574      0.0016      0.2014      0.0203
         6        -0.0839      0.4005     -0.0261      0.1682      0.0182
 Ground to excited state transition velocity dipole moments (Au):
       state          X           Y           Z        Dip. S.      Osc.
         1        -0.0000      0.0000      0.0000      0.0000      0.0000
         2        -0.0130     -0.1643     -0.0103      0.0273      0.1485
         3        -0.0000      0.0000     -0.0000      0.0000      0.0000
         4        -0.0000     -0.0000      0.0000      0.0000      0.0000
         5        -0.0651     -0.0086     -0.0005      0.0043      0.0190
         6         0.0188     -0.0577      0.0062      0.0037      0.0153
 Ground to excited state transition magnetic dipole moments (Au):
       state          X           Y           Z
         1        -0.0000      0.0000      0.0000
         2        -0.0008      0.0622     -1.0459
         3         0.0000     -0.0000      0.0000
         4         0.0000      0.0000     -0.0000
         5        -0.0336     -0.0276      0.0262
         6        -0.0806     -0.0006     -0.0706
 Ground to excited state transition velocity quadrupole moments (Au):
       state          XX          YY          ZZ          XY          XZ          YZ
         1         0.0000      0.0000      0.0000     -0.0000      0.0000     -0.0000
         2        -0.0107     -0.1516      0.0067     -0.1118     -0.0110      0.1236
         3        -0.0000      0.0000     -0.0000      0.0000     -0.0000      0.0000
         4         0.0000      0.0000      0.0000     -0.0000     -0.0000     -0.0000
         5         0.0096     -0.1064      0.0367      0.0759     -0.0015      0.0039
         6         0.3987     -0.4274      0.0136      0.0557      0.0343      0.0401
 <0|del|b> * <b|rxdel|0> + <0|del|b> * <b|delr+rdel|0>
 Rotatory Strengths (R) in cgs (10**-40 erg-esu-cm/Gauss)
       state          XX          YY          ZZ    R(velocity)    E-M Angle
         1        -0.0000      0.0000     -0.0000      0.0000       90.00
         2        -0.4158     23.1041    -19.6302      1.0194       89.82
         3        -0.0000     -0.0000     -0.0000     -0.0000       90.00
         4        -0.0000      0.0000     -0.0000     -0.0000       90.00
         5         0.4115      4.5683      6.2934      3.7577       43.62
         6         4.1862     -3.3790     -9.1931     -2.7953      107.10
 1/2[<0|r|b>*<b|rxdel|0> + (<0|rxdel|b>*<b|r|0>)*]
 Rotatory Strengths (R) in cgs (10**-40 erg-esu-cm/Gauss)
       state          XX          YY          ZZ     R(length)
         1        -0.0000      0.0000      0.0000      0.0000
         2         0.0442    -58.0429     56.7175     -0.4270
         3        -0.0000     -0.0000     -0.0000     -0.0000
         4        -0.0000      0.0000      0.0000     -0.0000
         5        10.5815      1.1222     -0.0304      3.8911
         6        -4.7812      0.1661     -1.3027     -1.9726
  1/2[<0|del|b>*<b|r|0> + (<0|r|b>*<b|del|0>)*] (Au)
       state          X           Y           Z        Dip. S.   Osc.(frdel)
         1         0.0000     -0.0000     -0.0000      0.0000      0.0000
         2        -0.0010     -0.2169     -0.0008      0.2187      0.1458
         3        -0.0000     -0.0000     -0.0000      0.0000      0.0000
         4        -0.0000      0.0000      0.0000      0.0000      0.0000
         5        -0.0290     -0.0005     -0.0000      0.0295      0.0196
         6        -0.0016     -0.0231     -0.0002      0.0249      0.0166

 Excitation energies and oscillator strengths:
 
 Excited State   1:      Triplet-A      1.6456 eV  753.42 nm  f=0.0000  <S**2>=2.000
      61 -> 62         0.70835
      61 <- 62         0.15150
 This state for optimization and/or second-order correction.
 Total Energy, E(TD-HF/TD-DFT) =  -779.704239009    
 Copying the excited state density for this state as the 1-particle RhoCI density.
 
 Excited State   2:      Singlet-A      3.3291 eV  372.43 nm  f=0.1431  <S**2>=0.000
      61 -> 62         0.69293
 
 Excited State   3:      Triplet-A      3.4134 eV  363.23 nm  f=0.0000  <S**2>=2.000
      57 -> 62         0.13009
      58 -> 62         0.42568
      58 -> 63        -0.12639
      59 -> 62        -0.16356
      61 -> 63        -0.41609
      61 -> 64        -0.23119
 
 Excited State   4:      Triplet-A      3.7048 eV  334.66 nm  f=0.0000  <S**2>=2.000
      58 -> 62         0.15822
      59 -> 62         0.53186
      60 -> 62        -0.40347
      61 -> 64        -0.11406
 
 Excited State   5:      Singlet-A      4.1206 eV  300.89 nm  f=0.0203  <S**2>=0.000
      57 -> 62        -0.12039
      60 -> 62         0.68310
      61 -> 63         0.10083
 
 Excited State   6:      Singlet-A      4.4139 eV  280.90 nm  f=0.0182  <S**2>=0.000
      59 -> 62        -0.44339
      61 -> 63         0.50652
      61 -> 64        -0.15789
 SavETr:  write IOETrn=   770 NScale= 10 NData=  16 NLR=1 NState=    6 LETran=     118.

 **********************************************************************

            Population analysis using the SCF Density.

 **********************************************************************

 Orbital symmetries:
       Occupied  (A) (A) (A) (A) (A) (A) (A) (A) (A) (A) (A) (A)
                 (A) (A) (A) (A) (A) (A) (A) (A) (A) (A) (A) (A)
                 (A) (A) (A) (A) (A) (A) (A) (A) (A) (A) (A) (A)
                 (A) (A) (A) (A) (A) (A) (A) (A) (A) (A) (A) (A)
                 (A) (A) (A) (A) (A) (A) (A) (A) (A) (A) (A) (A)
                 (A)
       Virtual   (A) (A) (A) (A) (A) (A) (A) (A) (A) (A) (A) (A)
                 (A) (A) (A) (A) (A) (A) (A) (A) (A) (A) (A) (A)
                 (A) (A) (A) (A) (A) (A) (A) (A) (A) (A) (A) (A)
                 (A) (A) (A) (A) (A) (A) (A) (A) (A) (A) (A) (A)
                 (A) (A) (A) (A) (A) (A) (A) (A) (A) (A) (A) (A)
                 (A) (A) (A) (A) (A) (A) (A) (A) (A) (A) (A) (A)
                 (A) (A) (A) (A) (A) (A) (A) (A) (A) (A) (A) (A)
                 (A) (A) (A) (A) (A) (A) (A) (A) (A) (A) (A) (A)
                 (A) (A) (A) (A) (A) (A) (A) (A) (A) (A) (A) (A)
                 (A) (A) (A) (A) (A) (A) (A) (A) (A) (A) (A) (A)
                 (A) (A) (A) (A) (A) (A) (A) (A) (A) (A) (A) (A)
                 (A) (A) (A) (A) (A) (A) (A) (A) (A) (A) (A) (A)
                 (A) (A) (A) (A) (A) (A) (A) (A) (A) (A) (A) (A)
                 (A) (A) (A) (A) (A) (A) (A) (A) (A) (A) (A) (A)
                 (A) (A) (A) (A) (A) (A) (A) (A) (A) (A) (A) (A)
                 (A) (A) (A) (A) (A) (A) (A) (A) (A) (A) (A) (A)
                 (A) (A) (A) (A) (A) (A) (A) (A) (A) (A) (A) (A)
                 (A) (A) (A) (A) (A) (A) (A) (A) (A) (A) (A) (A)
                 (A) (A) (A) (A) (A) (A) (A) (A) (A) (A) (A) (A)
                 (A) (A) (A) (A) (A) (A) (A) (A) (A) (A) (A) (A)
                 (A) (A) (A) (A) (A) (A) (A) (A) (A) (A) (A) (A)
                 (A) (A) (A) (A) (A) (A) (A) (A) (A) (A) (A) (A)
                 (A) (A) (A) (A) (A) (A) (A) (A) (A) (A) (A) (A)
                 (A) (A) (A) (A) (A) (A) (A) (A) (A) (A) (A) (A)
                 (A) (A) (A) (A) (A) (A) (A) (A) (A) (A) (A) (A)
                 (A) (A) (A) (A) (A) (A) (A) (A) (A) (A) (A) (A)
                 (A) (A) (A) (A) (A) (A) (A) (A) (A) (A) (A) (A)
                 (A) (A)
 The electronic state is 1-A.
 Alpha  occ. eigenvalues --  -19.17341 -19.14469 -14.53326 -14.48061 -14.36972
 Alpha  occ. eigenvalues --  -10.29370 -10.26892 -10.26868 -10.26675 -10.26337
 Alpha  occ. eigenvalues --  -10.24943 -10.23440 -10.23435 -10.23037 -10.22992
 Alpha  occ. eigenvalues --  -10.18967 -10.18908  -1.18086  -1.03943  -1.02340
 Alpha  occ. eigenvalues --   -0.93412  -0.91774  -0.86054  -0.83317  -0.79919
 Alpha  occ. eigenvalues --   -0.78304  -0.74352  -0.70680  -0.69185  -0.65956
 Alpha  occ. eigenvalues --   -0.65278  -0.59495  -0.58488  -0.56388  -0.55651
 Alpha  occ. eigenvalues --   -0.53897  -0.51330  -0.50027  -0.48214  -0.47697
 Alpha  occ. eigenvalues --   -0.47517  -0.46817  -0.44308  -0.43586  -0.42044
 Alpha  occ. eigenvalues --   -0.40712  -0.40001  -0.39861  -0.39399  -0.39390
 Alpha  occ. eigenvalues --   -0.38750  -0.37591  -0.37197  -0.36451  -0.35726
 Alpha  occ. eigenvalues --   -0.33273  -0.30579  -0.29894  -0.29184  -0.27582
 Alpha  occ. eigenvalues --   -0.22664
 Alpha virt. eigenvalues --   -0.09835  -0.03807  -0.02113  -0.02016  -0.00964
 Alpha virt. eigenvalues --   -0.00037   0.01325   0.01791   0.02115   0.02834
 Alpha virt. eigenvalues --    0.03539   0.04290   0.04440   0.04571   0.05543
 Alpha virt. eigenvalues --    0.05993   0.06444   0.06672   0.07356   0.07696
 Alpha virt. eigenvalues --    0.07923   0.08212   0.08711   0.09286   0.09810
 Alpha virt. eigenvalues --    0.10135   0.10395   0.10631   0.11384   0.11816
 Alpha virt. eigenvalues --    0.12395   0.12971   0.13129   0.13522   0.13815
 Alpha virt. eigenvalues --    0.13925   0.14880   0.15122   0.15382   0.15731
 Alpha virt. eigenvalues --    0.16057   0.16414   0.17041   0.17579   0.18294
 Alpha virt. eigenvalues --    0.18731   0.19099   0.19171   0.19703   0.19774
 Alpha virt. eigenvalues --    0.20149   0.20768   0.20929   0.21230   0.22088
 Alpha virt. eigenvalues --    0.22264   0.22941   0.23305   0.23791   0.24093
 Alpha virt. eigenvalues --    0.24315   0.24506   0.24794   0.25147   0.25572
 Alpha virt. eigenvalues --    0.25882   0.26192   0.26569   0.27298   0.27538
 Alpha virt. eigenvalues --    0.27826   0.28603   0.28834   0.29494   0.30031
 Alpha virt. eigenvalues --    0.30418   0.30985   0.31217   0.31947   0.32126
 Alpha virt. eigenvalues --    0.32625   0.33172   0.34018   0.34160   0.34728
 Alpha virt. eigenvalues --    0.35456   0.36381   0.37109   0.37719   0.38228
 Alpha virt. eigenvalues --    0.38523   0.40043   0.41398   0.42136   0.43082
 Alpha virt. eigenvalues --    0.43650   0.45346   0.45617   0.48345   0.48447
 Alpha virt. eigenvalues --    0.54933   0.56423   0.59188   0.62787   0.64337
 Alpha virt. eigenvalues --    0.64789   0.65836   0.66747   0.67853   0.69011
 Alpha virt. eigenvalues --    0.69483   0.69757   0.70534   0.70641   0.71310
 Alpha virt. eigenvalues --    0.71606   0.73117   0.74663   0.75530   0.76238
 Alpha virt. eigenvalues --    0.76699   0.78445   0.78694   0.81262   0.81350
 Alpha virt. eigenvalues --    0.82880   0.84328   0.85140   0.85607   0.86913
 Alpha virt. eigenvalues --    0.87899   0.88471   0.90168   0.90973   0.92615
 Alpha virt. eigenvalues --    0.93454   0.94310   0.95576   0.96717   0.97006
 Alpha virt. eigenvalues --    0.98055   0.98469   0.99813   1.01060   1.03165
 Alpha virt. eigenvalues --    1.03413   1.05048   1.06305   1.07072   1.07754
 Alpha virt. eigenvalues --    1.09307   1.10330   1.11814   1.13437   1.14209
 Alpha virt. eigenvalues --    1.15227   1.16591   1.17622   1.18438   1.19649
 Alpha virt. eigenvalues --    1.20637   1.22241   1.23064   1.23637   1.24875
 Alpha virt. eigenvalues --    1.25724   1.27052   1.27962   1.31139   1.32092
 Alpha virt. eigenvalues --    1.33631   1.34166   1.35228   1.35972   1.36845
 Alpha virt. eigenvalues --    1.37229   1.37593   1.38249   1.39440   1.40156
 Alpha virt. eigenvalues --    1.42359   1.44326   1.46962   1.48419   1.50502
 Alpha virt. eigenvalues --    1.51275   1.53150   1.54172   1.57139   1.58633
 Alpha virt. eigenvalues --    1.61095   1.62918   1.65968   1.67213   1.69300
 Alpha virt. eigenvalues --    1.70600   1.71506   1.74634   1.75852   1.78529
 Alpha virt. eigenvalues --    1.79564   1.80548   1.81995   1.84682   1.85737
 Alpha virt. eigenvalues --    1.86529   1.87214   1.88289   1.89036   1.89490
 Alpha virt. eigenvalues --    1.91673   1.92013   1.93003   1.93551   1.95023
 Alpha virt. eigenvalues --    1.95644   1.96510   1.97268   2.00038   2.00654
 Alpha virt. eigenvalues --    2.01406   2.02079   2.03594   2.04009   2.06289
 Alpha virt. eigenvalues --    2.06955   2.08010   2.08370   2.09334   2.10708
 Alpha virt. eigenvalues --    2.12188   2.12613   2.14104   2.15049   2.16286
 Alpha virt. eigenvalues --    2.18187   2.19014   2.21905   2.22658   2.24433
 Alpha virt. eigenvalues --    2.25369   2.27853   2.29195   2.29301   2.32526
 Alpha virt. eigenvalues --    2.35054   2.35963   2.36419   2.37289   2.39050
 Alpha virt. eigenvalues --    2.39667   2.43312   2.45607   2.46355   2.47666
 Alpha virt. eigenvalues --    2.49914   2.50556   2.52889   2.53361   2.55213
 Alpha virt. eigenvalues --    2.56523   2.58764   2.59474   2.61779   2.62763
 Alpha virt. eigenvalues --    2.63549   2.65012   2.67643   2.68451   2.70866
 Alpha virt. eigenvalues --    2.72293   2.73095   2.74204   2.74369   2.76370
 Alpha virt. eigenvalues --    2.79550   2.82409   2.83207   2.85633   2.86965
 Alpha virt. eigenvalues --    2.87545   2.89608   2.91418   2.94999   2.98829
 Alpha virt. eigenvalues --    3.01532   3.04595   3.06460   3.08483   3.10719
 Alpha virt. eigenvalues --    3.11327   3.14076   3.22715   3.24611   3.25519
 Alpha virt. eigenvalues --    3.27097   3.28336   3.30264   3.34329   3.40272
 Alpha virt. eigenvalues --    3.43737   3.44614   3.46946   3.48205   3.49587
 Alpha virt. eigenvalues --    3.50097   3.53001   3.63361   3.82973   4.20306
 Alpha virt. eigenvalues --    4.29126   4.31233   4.31884   4.35241   4.37579
 Alpha virt. eigenvalues --    4.42974   4.43934   4.50243   4.51418   4.55229
 Alpha virt. eigenvalues --    4.59926   4.64909   4.76233   4.77868   4.95556
 Alpha virt. eigenvalues --    4.98496
          Condensed to atoms (all electrons):
               1          2          3          4          5          6
     1  C    6.845383  -0.754948  -0.737753  -0.297612   0.071062  -0.196030
     2  C   -0.754948   8.530803  -0.775212   0.260649  -1.263608  -0.396122
     3  C   -0.737753  -0.775212   6.386219  -0.002418   0.465849   0.348523
     4  O   -0.297612   0.260649  -0.002418   8.350509   0.015759   0.063650
     5  C    0.071062  -1.263608   0.465849   0.015759   6.671581   0.252406
     6  N   -0.196030  -0.396122   0.348523   0.063650   0.252406  10.448436
     7  C    0.075362   0.132682  -0.057958  -0.006201   0.092106  -3.681037
     8  C   -0.126278   0.389440  -0.065550  -0.003884  -0.618621   0.092747
     9  N    0.004509  -0.010368  -0.001660   0.000102   0.010478  -0.059866
    10  C    0.176840  -0.408376  -0.029862  -0.017488   0.120274   0.521438
    11  C    0.002808  -0.153604   0.089995   0.002186   0.393767  -0.262425
    12  C    0.005220   0.027082  -0.018567  -0.000459  -0.040635  -0.326315
    13  C   -0.006084  -0.033888   0.021969   0.001975   0.023538   0.225348
    14  C   -0.004384   0.104265  -0.045063   0.001980  -0.065152  -0.564464
    15  C   -0.043485   0.332778  -0.178013   0.005748  -0.587333   3.590336
    16  N    0.130888   0.190287  -0.200511  -0.059588  -0.087325  -2.814881
    17  O    0.008472   0.031480  -0.035144  -0.025585   0.058152  -0.297035
    18  H    0.455200  -0.155698   0.012260   0.000823   0.044661  -0.000032
    19  H    0.433408  -0.073776   0.007961  -0.003896  -0.002823   0.001968
    20  H    0.374260  -0.028062  -0.006350   0.007423   0.004638  -0.001521
    21  H    0.001368  -0.107879   0.448680  -0.001463  -0.005869   0.062471
    22  H    0.007076  -0.106953   0.446153  -0.001911   0.021926  -0.002886
    23  H    0.013094  -0.039723   0.362721   0.007321   0.013112  -0.018048
    24  H    0.053849   0.108550  -0.076621   0.204711  -0.063967   0.004685
    25  H   -0.032303  -0.033333   0.021953  -0.004255   0.410781  -0.047556
    26  H    0.003858  -0.055744  -0.003540   0.008962   0.400795  -0.013517
    27  H    0.000003  -0.000002  -0.000021   0.000000  -0.000282  -0.000093
    28  H    0.000000  -0.000004   0.000003  -0.000000   0.000007   0.000743
    29  H    0.000001   0.000023  -0.000008  -0.000000   0.000066   0.001127
    30  H   -0.000051  -0.000865   0.000189   0.000038   0.000171  -0.007599
               7          8          9         10         11         12
     1  C    0.075362  -0.126278   0.004509   0.176840   0.002808   0.005220
     2  C    0.132682   0.389440  -0.010368  -0.408376  -0.153604   0.027082
     3  C   -0.057958  -0.065550  -0.001660  -0.029862   0.089995  -0.018567
     4  O   -0.006201  -0.003884   0.000102  -0.017488   0.002186  -0.000459
     5  C    0.092106  -0.618621   0.010478   0.120274   0.393767  -0.040635
     6  N   -3.681037   0.092747  -0.059866   0.521438  -0.262425  -0.326315
     7  C   30.974129  -1.305424   0.354816 -18.644706  -1.537005   0.607379
     8  C   -1.305424  14.671156  -0.217734  -5.139858  -4.613971  -0.218361
     9  N    0.354816  -0.217734   7.459972  -0.110054   0.174952   0.011028
    10  C  -18.644706  -5.139858  -0.110054  40.612611  -3.564513  -0.691382
    11  C   -1.537005  -4.613971   0.174952  -3.564513  22.720972   0.910110
    12  C    0.607379  -0.218361   0.011028  -0.691382   0.910110   6.556191
    13  C   -0.243307  -0.121979   0.002723  -1.321340   0.934336   0.143714
    14  C    1.627461   1.026809  -0.012238  -3.808089   0.694375  -0.062990
    15  C   -6.421703   2.555739  -0.084124  -3.018271  -9.088117  -1.207381
    16  N    2.877731   0.001362   0.052233  -1.111534   0.186161   0.208899
    17  O    0.503245  -0.015233   0.000167  -0.062430  -0.062404   0.005888
    18  H   -0.002936   0.001302   0.000030  -0.000861  -0.000083  -0.000008
    19  H   -0.002866   0.000020  -0.000006   0.001591   0.000084   0.000002
    20  H    0.009948  -0.008459   0.000287   0.000522   0.000069  -0.000006
    21  H   -0.041759  -0.029622  -0.000035   0.065144   0.002422   0.000212
    22  H   -0.012737  -0.001873   0.000039   0.008829   0.000962  -0.000044
    23  H    0.058441   0.032490   0.001440  -0.086377  -0.004444   0.000297
    24  H   -0.017204  -0.006156  -0.000007   0.045169   0.003331   0.000475
    25  H    0.021021   0.002454   0.000099  -0.017683  -0.004340  -0.000642
    26  H    0.008072   0.001964   0.003895  -0.036088   0.003218   0.000504
    27  H   -0.071262   0.037754   0.000541   0.170310   0.134571  -0.031995
    28  H   -0.024444  -0.000082  -0.000013   0.017617   0.056340   0.231962
    29  H   -0.004412   0.000415  -0.000002  -0.023672   0.032370  -0.005918
    30  H    0.007110  -0.003096   0.000008   0.063419  -0.038446   0.009539
              13         14         15         16         17         18
     1  C   -0.006084  -0.004384  -0.043485   0.130888   0.008472   0.455200
     2  C   -0.033888   0.104265   0.332778   0.190287   0.031480  -0.155698
     3  C    0.021969  -0.045063  -0.178013  -0.200511  -0.035144   0.012260
     4  O    0.001975   0.001980   0.005748  -0.059588  -0.025585   0.000823
     5  C    0.023538  -0.065152  -0.587333  -0.087325   0.058152   0.044661
     6  N    0.225348  -0.564464   3.590336  -2.814881  -0.297035  -0.000032
     7  C   -0.243307   1.627461  -6.421703   2.877731   0.503245  -0.002936
     8  C   -0.121979   1.026809   2.555739   0.001362  -0.015233   0.001302
     9  N    0.002723  -0.012238  -0.084124   0.052233   0.000167   0.000030
    10  C   -1.321340  -3.808089  -3.018271  -1.111534  -0.062430  -0.000861
    11  C    0.934336   0.694375  -9.088117   0.186161  -0.062404  -0.000083
    12  C    0.143714  -0.062990  -1.207381   0.208899   0.005888  -0.000008
    13  C    6.049343   0.626813  -0.297204   0.014824  -0.002108   0.000008
    14  C    0.626813   8.971599  -3.145185   1.026150  -0.068094   0.000260
    15  C   -0.297204  -3.145185  28.318594  -3.711787  -0.348365   0.000489
    16  N    0.014824   1.026150  -3.711787  10.257367   0.354433   0.001351
    17  O   -0.002108  -0.068094  -0.348365   0.354433   7.926599  -0.000106
    18  H    0.000008   0.000260   0.000489   0.001351  -0.000106   0.542367
    19  H   -0.000003  -0.000017  -0.000574  -0.000001   0.000005  -0.022781
    20  H    0.000005  -0.000148  -0.000360  -0.002271   0.000103  -0.030405
    21  H    0.000149  -0.020611   0.020158  -0.040537  -0.001152  -0.000148
    22  H    0.000073   0.000680  -0.001803   0.000512   0.000322   0.000113
    23  H   -0.000395   0.001426  -0.003416   0.012457   0.000514   0.000029
    24  H   -0.001496  -0.008805  -0.018253  -0.004803   0.041278  -0.000046
    25  H    0.000149   0.000168   0.002539   0.016041  -0.005200   0.001556
    26  H    0.000048  -0.001165   0.000571  -0.007061   0.002048  -0.000932
    27  H   -0.012598  -0.015869   0.096758  -0.001272   0.000021   0.000000
    28  H    0.014094  -0.017382   0.037692  -0.000447  -0.000003  -0.000000
    29  H    0.303119   0.009114   0.005639  -0.001298  -0.000094  -0.000000
    30  H   -0.059420   0.235700   0.127584  -0.032549   0.012138  -0.000000
              19         20         21         22         23         24
     1  C    0.433408   0.374260   0.001368   0.007076   0.013094   0.053849
     2  C   -0.073776  -0.028062  -0.107879  -0.106953  -0.039723   0.108550
     3  C    0.007961  -0.006350   0.448680   0.446153   0.362721  -0.076621
     4  O   -0.003896   0.007423  -0.001463  -0.001911   0.007321   0.204711
     5  C   -0.002823   0.004638  -0.005869   0.021926   0.013112  -0.063967
     6  N    0.001968  -0.001521   0.062471  -0.002886  -0.018048   0.004685
     7  C   -0.002866   0.009948  -0.041759  -0.012737   0.058441  -0.017204
     8  C    0.000020  -0.008459  -0.029622  -0.001873   0.032490  -0.006156
     9  N   -0.000006   0.000287  -0.000035   0.000039   0.001440  -0.000007
    10  C    0.001591   0.000522   0.065144   0.008829  -0.086377   0.045169
    11  C    0.000084   0.000069   0.002422   0.000962  -0.004444   0.003331
    12  C    0.000002  -0.000006   0.000212  -0.000044   0.000297   0.000475
    13  C   -0.000003   0.000005   0.000149   0.000073  -0.000395  -0.001496
    14  C   -0.000017  -0.000148  -0.020611   0.000680   0.001426  -0.008805
    15  C   -0.000574  -0.000360   0.020158  -0.001803  -0.003416  -0.018253
    16  N   -0.000001  -0.002271  -0.040537   0.000512   0.012457  -0.004803
    17  O    0.000005   0.000103  -0.001152   0.000322   0.000514   0.041278
    18  H   -0.022781  -0.030405  -0.000148   0.000113   0.000029  -0.000046
    19  H    0.515231  -0.026823   0.000021   0.002319   0.000219  -0.000071
    20  H   -0.026823   0.553659   0.000093  -0.000050   0.000644  -0.000252
    21  H    0.000021   0.000093   0.549121  -0.022860  -0.031148   0.001210
    22  H    0.002319  -0.000050  -0.022860   0.526628  -0.027479  -0.000173
    23  H    0.000219   0.000644  -0.031148  -0.027479   0.552723  -0.000067
    24  H   -0.000071  -0.000252   0.001210  -0.000173  -0.000067   0.349735
    25  H   -0.000120   0.000084  -0.000047  -0.000107  -0.000010  -0.001943
    26  H    0.000145   0.002092   0.000345   0.000032   0.000125   0.000048
    27  H   -0.000000  -0.000000   0.000000   0.000000   0.000000  -0.000000
    28  H    0.000000   0.000000  -0.000000  -0.000000  -0.000000  -0.000000
    29  H    0.000000  -0.000000   0.000000  -0.000000   0.000000  -0.000000
    30  H   -0.000000  -0.000000   0.000000   0.000000  -0.000000  -0.000006
              25         26         27         28         29         30
     1  C   -0.032303   0.003858   0.000003   0.000000   0.000001  -0.000051
     2  C   -0.033333  -0.055744  -0.000002  -0.000004   0.000023  -0.000865
     3  C    0.021953  -0.003540  -0.000021   0.000003  -0.000008   0.000189
     4  O   -0.004255   0.008962   0.000000  -0.000000  -0.000000   0.000038
     5  C    0.410781   0.400795  -0.000282   0.000007   0.000066   0.000171
     6  N   -0.047556  -0.013517  -0.000093   0.000743   0.001127  -0.007599
     7  C    0.021021   0.008072  -0.071262  -0.024444  -0.004412   0.007110
     8  C    0.002454   0.001964   0.037754  -0.000082   0.000415  -0.003096
     9  N    0.000099   0.003895   0.000541  -0.000013  -0.000002   0.000008
    10  C   -0.017683  -0.036088   0.170310   0.017617  -0.023672   0.063419
    11  C   -0.004340   0.003218   0.134571   0.056340   0.032370  -0.038446
    12  C   -0.000642   0.000504  -0.031995   0.231962  -0.005918   0.009539
    13  C    0.000149   0.000048  -0.012598   0.014094   0.303119  -0.059420
    14  C    0.000168  -0.001165  -0.015869  -0.017382   0.009114   0.235700
    15  C    0.002539   0.000571   0.096758   0.037692   0.005639   0.127584
    16  N    0.016041  -0.007061  -0.001272  -0.000447  -0.001298  -0.032549
    17  O   -0.005200   0.002048   0.000021  -0.000003  -0.000094   0.012138
    18  H    0.001556  -0.000932   0.000000  -0.000000  -0.000000  -0.000000
    19  H   -0.000120   0.000145  -0.000000   0.000000   0.000000  -0.000000
    20  H    0.000084   0.002092  -0.000000   0.000000  -0.000000  -0.000000
    21  H   -0.000047   0.000345   0.000000  -0.000000   0.000000   0.000000
    22  H   -0.000107   0.000032   0.000000  -0.000000  -0.000000   0.000000
    23  H   -0.000010   0.000125   0.000000  -0.000000   0.000000  -0.000000
    24  H   -0.001943   0.000048  -0.000000  -0.000000  -0.000000  -0.000006
    25  H    0.495212  -0.026088   0.000000   0.000000  -0.000000   0.000000
    26  H   -0.026088   0.537086  -0.000000  -0.000000   0.000000  -0.000000
    27  H    0.000000  -0.000000   0.545519  -0.004722  -0.000133   0.000013
    28  H    0.000000  -0.000000  -0.004722   0.555698  -0.005227  -0.000126
    29  H   -0.000000   0.000000  -0.000133  -0.005227   0.554007  -0.004370
    30  H    0.000000  -0.000000   0.000013  -0.000126  -0.004370   0.527618
 Mulliken charges:
               1
     1  C   -0.463736
     2  C    0.290128
     3  C   -0.378224
     4  O   -0.507075
     5  C   -0.335514
     6  N    0.075546
     7  C    0.725460
     8  C   -0.317471
     9  N   -0.581212
    10  C    2.288822
    11  C   -1.013677
    12  C   -0.113798
    13  C   -0.262407
    14  C   -0.487144
    15  C   -0.939249
    16  N   -0.254829
    17  O   -0.021909
    18  H    0.153590
    19  H    0.170781
    20  H    0.150880
    21  H    0.151737
    22  H    0.163210
    23  H    0.154056
    24  H    0.386831
    25  H    0.201570
    26  H    0.170327
    27  H    0.152760
    28  H    0.138294
    29  H    0.139254
    30  H    0.163001
 Sum of Mulliken charges =  -0.00000
 Mulliken charges with hydrogens summed into heavy atoms:
               1
     1  C    0.011515
     2  C    0.290128
     3  C    0.090779
     4  O   -0.120244
     5  C    0.036382
     6  N    0.075546
     7  C    0.725460
     8  C   -0.317471
     9  N   -0.581212
    10  C    2.288822
    11  C   -0.860917
    12  C    0.024495
    13  C   -0.123153
    14  C   -0.324144
    15  C   -0.939249
    16  N   -0.254829
    17  O   -0.021909
 Electronic spatial extent (au):  <R**2>=           4095.0570
 Charge=             -0.0000 electrons
 Dipole moment (field-independent basis, Debye):
    X=              3.2474    Y=              0.1385    Z=              0.2057  Tot=              3.2569
 Quadrupole moment (field-independent basis, Debye-Ang):
   XX=            -88.4011   YY=           -121.6470   ZZ=           -101.4184
   XY=             -7.2838   XZ=              3.1113   YZ=             -0.3098
 Traceless Quadrupole moment (field-independent basis, Debye-Ang):
   XX=             15.4211   YY=            -17.8248   ZZ=              2.4037
   XY=             -7.2838   XZ=              3.1113   YZ=             -0.3098
 Octapole moment (field-independent basis, Debye-Ang**2):
  XXX=             50.3942  YYY=            -77.8541  ZZZ=             -6.0403  XYY=             33.8443
  XXY=             14.5069  XXZ=              8.2050  XZZ=            -19.1936  YZZ=             -4.0391
  YYZ=              8.4500  XYZ=              0.0296
 Hexadecapole moment (field-independent basis, Debye-Ang**3):
 XXXX=          -3534.1505 YYYY=          -1769.1460 ZZZZ=           -352.6591 XXXY=            -84.1213
 XXXZ=             56.1159 YYYX=              8.3881 YYYZ=             18.5024 ZZZX=             -5.3062
 ZZZY=              3.2353 XXYY=           -872.1149 XXZZ=           -713.9351 YYZZ=           -317.0510
 XXYZ=              8.4952 YYXZ=              7.7096 ZZXY=              9.6873
 N-N= 1.200184285665D+03 E-N=-4.211560744025D+03  KE= 7.724854075492D+02
 Unable to Open any file for archive entry.
 1\1\GINC-N1\SP\RB3LYP TD-FC\6-31+G(d,p)\C12H13N3O2\HPCMGAC13\25-Aug-20
 25\0\\# td=(50-50,nstates=3) b3lyp/6-31+g(d,p) geom=connectivity\\Titl
 e Card Required\\0,1\C,0,-4.181021,0.227373,-0.094874\C,0,-2.792829,-0
 .323154,0.25567\C,0,-2.358284,0.135275,1.65615\O,0,-2.916898,-1.741584
 ,0.211966\C,0,-1.805125,0.175488,-0.842043\N,0,-0.380235,0.129255,-0.4
 94206\C,0,0.488949,1.175401,-0.255018\C,0,0.068878,2.518919,-0.258426\
 N,0,-0.263354,3.638129,-0.258846\C,0,1.76326,0.619189,-0.032966\C,0,3.
 046445,1.143565,0.259131\C,0,4.087067,0.251924,0.414183\C,0,3.900013,-
 1.158506,0.290178\C,0,2.663912,-1.700667,0.0079\C,0,1.603216,-0.788109
 ,-0.151256\N,0,0.290469,-1.051344,-0.431076\O,0,-0.284667,-2.179983,-0
 .620444\H,0,-4.456775,-0.042031,-1.119593\H,0,-4.917625,-0.220311,0.57
 7563\H,0,-4.2225,1.316035,0.012811\H,0,-1.403141,-0.317309,1.941359\H,
 0,-3.10833,-0.187729,2.382914\H,0,-2.259846,1.225031,1.718549\H,0,-2.0
 36676,-2.132299,0.048823\H,0,-1.943095,-0.425385,-1.745663\H,0,-2.0013
 74,1.22336,-1.076025\H,0,3.198107,2.21353,0.355034\H,0,5.080637,0.6279
 21,0.637562\H,0,4.754388,-1.814454,0.422821\H,0,2.493715,-2.766291,-0.
 091219\\Version=ES64L-G16RevC.02\State=1-A\HF=-779.764714\RMSD=4.745e-
 09\PG=C01 [X(C12H13N3O2)]\\@
 The archive entry for this job was punched.


 IT IS A PROFOUNDLY ERRONEOUS TRUISM ... THAT WE SHOULD CULTIVATE
 THE HABIT OF THINKING OF WHAT WE ARE DOING.
 THE PRECISE OPPOSITE IS THE CASE.
 CIVILIZATION ADVANCES BY EXTENDING THE NUMBER OF IMPORTANT OPERATIONS
 WHICH WE CAN PERFORM WITHOUT THINKING ABOUT THEM.

                                    -- ALFRED NORTH WHITEHEAD
 Job cpu time:       0 days  1 hours  8 minutes 41.6 seconds.
 Elapsed time:       0 days  0 hours  4 minutes 25.4 seconds.
 File lengths (MBytes):  RWF=    872 Int=      0 D2E=      0 Chk=     40 Scr=      2
 Normal termination of Gaussian 16 at Mon Aug 25 10:36:47 2025.
