 Entering Gaussian System, Link 0=g16
 Input=M1192enew.gjf
 Output=M1192enew.log
 Initial command:
 /hpc/softwares/Gaussian/g16/l1.exe "/hpc/home/hpcmgac13/pbs.13400.admin1.x8z/Gau-335169.inp" -scrdir="/hpc/home/hpcmgac13/pbs.13400.admin1.x8z/"
 Default linda workers: n1
 Default is to use  16 SMP processors on each worker.
 Entering Link 1 = /hpc/softwares/Gaussian/g16/l1.exe PID=    335170.
  
 Copyright (c) 1988-2021, Gaussian, Inc.  All Rights Reserved.
  
 This is part of the Gaussian(R) 16 program.  It is based on
 the Gaussian(R) 09 system (copyright 2009, Gaussian, Inc.),
 the Gaussian(R) 03 system (copyright 2003, Gaussian, Inc.),
 the Gaussian(R) 98 system (copyright 1998, Gaussian, Inc.),
 the Gaussian(R) 94 system (copyright 1995, Gaussian, Inc.),
 the Gaussian 92(TM) system (copyright 1992, Gaussian, Inc.),
 the Gaussian 90(TM) system (copyright 1990, Gaussian, Inc.),
 the Gaussian 88(TM) system (copyright 1988, Gaussian, Inc.),
 the Gaussian 86(TM) system (copyright 1986, Carnegie Mellon
 University), and the Gaussian 82(TM) system (copyright 1983,
 Carnegie Mellon University). Gaussian is a federally registered
 trademark of Gaussian, Inc.
  
 This software contains proprietary and confidential information,
 including trade secrets, belonging to Gaussian, Inc.
  
 This software is provided under written license and may be
 used, copied, transmitted, or stored only in accord with that
 written license.
  
 The following legend is applicable only to US Government
 contracts under FAR:
  
                    RESTRICTED RIGHTS LEGEND
  
 Use, reproduction and disclosure by the US Government is
 subject to restrictions as set forth in subparagraphs (a)
 and (c) of the Commercial Computer Software - Restricted
 Rights clause in FAR 52.227-19.
  
 Gaussian, Inc.
 340 Quinnipiac St., Bldg. 40, Wallingford CT 06492
  
  
 ---------------------------------------------------------------
 Warning -- This program may not be used in any manner that
 competes with the business of Gaussian, Inc. or will provide
 assistance to any competitor of Gaussian, Inc.  The licensee
 of this program is prohibited from giving any competitor of
 Gaussian, Inc. access to this program.  By using this program,
 the user acknowledges that Gaussian, Inc. is engaged in the
 business of creating and licensing software in the field of
 computational chemistry and represents and warrants to the
 licensee that it is not a competitor of Gaussian, Inc. and that
 it will not use this program in any manner prohibited above.
 ---------------------------------------------------------------
  

 Cite this work as:
 Gaussian 16, Revision C.02,
 M. J. Frisch, G. W. Trucks, H. B. Schlegel, G. E. Scuseria, 
 M. A. Robb, J. R. Cheeseman, G. Scalmani, V. Barone, 
 G. A. Petersson, H. Nakatsuji, X. Li, M. Caricato, A. V. Marenich, 
 J. Bloino, B. G. Janesko, R. Gomperts, B. Mennucci, H. P. Hratchian, 
 J. V. Ortiz, A. F. Izmaylov, J. L. Sonnenberg, D. Williams-Young, 
 F. Ding, F. Lipparini, F. Egidi, J. Goings, B. Peng, A. Petrone, 
 T. Henderson, D. Ranasinghe, V. G. Zakrzewski, J. Gao, N. Rega, 
 G. Zheng, W. Liang, M. Hada, M. Ehara, K. Toyota, R. Fukuda, 
 J. Hasegawa, M. Ishida, T. Nakajima, Y. Honda, O. Kitao, H. Nakai, 
 T. Vreven, K. Throssell, J. A. Montgomery, Jr., J. E. Peralta, 
 F. Ogliaro, M. J. Bearpark, J. J. Heyd, E. N. Brothers, K. N. Kudin, 
 V. N. Staroverov, T. A. Keith, R. Kobayashi, J. Normand, 
 K. Raghavachari, A. P. Rendell, J. C. Burant, S. S. Iyengar, 
 J. Tomasi, M. Cossi, J. M. Millam, M. Klene, C. Adamo, R. Cammi, 
 J. W. Ochterski, R. L. Martin, K. Morokuma, O. Farkas, 
 J. B. Foresman, and D. J. Fox, Gaussian, Inc., Wallingford CT, 2019.
 
 ******************************************
 Gaussian 16:  ES64L-G16RevC.02  7-Dec-2021
                25-Aug-2025 
 ******************************************
 SetLPE:    new flags="-opt 'Tsnet.Node.lindarsharg: ssh'  -nodelist 'n1' -env GAUSS_MDEF=4294967296 -env GAUSS_EXEDIR="/hpc/softwares/Gaussian/g16/bsd:/hpc/softwares/Gaussian/g16""
 Will use up to    1 processors via Linda.
 ----------------------------------------------------------
 # td=(50-50,nstates=3) b3lyp/6-31+g(d,p) geom=connectivity
 ----------------------------------------------------------
 1/38=1,57=2,172=1/1;
 2/12=2,17=6,18=5,40=1/2;
 3/5=1,6=6,7=111,11=9,25=1,30=1,74=-5/1,2,3,8;
 4//1;
 5/5=2,38=5/2;
 8/6=1,10=2,108=3/1;
 9/41=3,42=1,48=2,70=2/14;
 6/7=2,8=2,9=2,10=2/1;
 99/5=1,9=1/99;
 -------------------
 Title Card Required
 -------------------
 Symbolic Z-matrix:
 Charge =  0 Multiplicity = 1
 C                    -5.83307  -1.52609  -0.79768 
 O                    -5.00948  -0.42785  -1.23686 
 C                    -3.8142   -0.27782  -0.67237 
 C                    -2.83874   0.65161  -0.92456 
 C                    -1.75683   0.33987  -0.04085 
 C                    -0.44319   1.01583   0.05208 
 C                     0.71859   0.24179  -0.09285 
 C                     1.99391   0.8148   -0.03071 
 C                     3.22198   0.00781  -0.19276 
 N                     4.388     0.52137  -0.28737 
 C                     5.44971  -0.47829  -0.33005 
 C                     4.87498  -1.8425   -0.77225 
 S                     3.11963  -1.79966  -0.23173 
 C                     2.09735   2.19776   0.186 
 C                     0.94927   2.96722   0.33659 
 C                    -0.3362    2.40752   0.27356 
 C                    -1.54516   3.29362   0.46618 
 C                    -2.16162  -0.75847   0.6912 
 C                    -1.57133  -1.50049   1.7321 
 N                    -1.08645  -2.11529   2.59733 
 O                    -3.44232  -1.14049   0.29706 
 H                    -6.74258  -1.45172  -1.39186 
 H                    -5.33341  -2.48039  -0.98468 
 H                    -6.06513  -1.43182   0.26648 
 H                    -2.8814    1.43168  -1.66779 
 H                     0.61444  -0.82202  -0.28032 
 H                     6.24516  -0.14762  -1.00548 
 H                     5.88469  -0.54757   0.67772 
 H                     4.90795  -1.96689  -1.85852 
 H                     5.38319  -2.68508  -0.29979 
 H                     3.08199   2.64872   0.23839 
 H                     1.04692   4.03414   0.51958 
 H                    -1.25621   4.23809   0.93506 
 H                    -2.02587   3.53707  -0.48887 
 H                    -2.30305   2.81705   1.09479 
 
                          Input orientation:                          
 ---------------------------------------------------------------------
 Center     Atomic      Atomic             Coordinates (Angstroms)
 Number     Number       Type             X           Y           Z
 ---------------------------------------------------------------------
      1          6           0       -5.833069   -1.526090   -0.797679
      2          8           0       -5.009481   -0.427852   -1.236860
      3          6           0       -3.814203   -0.277815   -0.672368
      4          6           0       -2.838741    0.651608   -0.924556
      5          6           0       -1.756825    0.339874   -0.040848
      6          6           0       -0.443185    1.015833    0.052084
      7          6           0        0.718588    0.241790   -0.092850
      8          6           0        1.993912    0.814801   -0.030709
      9          6           0        3.221975    0.007809   -0.192762
     10          7           0        4.388001    0.521366   -0.287372
     11          6           0        5.449713   -0.478290   -0.330047
     12          6           0        4.874975   -1.842504   -0.772252
     13         16           0        3.119631   -1.799663   -0.231734
     14          6           0        2.097351    2.197765    0.185997
     15          6           0        0.949265    2.967223    0.336591
     16          6           0       -0.336195    2.407520    0.273556
     17          6           0       -1.545158    3.293618    0.466176
     18          6           0       -2.161625   -0.758473    0.691198
     19          6           0       -1.571325   -1.500486    1.732102
     20          7           0       -1.086449   -2.115286    2.597326
     21          8           0       -3.442317   -1.140486    0.297057
     22          1           0       -6.742577   -1.451720   -1.391855
     23          1           0       -5.333412   -2.480387   -0.984682
     24          1           0       -6.065133   -1.431817    0.266478
     25          1           0       -2.881400    1.431676   -1.667785
     26          1           0        0.614444   -0.822017   -0.280320
     27          1           0        6.245163   -0.147618   -1.005485
     28          1           0        5.884694   -0.547568    0.677722
     29          1           0        4.907946   -1.966892   -1.858518
     30          1           0        5.383188   -2.685081   -0.299785
     31          1           0        3.081987    2.648717    0.238385
     32          1           0        1.046917    4.034139    0.519582
     33          1           0       -1.256205    4.238089    0.935056
     34          1           0       -2.025866    3.537070   -0.488873
     35          1           0       -2.303051    2.817050    1.094790
 ---------------------------------------------------------------------
                    Distance matrix (angstroms):
                    1          2          3          4          5
     1  C    0.000000
     2  O    1.441285   0.000000
     3  C    2.376913   1.330358   0.000000
     4  C    3.704655   2.444357   1.370749   0.000000
     5  C    4.546469   3.549594   2.239009   1.431314   0.000000
     6  C    6.019495   4.959502   3.682678   2.612503   1.480273
     7  C    6.822492   5.879452   4.599133   3.676177   2.477901
     8  C    8.205464   7.214326   5.944723   4.917330   3.780699
     9  C    9.203944   8.308839   7.058286   6.138589   4.992173
    10  N   10.436607   9.492903   8.250034   7.255947   6.152447
    11  C   11.340976  10.498552   9.272406   8.386214   7.258596
    12  C   10.712748   9.995978   8.829498   8.108342   7.019864
    13  S    8.974741   8.305095   7.112541   6.480041   5.328591
    14  C    8.816251   7.708790   6.466201   5.290457   4.284611
    15  C    8.214407   7.036259   5.851401   4.615361   3.790560
    16  C    6.843717   5.671005   4.494701   3.283510   2.528280
    17  C    6.573667   5.362015   4.381778   3.253876   3.004410
    18  C    4.035529   3.454997   2.195759   2.248883   1.380623
    19  C    4.956098   4.667569   3.508119   3.646325   2.562164
    20  N    5.865459   5.739216   4.637655   4.809354   3.665675
    21  O    2.657599   2.305808   1.349920   2.251276   2.268596
    22  H    1.088936   2.018898   3.235906   4.458956   5.467426
    23  H    1.093302   2.093185   2.693856   4.004546   4.651523
    24  H    1.093239   2.093412   2.698118   4.021048   4.668496
    25  H    4.268233   2.858718   2.187084   1.078293   2.259120
    26  H    6.506443   5.718292   4.479149   3.809343   2.651463
    27  H   12.158415  11.260510  10.065722   9.119354   8.074651
    28  H   11.850750  11.061781   9.796127   8.950063   7.726365
    29  H   10.802272  10.055370   8.963025   8.230431   7.283149
    30  H   11.286965  10.676177   9.514502   8.895164   7.758685
    31  H    9.898518   8.781428   7.546622   6.355777   5.368690
    32  H    8.943463   7.724921   6.606374   5.350270   4.671471
    33  H    7.561469   6.369875   5.433282   4.338827   4.049579
    34  H    6.342377   5.018172   4.217246   3.029270   3.239625
    35  H    5.908073   4.826048   3.870997   3.008963   2.779287
                    6          7          8          9         10
     6  C    0.000000
     7  C    1.403519   0.000000
     8  C    2.446775   1.399519   0.000000
     9  C    3.809128   2.516282   1.478390   0.000000
    10  N    4.868273   3.685186   2.425622   1.277618   0.000000
    11  C    6.091361   4.791484   3.701925   2.284285   1.458892
    12  C    6.093640   4.699087   3.988945   2.547916   2.461734
    13  S    4.549860   3.154652   2.853608   1.810787   2.645569
    14  C    2.805213   2.409270   1.403656   2.490812   2.877754
    15  C    2.414080   2.768685   2.420561   3.768761   4.265730
    16  C    1.413255   2.436638   2.838790   4.317017   5.117641
    17  C    2.564005   3.840665   4.349304   5.827203   6.592086
    18  C    2.551404   3.148156   4.501647   5.509240   6.744864
    19  C    3.229090   3.407298   4.602062   5.381058   6.609064
    20  N    4.086068   4.006372   4.998060   5.554695   6.726293
    21  O    3.701961   4.401800   5.786464   6.780213   8.026032
    22  H    6.917812   7.760436   9.127764  10.142009  11.357936
    23  H    6.100226   6.695694   8.090612   8.944993  10.198168
    24  H    6.135410   6.996352   8.371608   9.409240  10.648459
    25  H    3.012601   4.105626   5.179693   6.438500   7.455092
    26  H    2.146337   1.085208   2.155090   2.737790   4.005554
    27  H    6.870667   5.614942   4.466495   3.134381   2.100542
    28  H    6.548106   5.282567   4.182835   2.855916   2.077045
    29  H    6.417293   5.054362   4.423833   3.084913   2.988356
    30  H    6.911382   5.510707   4.879423   3.454555   3.357358
    31  H    3.889454   3.389494   2.149318   2.679530   2.551022
    32  H    3.398401   3.855487   3.400552   4.631376   4.914630
    33  H    3.438543   4.574582   4.818180   6.262694   6.867709
    34  H    3.025583   4.306708   4.876400   6.331129   7.090329
    35  H    2.791186   4.144002   4.872334   6.330524   7.207684
                   11         12         13         14         15
    11  C    0.000000
    12  C    1.544975   0.000000
    13  S    2.680480   1.837179   0.000000
    14  C    4.320405   4.995719   4.147166   0.000000
    15  C    5.707013   6.306679   5.268461   1.390268   0.000000
    16  C    6.493764   6.805344   5.467947   2.444138   1.403442
    17  C    7.986832   8.314539   6.941819   3.814088   2.519022
    18  C    7.684654   7.268463   5.461460   5.208978   4.866641
    19  C    7.388661   6.924128   5.094235   5.433846   5.316131
    20  N    7.346474   6.853250   5.078810   5.878222   5.923424
    21  O    8.938678   8.415082   6.616139   6.468707   6.013387
    22  H   12.277090  11.640624   9.936302   9.692919   9.037644
    23  H   10.986934  10.230503   8.513768   8.858433   8.419872
    24  H   11.569647  10.996981   9.205619   8.933448   8.279991
    25  H    8.651298   8.466616   6.965355   5.367622   4.587965
    26  H    4.847726   4.408573   2.689631   3.396402   3.853703
    27  H    1.094669   2.191906   3.618963   4.911700   6.288874
    28  H    1.099821   2.190620   3.168663   4.703468   6.068656
    29  H    2.201288   1.093862   2.423316   5.424376   6.695905
    30  H    2.208001   1.091532   2.431519   5.905497   7.212017
    31  H    3.963258   4.940370   4.473311   1.084256   2.158609
    32  H    6.361485   7.131465   6.236495   2.141719   1.086891
    33  H    8.295424   8.802266   7.547436   3.996292   2.614834
    34  H    8.487203   8.754526   7.417748   4.387494   3.139669
    35  H    8.543698   8.759072   7.244252   4.535742   3.342899
                   16         17         18         19         20
    16  C    0.000000
    17  C    1.511246   0.000000
    18  C    3.678333   4.104888   0.000000
    19  C    4.350335   4.958496   1.408019   0.000000
    20  N    5.139899   5.831677   2.574931   1.166917   0.000000
    21  O    4.715601   4.825877   1.393360   2.385281   3.433888
    22  H    7.662184   7.278989   5.079845   6.041799   6.953105
    23  H    7.102603   7.056557   3.979170   4.742828   5.567834
    24  H    6.896469   6.542155   3.983862   4.727270   5.539610
    25  H    3.346512   3.131479   3.298428   4.676869   5.830434
    26  H    3.411803   4.707397   2.941844   3.047581   3.584191
    27  H    7.174883   8.642742   8.598021   8.391789   8.402648
    28  H    6.898939   8.366729   8.049094   7.590256   7.398612
    29  H    7.154176   8.644057   7.611844   7.422334   7.470565
    30  H    7.679495   9.183328   7.849718   7.341463   7.111548
    31  H    3.426862   4.677420   6.269725   6.410958   6.755456
    32  H    2.149283   2.696308   5.770037   6.241592   6.832547
    33  H    2.152901   1.093329   5.083786   5.802226   6.569424
    34  H    2.170753   1.096571   4.456758   5.524157   6.508168
    35  H    2.170406   1.093926   3.601007   4.425235   5.297705
                   21         22         23         24         25
    21  O    0.000000
    22  H    3.720350   0.000000
    23  H    2.648477   1.791561   0.000000
    24  H    2.639123   1.791478   1.788943   0.000000
    25  H    3.285004   4.826883   4.667251   4.698630   0.000000
    26  H    4.110000   7.467114   6.214765   6.729606   4.384646
    27  H    9.824951  13.058765  11.811251  12.442285   9.285847
    28  H    9.353587  12.827650  11.504142  11.989553   9.287799
    29  H    8.663506  11.671241  10.291389  11.189744   8.500621
    30  H    8.979506  12.237155  10.740414  11.530628   9.333945
    31  H    7.545068  10.770020   9.930888  10.016055   6.377825
    32  H    6.854158   9.717225   9.241778   8.973405   5.195100
    33  H    5.840822   8.239461   8.089928   7.464625   4.158364
    34  H    4.950106   6.924649   6.884437   6.447951   2.560167
    35  H    4.194806   6.641927   6.447490   5.735175   3.144133
                   26         27         28         29         30
    26  H    0.000000
    27  H    5.717139   0.000000
    28  H    5.363646   1.767225   0.000000
    29  H    4.715465   2.413622   3.066110   0.000000
    30  H    5.119795   2.771233   2.403329   1.780814   0.000000
    31  H    4.289967   4.401407   4.273689   5.388411   5.833914
    32  H    4.940559   6.843587   6.664918   7.521654   8.038814
    33  H    5.530022   8.903406   8.600068   9.181645   9.671435
    34  H    5.100625   9.069384   8.978985   8.958084   9.677035
    35  H    4.862665   9.288292   8.861928   9.143665   9.554923
                   31         32         33         34         35
    31  H    0.000000
    32  H    2.477897   0.000000
    33  H    4.672404   2.349167   0.000000
    34  H    5.235288   3.272011   1.763910   0.000000
    35  H    5.455309   3.610326   1.772217   1.761604   0.000000
 Stoichiometry    C16H14N2O2S
 Framework group  C1[X(C16H14N2O2S)]
 Deg. of freedom    99
 Full point group                 C1      NOp   1
 Largest Abelian subgroup         C1      NOp   1
 Largest concise Abelian subgroup C1      NOp   1
                         Standard orientation:                         
 ---------------------------------------------------------------------
 Center     Atomic      Atomic             Coordinates (Angstroms)
 Number     Number       Type             X           Y           Z
 ---------------------------------------------------------------------
      1          6           0       -5.833069   -1.526090   -0.797679
      2          8           0       -5.009481   -0.427852   -1.236860
      3          6           0       -3.814203   -0.277815   -0.672368
      4          6           0       -2.838741    0.651608   -0.924556
      5          6           0       -1.756825    0.339874   -0.040848
      6          6           0       -0.443185    1.015833    0.052084
      7          6           0        0.718588    0.241790   -0.092850
      8          6           0        1.993912    0.814801   -0.030709
      9          6           0        3.221975    0.007809   -0.192762
     10          7           0        4.388001    0.521366   -0.287372
     11          6           0        5.449713   -0.478290   -0.330047
     12          6           0        4.874975   -1.842504   -0.772252
     13         16           0        3.119631   -1.799663   -0.231734
     14          6           0        2.097351    2.197765    0.185997
     15          6           0        0.949265    2.967223    0.336591
     16          6           0       -0.336195    2.407520    0.273556
     17          6           0       -1.545158    3.293618    0.466176
     18          6           0       -2.161625   -0.758473    0.691198
     19          6           0       -1.571325   -1.500486    1.732102
     20          7           0       -1.086449   -2.115286    2.597326
     21          8           0       -3.442317   -1.140486    0.297057
     22          1           0       -6.742577   -1.451720   -1.391855
     23          1           0       -5.333412   -2.480387   -0.984682
     24          1           0       -6.065133   -1.431817    0.266478
     25          1           0       -2.881400    1.431676   -1.667785
     26          1           0        0.614444   -0.822017   -0.280320
     27          1           0        6.245163   -0.147618   -1.005485
     28          1           0        5.884694   -0.547568    0.677722
     29          1           0        4.907946   -1.966892   -1.858518
     30          1           0        5.383188   -2.685081   -0.299785
     31          1           0        3.081987    2.648717    0.238385
     32          1           0        1.046917    4.034139    0.519582
     33          1           0       -1.256205    4.238089    0.935056
     34          1           0       -2.025866    3.537070   -0.488873
     35          1           0       -2.303051    2.817050    1.094790
 ---------------------------------------------------------------------
 Rotational constants (GHZ):           0.5085941           0.1489848           0.1278081
 Standard basis: 6-31+G(d,p) (6D, 7F)
 There are   473 symmetry adapted cartesian basis functions of A   symmetry.
 There are   473 symmetry adapted basis functions of A   symmetry.
   473 basis functions,   794 primitive gaussians,   473 cartesian basis functions
    78 alpha electrons       78 beta electrons
       nuclear repulsion energy      1661.6393693307 Hartrees.
 NAtoms=   35 NActive=   35 NUniq=   35 SFac= 1.00D+00 NAtFMM=   60 NAOKFM=F Big=F
 Integral buffers will be    131072 words long.
 Regular integral format.
 Two-electron integral symmetry is turned on.
 One-electron integrals computed using PRISM.
 NBasis=   473 RedAO= T EigKep=  1.26D-06  NBF=   473
 NBsUse=   468 1.00D-06 EigRej=  8.71D-07 NBFU=   468
 ExpMin= 4.05D-02 ExpMax= 2.19D+04 ExpMxC= 3.30D+03 IAcc=3 IRadAn=         5 AccDes= 0.00D+00
 Harris functional with IExCor=  402 and IRadAn=       5 diagonalized for initial guess.
 HarFok:  IExCor=  402 AccDes= 0.00D+00 IRadAn=         5 IDoV= 1 UseB2=F ITyADJ=14
 ICtDFT=  3500011 ScaDFX=  1.000000  1.000000  1.000000  1.000000
 FoFCou: FMM=F IPFlag=           0 FMFlag=      100000 FMFlg1=           0
         NFxFlg=           0 DoJE=T BraDBF=F KetDBF=T FulRan=T
         wScrn=  0.000000 ICntrl=       500 IOpCl=  0 I1Cent=   200000004 NGrid=           0
         NMat0=    1 NMatS0=      1 NMatT0=    0 NMatD0=    1 NMtDS0=    0 NMtDT0=    0
 Petite list used in FoFCou.
 Requested convergence on RMS density matrix=1.00D-08 within 128 cycles.
 Requested convergence on MAX density matrix=1.00D-06.
 Requested convergence on             energy=1.00D-06.
 No special actions if energy rises.
 SCF Done:  E(RB3LYP) =  -1276.27693058     A.U. after   16 cycles
            NFock= 16  Conv=0.78D-08     -V/T= 2.0076
 DoSCS=F DFT=T ScalE2(SS,OS)=  1.000000  1.000000
 ExpMin= 4.05D-02 ExpMax= 2.19D+04 ExpMxC= 3.30D+03 IAcc=3 IRadAn=         5 AccDes= 0.00D+00
 HarFok:  IExCor=  205 AccDes= 0.00D+00 IRadAn=         5 IDoV=-2 UseB2=F ITyADJ=14
 ICtDFT= 12500011 ScaDFX=  1.000000  1.000000  1.000000  1.000000
 GSVD:  LWork=        -825 too small for GESVD, short by        3500 words or        3500 for optimal perf.
 Range of M.O.s used for correlation:    26   468
 NBasis=   473 NAE=    78 NBE=    78 NFC=    25 NFV=     0
 NROrb=    443 NOA=    53 NOB=    53 NVA=   390 NVB=   390

 **** Warning!!: The largest alpha MO coefficient is  0.12544094D+03

 Orbital symmetries:
       Occupied  (A) (A) (A) (A) (A) (A) (A) (A) (A) (A) (A) (A)
                 (A) (A) (A) (A) (A) (A) (A) (A) (A) (A) (A) (A)
                 (A) (A) (A) (A) (A) (A) (A) (A) (A) (A) (A) (A)
                 (A) (A) (A) (A) (A) (A) (A) (A) (A) (A) (A) (A)
                 (A) (A) (A) (A) (A) (A) (A) (A) (A) (A) (A) (A)
                 (A) (A) (A) (A) (A) (A) (A) (A) (A) (A) (A) (A)
                 (A) (A) (A) (A) (A) (A)
       Virtual   (A) (A) (A) (A) (A) (A) (A) (A) (A) (A) (A) (A)
                 (A) (A) (A) (A) (A) (A) (A) (A) (A) (A) (A) (A)
                 (A) (A) (A) (A) (A) (A) (A) (A) (A) (A) (A) (A)
                 (A) (A) (A) (A) (A) (A) (A) (A) (A) (A) (A) (A)
                 (A) (A) (A) (A) (A) (A) (A) (A) (A) (A) (A) (A)
                 (A) (A) (A) (A) (A) (A) (A) (A) (A) (A) (A) (A)
                 (A) (A) (A) (A) (A) (A) (A) (A) (A) (A) (A) (A)
                 (A) (A) (A) (A) (A) (A) (A) (A) (A) (A) (A) (A)
                 (A) (A) (A) (A) (A) (A) (A) (A) (A) (A) (A) (A)
                 (A) (A) (A) (A) (A) (A) (A) (A) (A) (A) (A) (A)
                 (A) (A) (A) (A) (A) (A) (A) (A) (A) (A) (A) (A)
                 (A) (A) (A) (A) (A) (A) (A) (A) (A) (A) (A) (A)
                 (A) (A) (A) (A) (A) (A) (A) (A) (A) (A) (A) (A)
                 (A) (A) (A) (A) (A) (A) (A) (A) (A) (A) (A) (A)
                 (A) (A) (A) (A) (A) (A) (A) (A) (A) (A) (A) (A)
                 (A) (A) (A) (A) (A) (A) (A) (A) (A) (A) (A) (A)
                 (A) (A) (A) (A) (A) (A) (A) (A) (A) (A) (A) (A)
                 (A) (A) (A) (A) (A) (A) (A) (A) (A) (A) (A) (A)
                 (A) (A) (A) (A) (A) (A) (A) (A) (A) (A) (A) (A)
                 (A) (A) (A) (A) (A) (A) (A) (A) (A) (A) (A) (A)
                 (A) (A) (A) (A) (A) (A) (A) (A) (A) (A) (A) (A)
                 (A) (A) (A) (A) (A) (A) (A) (A) (A) (A) (A) (A)
                 (A) (A) (A) (A) (A) (A) (A) (A) (A) (A) (A) (A)
                 (A) (A) (A) (A) (A) (A) (A) (A) (A) (A) (A) (A)
                 (A) (A) (A) (A) (A) (A) (A) (A) (A) (A) (A) (A)
                 (A) (A) (A) (A) (A) (A) (A) (A) (A) (A) (A) (A)
                 (A) (A) (A) (A) (A) (A) (A) (A) (A) (A) (A) (A)
                 (A) (A) (A) (A) (A) (A) (A) (A) (A) (A) (A) (A)
                 (A) (A) (A) (A) (A) (A) (A) (A) (A) (A) (A) (A)
                 (A) (A) (A) (A) (A) (A) (A) (A) (A) (A) (A) (A)
                 (A) (A) (A) (A) (A) (A) (A) (A) (A) (A) (A) (A)
                 (A) (A) (A) (A) (A) (A) (A) (A) (A) (A) (A) (A)
                 (A) (A) (A) (A) (A) (A)
    24 initial guesses have been made.
 Convergence on wavefunction:    0.001000000000000
 Iteration     1 Dimension    24 NMult     0 NNew     24
 CISAX will form    24 AO SS matrices at one time.
 New state      1 was old state      2
 New state      2 was old state      4
 New state      3 was old state     10
 New state      4 was old state      6
 New state      5 was old state      1
 New state      6 was old state      8
 New state      7 was old state      3
 New state      8 was old state     12
 New state      9 was old state     18
 New state     10 was old state     11
 New state     11 was old state     14
 New state     12 was old state     24
 Vector   4 SDiff=6.89D+00 TDiff=1.09D+01 assumed to be singlet.
 Vector   6 SDiff=5.90D+00 TDiff=6.56D+00 assumed to be singlet.
 Vector  10 SDiff=6.68D+00 TDiff=1.02D+01 assumed to be singlet.
 Vector  12 SDiff=5.79D+00 TDiff=4.88D+00 assumed to be triplet.
 Iteration     2 Dimension    36 NMult    24 NNew     12
 New state      4 was old state      5
 New state      5 was old state      7
 New state      6 was old state     10
 Iteration     3 Dimension    48 NMult    36 NNew     12
 Iteration     4 Dimension    60 NMult    48 NNew     12
 Iteration     5 Dimension    72 NMult    60 NNew     12
 Iteration     6 Dimension    84 NMult    72 NNew     12
 Iteration     7 Dimension    86 NMult    84 NNew      2
 Iteration     8 Dimension    88 NMult    86 NNew      2
 ***********************************************************************
 Excited states from <AA,BB:AA,BB> singles matrix:
 ***********************************************************************
 
 Ground to excited state transition densities written to RWF  633
 Ground to excited state transition electric dipole moments (Au):
       state          X           Y           Z        Dip. S.      Osc.
         1         0.0000      0.0000     -0.0000      0.0000      0.0000
         2         0.0000      0.0000      0.0000      0.0000      0.0000
         3        -0.0000     -0.0000      0.0000      0.0000      0.0000
         4        -0.2650      0.2353     -0.2214      0.1746      0.0173
         5        -0.0040     -0.3546      0.2270      0.1772      0.0178
         6        -0.1983     -0.4822      0.2562      0.3375      0.0363
 Ground to excited state transition velocity dipole moments (Au):
       state          X           Y           Z        Dip. S.      Osc.
         1         0.0000      0.0000      0.0000      0.0000      0.0000
         2         0.0000     -0.0000     -0.0000      0.0000      0.0000
         3         0.0000      0.0000     -0.0000      0.0000      0.0000
         4         0.0397     -0.0426      0.0324      0.0044      0.0199
         5         0.0024      0.0470     -0.0311      0.0032      0.0141
         6         0.0273      0.0745     -0.0407      0.0079      0.0329
 Ground to excited state transition magnetic dipole moments (Au):
       state          X           Y           Z
         1         0.0000      0.0000      0.0000
         2        -0.0000     -0.0000     -0.0000
         3         0.0000     -0.0000     -0.0000
         4         0.0267      0.1080      0.1492
         5        -0.0397     -0.1099     -0.0975
         6        -0.0472     -0.2301     -0.1434
 Ground to excited state transition velocity quadrupole moments (Au):
       state          XX          YY          ZZ          XY          XZ          YZ
         1        -0.0000      0.0000      0.0000     -0.0000     -0.0000     -0.0000
         2        -0.0000     -0.0000     -0.0000     -0.0000      0.0000      0.0000
         3         0.0000      0.0000     -0.0000      0.0000      0.0000      0.0000
         4         0.3318     -0.2687      0.1042      0.1805     -0.1310     -0.1694
         5         0.6724     -0.0995     -0.1219      0.1388      0.1776      0.0888
         6         0.7126     -0.0307     -0.1869      0.0045      0.1844      0.1406
 <0|del|b> * <b|rxdel|0> + <0|del|b> * <b|delr+rdel|0>
 Rotatory Strengths (R) in cgs (10**-40 erg-esu-cm/Gauss)
       state          XX          YY          ZZ    R(velocity)    E-M Angle
         1         0.0000      0.0000      0.0000      0.0000       90.00
         2         0.0000      0.0000     -0.0000      0.0000       90.00
         3        -0.0000      0.0000     -0.0000      0.0000       90.00
         4         1.1937    -15.9351     20.9091      2.0559       84.01
         5       -34.7812     17.5449      6.7484     -3.4960      105.07
         6       -55.3199     18.7947    -18.7173    -18.4142      120.88
 1/2[<0|r|b>*<b|rxdel|0> + (<0|rxdel|b>*<b|r|0>)*]
 Rotatory Strengths (R) in cgs (10**-40 erg-esu-cm/Gauss)
       state          XX          YY          ZZ     R(length)
         1        -0.0000     -0.0000      0.0000     -0.0000
         2         0.0000      0.0000      0.0000      0.0000
         3         0.0000     -0.0000      0.0000      0.0000
         4         4.9968    -17.9611     23.3618      3.4658
         5        -0.1112    -27.5499     15.6426     -4.0062
         6        -6.6164    -78.4712     25.9915    -19.6987
  1/2[<0|del|b>*<b|r|0> + (<0|r|b>*<b|del|0>)*] (Au)
       state          X           Y           Z        Dip. S.   Osc.(frdel)
         1         0.0000      0.0000     -0.0000     -0.0000     -0.0000
         2         0.0000     -0.0000     -0.0000      0.0000      0.0000
         3        -0.0000     -0.0000     -0.0000      0.0000      0.0000
         4        -0.0105     -0.0100     -0.0072      0.0277      0.0185
         5        -0.0000     -0.0167     -0.0070      0.0237      0.0158
         6        -0.0054     -0.0359     -0.0104      0.0517      0.0345

 Excitation energies and oscillator strengths:
 
 Excited State   1:      Triplet-A      2.8617 eV  433.25 nm  f=0.0000  <S**2>=2.000
      76 -> 79         0.20438
      76 -> 80         0.10580
      77 -> 80         0.26873
      78 -> 79         0.52212
      78 -> 80        -0.22353
 This state for optimization and/or second-order correction.
 Total Energy, E(TD-HF/TD-DFT) =  -1276.17176380    
 Copying the excited state density for this state as the 1-particle RhoCI density.
 
 Excited State   2:      Triplet-A      3.0130 eV  411.50 nm  f=0.0000  <S**2>=2.000
      76 -> 79         0.24697
      77 -> 79         0.45294
      78 -> 80         0.39780
      78 -> 81         0.14755
 
 Excited State   3:      Triplet-A      3.5778 eV  346.53 nm  f=0.0000  <S**2>=2.000
      75 -> 79        -0.10741
      75 -> 80         0.14132
      75 -> 81        -0.17121
      76 -> 79         0.45512
      76 -> 80         0.11242
      77 -> 79        -0.26247
      77 -> 80        -0.27502
 
 Excited State   4:      Singlet-A      4.0371 eV  307.12 nm  f=0.0173  <S**2>=0.000
      76 -> 79        -0.10925
      77 -> 79         0.26427
      78 -> 79         0.62937
      78 -> 80         0.12166
 
 Excited State   5:      Singlet-A      4.0901 eV  303.13 nm  f=0.0178  <S**2>=0.000
      77 -> 79         0.63536
      78 -> 79        -0.23692
      78 -> 80        -0.15846
 
 Excited State   6:      Singlet-A      4.3845 eV  282.78 nm  f=0.0363  <S**2>=0.000
      75 -> 79        -0.18128
      76 -> 79        -0.20067
      77 -> 80         0.40569
      78 -> 79        -0.13582
      78 -> 80         0.46922
      78 -> 81        -0.10195
 SavETr:  write IOETrn=   770 NScale= 10 NData=  16 NLR=1 NState=    6 LETran=     118.

 **********************************************************************

            Population analysis using the SCF Density.

 **********************************************************************

 Orbital symmetries:
       Occupied  (A) (A) (A) (A) (A) (A) (A) (A) (A) (A) (A) (A)
                 (A) (A) (A) (A) (A) (A) (A) (A) (A) (A) (A) (A)
                 (A) (A) (A) (A) (A) (A) (A) (A) (A) (A) (A) (A)
                 (A) (A) (A) (A) (A) (A) (A) (A) (A) (A) (A) (A)
                 (A) (A) (A) (A) (A) (A) (A) (A) (A) (A) (A) (A)
                 (A) (A) (A) (A) (A) (A) (A) (A) (A) (A) (A) (A)
                 (A) (A) (A) (A) (A) (A)
       Virtual   (A) (A) (A) (A) (A) (A) (A) (A) (A) (A) (A) (A)
                 (A) (A) (A) (A) (A) (A) (A) (A) (A) (A) (A) (A)
                 (A) (A) (A) (A) (A) (A) (A) (A) (A) (A) (A) (A)
                 (A) (A) (A) (A) (A) (A) (A) (A) (A) (A) (A) (A)
                 (A) (A) (A) (A) (A) (A) (A) (A) (A) (A) (A) (A)
                 (A) (A) (A) (A) (A) (A) (A) (A) (A) (A) (A) (A)
                 (A) (A) (A) (A) (A) (A) (A) (A) (A) (A) (A) (A)
                 (A) (A) (A) (A) (A) (A) (A) (A) (A) (A) (A) (A)
                 (A) (A) (A) (A) (A) (A) (A) (A) (A) (A) (A) (A)
                 (A) (A) (A) (A) (A) (A) (A) (A) (A) (A) (A) (A)
                 (A) (A) (A) (A) (A) (A) (A) (A) (A) (A) (A) (A)
                 (A) (A) (A) (A) (A) (A) (A) (A) (A) (A) (A) (A)
                 (A) (A) (A) (A) (A) (A) (A) (A) (A) (A) (A) (A)
                 (A) (A) (A) (A) (A) (A) (A) (A) (A) (A) (A) (A)
                 (A) (A) (A) (A) (A) (A) (A) (A) (A) (A) (A) (A)
                 (A) (A) (A) (A) (A) (A) (A) (A) (A) (A) (A) (A)
                 (A) (A) (A) (A) (A) (A) (A) (A) (A) (A) (A) (A)
                 (A) (A) (A) (A) (A) (A) (A) (A) (A) (A) (A) (A)
                 (A) (A) (A) (A) (A) (A) (A) (A) (A) (A) (A) (A)
                 (A) (A) (A) (A) (A) (A) (A) (A) (A) (A) (A) (A)
                 (A) (A) (A) (A) (A) (A) (A) (A) (A) (A) (A) (A)
                 (A) (A) (A) (A) (A) (A) (A) (A) (A) (A) (A) (A)
                 (A) (A) (A) (A) (A) (A) (A) (A) (A) (A) (A) (A)
                 (A) (A) (A) (A) (A) (A) (A) (A) (A) (A) (A) (A)
                 (A) (A) (A) (A) (A) (A) (A) (A) (A) (A) (A) (A)
                 (A) (A) (A) (A) (A) (A) (A) (A) (A) (A) (A) (A)
                 (A) (A) (A) (A) (A) (A) (A) (A) (A) (A) (A) (A)
                 (A) (A) (A) (A) (A) (A) (A) (A) (A) (A) (A) (A)
                 (A) (A) (A) (A) (A) (A) (A) (A) (A) (A) (A) (A)
                 (A) (A) (A) (A) (A) (A) (A) (A) (A) (A) (A) (A)
                 (A) (A) (A) (A) (A) (A) (A) (A) (A) (A) (A) (A)
                 (A) (A) (A) (A) (A) (A) (A) (A) (A) (A) (A) (A)
                 (A) (A) (A) (A) (A) (A)
 The electronic state is 1-A.
 Alpha  occ. eigenvalues --  -88.89032 -19.25462 -19.22888 -14.34594 -14.33578
 Alpha  occ. eigenvalues --  -10.33363 -10.28179 -10.26956 -10.26501 -10.23942
 Alpha  occ. eigenvalues --  -10.23766 -10.22899 -10.22801 -10.22285 -10.22220
 Alpha  occ. eigenvalues --  -10.21725 -10.21138 -10.21038 -10.20540 -10.20424
 Alpha  occ. eigenvalues --  -10.19838  -7.95061  -5.91545  -5.91199  -5.90589
 Alpha  occ. eigenvalues --   -1.16640  -1.09785  -0.95123  -0.91051  -0.88490
 Alpha  occ. eigenvalues --   -0.84384  -0.80304  -0.79938  -0.78566  -0.76111
 Alpha  occ. eigenvalues --   -0.74529  -0.74102  -0.69976  -0.65595  -0.63043
 Alpha  occ. eigenvalues --   -0.62446  -0.61093  -0.60827  -0.57735  -0.55397
 Alpha  occ. eigenvalues --   -0.53546  -0.52105  -0.49549  -0.49312  -0.48339
 Alpha  occ. eigenvalues --   -0.47926  -0.46827  -0.46389  -0.45557  -0.44748
 Alpha  occ. eigenvalues --   -0.43765  -0.42924  -0.42371  -0.42183  -0.40415
 Alpha  occ. eigenvalues --   -0.40116  -0.39225  -0.38696  -0.38435  -0.38168
 Alpha  occ. eigenvalues --   -0.36854  -0.36353  -0.35894  -0.35241  -0.34339
 Alpha  occ. eigenvalues --   -0.34204  -0.33212  -0.30977  -0.27086  -0.26456
 Alpha  occ. eigenvalues --   -0.25345  -0.23300  -0.22889
 Alpha virt. eigenvalues --   -0.06240  -0.04751  -0.02058  -0.01228  -0.00323
 Alpha virt. eigenvalues --    0.00279   0.00415   0.01208   0.01547   0.02005
 Alpha virt. eigenvalues --    0.02376   0.02479   0.02639   0.03447   0.03661
 Alpha virt. eigenvalues --    0.03886   0.04360   0.04658   0.04739   0.05383
 Alpha virt. eigenvalues --    0.05852   0.06003   0.06789   0.06969   0.07544
 Alpha virt. eigenvalues --    0.07776   0.08339   0.08979   0.09024   0.09868
 Alpha virt. eigenvalues --    0.10304   0.10731   0.10953   0.11254   0.11683
 Alpha virt. eigenvalues --    0.11861   0.12149   0.12683   0.12694   0.12972
 Alpha virt. eigenvalues --    0.13456   0.13668   0.14002   0.14507   0.14833
 Alpha virt. eigenvalues --    0.15200   0.15382   0.15459   0.16236   0.16478
 Alpha virt. eigenvalues --    0.16674   0.17121   0.17444   0.17757   0.18314
 Alpha virt. eigenvalues --    0.18825   0.18924   0.19164   0.19364   0.19717
 Alpha virt. eigenvalues --    0.20215   0.20413   0.20615   0.20947   0.21141
 Alpha virt. eigenvalues --    0.21507   0.22023   0.22255   0.22714   0.23344
 Alpha virt. eigenvalues --    0.23722   0.23787   0.24202   0.24464   0.25057
 Alpha virt. eigenvalues --    0.25616   0.25843   0.26198   0.26659   0.27030
 Alpha virt. eigenvalues --    0.27136   0.27395   0.27749   0.27947   0.28241
 Alpha virt. eigenvalues --    0.28611   0.28855   0.29194   0.29368   0.29602
 Alpha virt. eigenvalues --    0.29892   0.30371   0.30634   0.30797   0.31870
 Alpha virt. eigenvalues --    0.32270   0.32750   0.33142   0.33244   0.33832
 Alpha virt. eigenvalues --    0.34472   0.34839   0.35258   0.35770   0.36442
 Alpha virt. eigenvalues --    0.36750   0.37866   0.38501   0.39127   0.39402
 Alpha virt. eigenvalues --    0.39808   0.40571   0.41574   0.42936   0.43358
 Alpha virt. eigenvalues --    0.44628   0.45282   0.46529   0.46630   0.50022
 Alpha virt. eigenvalues --    0.52415   0.53512   0.54727   0.56016   0.57631
 Alpha virt. eigenvalues --    0.59911   0.62646   0.63158   0.64782   0.64945
 Alpha virt. eigenvalues --    0.65179   0.67025   0.67267   0.68392   0.68886
 Alpha virt. eigenvalues --    0.70011   0.70494   0.70877   0.71943   0.72331
 Alpha virt. eigenvalues --    0.73103   0.73576   0.73937   0.75195   0.75321
 Alpha virt. eigenvalues --    0.76278   0.76561   0.77529   0.78253   0.78493
 Alpha virt. eigenvalues --    0.78997   0.80133   0.80853   0.81337   0.82452
 Alpha virt. eigenvalues --    0.83303   0.83723   0.84504   0.84660   0.85929
 Alpha virt. eigenvalues --    0.86691   0.88014   0.88378   0.88966   0.89606
 Alpha virt. eigenvalues --    0.91250   0.91669   0.92579   0.93237   0.94253
 Alpha virt. eigenvalues --    0.94941   0.95614   0.96238   0.97783   0.98694
 Alpha virt. eigenvalues --    0.98866   0.99531   1.00165   1.01968   1.02903
 Alpha virt. eigenvalues --    1.03426   1.04017   1.04792   1.05252   1.07063
 Alpha virt. eigenvalues --    1.07397   1.08242   1.09772   1.10670   1.12505
 Alpha virt. eigenvalues --    1.12619   1.13257   1.14174   1.15136   1.15503
 Alpha virt. eigenvalues --    1.16584   1.17050   1.18247   1.18889   1.19469
 Alpha virt. eigenvalues --    1.20317   1.20736   1.22283   1.23281   1.23980
 Alpha virt. eigenvalues --    1.25518   1.26440   1.27410   1.28905   1.29748
 Alpha virt. eigenvalues --    1.29811   1.31152   1.32088   1.33286   1.33852
 Alpha virt. eigenvalues --    1.35224   1.35905   1.36972   1.38126   1.39192
 Alpha virt. eigenvalues --    1.40796   1.42176   1.42734   1.43127   1.44099
 Alpha virt. eigenvalues --    1.45847   1.46885   1.48830   1.50068   1.50973
 Alpha virt. eigenvalues --    1.53549   1.55004   1.57611   1.58398   1.59233
 Alpha virt. eigenvalues --    1.59569   1.61205   1.62825   1.65494   1.67362
 Alpha virt. eigenvalues --    1.69467   1.72403   1.73489   1.75768   1.76042
 Alpha virt. eigenvalues --    1.77007   1.80368   1.80696   1.81952   1.82412
 Alpha virt. eigenvalues --    1.83462   1.83627   1.85334   1.86310   1.87325
 Alpha virt. eigenvalues --    1.88552   1.89109   1.90187   1.90921   1.91641
 Alpha virt. eigenvalues --    1.93023   1.94263   1.95219   1.95578   1.95810
 Alpha virt. eigenvalues --    1.98641   1.99531   2.00084   2.00238   2.01555
 Alpha virt. eigenvalues --    2.01923   2.02457   2.04166   2.04969   2.05320
 Alpha virt. eigenvalues --    2.05883   2.07630   2.10154   2.10373   2.11261
 Alpha virt. eigenvalues --    2.12893   2.13973   2.15348   2.16858   2.17043
 Alpha virt. eigenvalues --    2.18864   2.19344   2.19967   2.22230   2.23329
 Alpha virt. eigenvalues --    2.24626   2.25856   2.26984   2.29239   2.30696
 Alpha virt. eigenvalues --    2.31230   2.32399   2.35614   2.36363   2.36868
 Alpha virt. eigenvalues --    2.39398   2.39770   2.40552   2.42570   2.46116
 Alpha virt. eigenvalues --    2.46842   2.48142   2.49196   2.50215   2.51269
 Alpha virt. eigenvalues --    2.52296   2.53057   2.54102   2.55686   2.56679
 Alpha virt. eigenvalues --    2.57486   2.58334   2.60279   2.61184   2.62218
 Alpha virt. eigenvalues --    2.64035   2.65749   2.67804   2.68577   2.70004
 Alpha virt. eigenvalues --    2.70678   2.73300   2.73685   2.74702   2.76499
 Alpha virt. eigenvalues --    2.77337   2.78702   2.79376   2.82680   2.82793
 Alpha virt. eigenvalues --    2.84163   2.84964   2.85504   2.87023   2.89693
 Alpha virt. eigenvalues --    2.90923   2.95854   2.96100   2.98549   2.99887
 Alpha virt. eigenvalues --    3.02801   3.06461   3.08944   3.09562   3.12988
 Alpha virt. eigenvalues --    3.20419   3.21182   3.23103   3.25036   3.26154
 Alpha virt. eigenvalues --    3.26736   3.31530   3.33703   3.34410   3.39580
 Alpha virt. eigenvalues --    3.42435   3.44124   3.44529   3.45759   3.47741
 Alpha virt. eigenvalues --    3.49217   3.49846   3.60277   3.76787   3.97897
 Alpha virt. eigenvalues --    4.18917   4.28570   4.30352   4.33070   4.35295
 Alpha virt. eigenvalues --    4.37623   4.38099   4.41986   4.43978   4.47913
 Alpha virt. eigenvalues --    4.49586   4.50383   4.51588   4.56639   4.58956
 Alpha virt. eigenvalues --    4.63279   4.64054   4.81547   4.87230   5.01812
          Condensed to atoms (all electrons):
               1          2          3          4          5          6
     1  C    5.000463   0.095521   0.090316  -0.160681  -0.198888   0.024366
     2  O    0.095521   8.476185   0.456885  -0.472162  -0.094581   0.013390
     3  C    0.090316   0.456885   8.184779  -2.681204  -1.772974   0.802587
     4  C   -0.160681  -0.472162  -2.681204  12.099422   1.953435  -0.503150
     5  C   -0.198888  -0.094581  -1.772974   1.953435  11.909191   1.629471
     6  C    0.024366   0.013390   0.802587  -0.503150   1.629471  13.583950
     7  C   -0.029142   0.002652  -0.768069   0.481644  -0.588313  -0.165948
     8  C   -0.001139   0.000565  -0.048955  -0.018950  -1.297789  -3.575226
     9  C   -0.001254   0.000116  -0.088796   0.113796  -0.356144  -1.039602
    10  N    0.000002  -0.000000   0.000368  -0.000319   0.005117  -0.099929
    11  C   -0.000013   0.000001  -0.001668   0.001947  -0.027884  -0.038632
    12  C    0.000005  -0.000001   0.000424  -0.001525  -0.000809  -0.014133
    13  S   -0.000121  -0.000010  -0.002704  -0.010038  -0.075700  -0.213267
    14  C    0.000509   0.000129  -0.041018   0.092122   0.398892   1.296137
    15  C   -0.000620   0.000969   0.007028  -0.488558  -1.554246  -3.564666
    16  C   -0.027124  -0.005770  -0.438504  -0.514472  -0.296039  -3.219019
    17  C    0.008248   0.006705   0.299709  -0.306561   0.176275   0.140213
    18  C    0.135383   0.177103   1.540806  -4.113960  -3.574963   1.258166
    19  C    0.046555  -0.034403   0.358038  -0.074124  -0.622392   0.039453
    20  N    0.000835   0.000347   0.042077  -0.055146  -0.114779   0.171093
    21  O   -0.047218  -0.089150  -0.040364   0.250202   0.416066  -0.007814
    22  H    0.397006  -0.056422   0.014311   0.006155   0.004209  -0.000123
    23  H    0.432606  -0.039030  -0.017409  -0.012138  -0.030233   0.000431
    24  H    0.404266  -0.042028  -0.003112  -0.009387   0.022946   0.000204
    25  H    0.001471  -0.003205   0.021600   0.274671  -0.039646   0.005198
    26  H   -0.000066   0.000033  -0.014295   0.003990  -0.002256  -0.079205
    27  H   -0.000000   0.000000  -0.000001   0.000006   0.000125   0.001466
    28  H   -0.000000  -0.000000  -0.000001  -0.000003  -0.000155  -0.002312
    29  H    0.000000  -0.000000  -0.000001  -0.000001   0.000040  -0.002349
    30  H   -0.000000   0.000000  -0.000002   0.000004   0.000035   0.000531
    31  H   -0.000000   0.000000  -0.000206   0.000619   0.001558   0.040082
    32  H   -0.000000   0.000000  -0.000609   0.000819   0.002248   0.051220
    33  H    0.000034  -0.000001   0.006447   0.004188   0.004260   0.059063
    34  H   -0.000027   0.000042   0.002706  -0.039077   0.030576  -0.077219
    35  H   -0.000489  -0.000054  -0.035599   0.077481   0.045479  -0.032186
               7          8          9         10         11         12
     1  C   -0.029142  -0.001139  -0.001254   0.000002  -0.000013   0.000005
     2  O    0.002652   0.000565   0.000116  -0.000000   0.000001  -0.000001
     3  C   -0.768069  -0.048955  -0.088796   0.000368  -0.001668   0.000424
     4  C    0.481644  -0.018950   0.113796  -0.000319   0.001947  -0.001525
     5  C   -0.588313  -1.297789  -0.356144   0.005117  -0.027884  -0.000809
     6  C   -0.165948  -3.575226  -1.039602  -0.099929  -0.038632  -0.014133
     7  C   11.274493   0.140083  -1.569760  -0.139974  -0.296278   0.011277
     8  C    0.140083  10.771977   1.458578  -0.269979   0.192301   0.012403
     9  C   -1.569760   1.458578   7.225457   0.394698   0.030899  -0.096295
    10  N   -0.139974  -0.269979   0.394698   7.094456  -0.012425  -0.030956
    11  C   -0.296278   0.192301   0.030899  -0.012425   5.656892  -0.024775
    12  C    0.011277   0.012403  -0.096295  -0.030956  -0.024775   5.793314
    13  S   -0.312758  -0.094290  -0.055130  -0.055667  -0.069655   0.188810
    14  C   -0.513874  -1.653928  -0.109788   0.089700  -0.085062  -0.004341
    15  C   -1.075619   1.040848   1.069808   0.214214   0.029561   0.009603
    16  C    0.983880  -0.590092  -0.619055  -0.003816   0.000746  -0.009571
    17  C   -0.728914  -0.381644  -0.111696   0.000165  -0.003160   0.000379
    18  C   -0.469618  -0.037481  -0.146457  -0.001794  -0.004821   0.011832
    19  C   -0.020583   0.079119  -0.035862   0.003631  -0.003300  -0.006538
    20  N   -0.068738  -0.067152  -0.015748  -0.000073  -0.000276   0.000074
    21  O    0.000883   0.008231   0.003633   0.000003   0.000031   0.000008
    22  H    0.000004  -0.000002   0.000000  -0.000000  -0.000000   0.000000
    23  H   -0.002165  -0.000076  -0.000016   0.000000  -0.000000   0.000000
    24  H    0.001418   0.000053   0.000006  -0.000000   0.000000  -0.000000
    25  H   -0.014538   0.000410   0.000353  -0.000000   0.000001  -0.000001
    26  H    0.363512  -0.015953   0.003751   0.000473   0.001443   0.002353
    27  H    0.012718   0.010913   0.016705  -0.074007   0.418412  -0.057413
    28  H   -0.028188  -0.020422  -0.023298  -0.041131   0.456063  -0.072151
    29  H   -0.017340  -0.005468  -0.022122   0.012967  -0.022120   0.370247
    30  H    0.001317   0.003021   0.015534   0.008893  -0.020122   0.361559
    31  H   -0.000766  -0.094481   0.017266  -0.009159  -0.003102   0.001647
    32  H    0.006027   0.011128  -0.001897   0.000468   0.000214  -0.000041
    33  H   -0.006817   0.000393   0.001171   0.000001   0.000006  -0.000000
    34  H   -0.014734  -0.008757  -0.000771  -0.000004  -0.000001  -0.000000
    35  H   -0.008727  -0.006686   0.000490  -0.000004   0.000000   0.000002
              13         14         15         16         17         18
     1  C   -0.000121   0.000509  -0.000620  -0.027124   0.008248   0.135383
     2  O   -0.000010   0.000129   0.000969  -0.005770   0.006705   0.177103
     3  C   -0.002704  -0.041018   0.007028  -0.438504   0.299709   1.540806
     4  C   -0.010038   0.092122  -0.488558  -0.514472  -0.306561  -4.113960
     5  C   -0.075700   0.398892  -1.554246  -0.296039   0.176275  -3.574963
     6  C   -0.213267   1.296137  -3.564666  -3.219019   0.140213   1.258166
     7  C   -0.312758  -0.513874  -1.075619   0.983880  -0.728914  -0.469618
     8  C   -0.094290  -1.653928   1.040848  -0.590092  -0.381644  -0.037481
     9  C   -0.055130  -0.109788   1.069808  -0.619055  -0.111696  -0.146457
    10  N   -0.055667   0.089700   0.214214  -0.003816   0.000165  -0.001794
    11  C   -0.069655  -0.085062   0.029561   0.000746  -0.003160  -0.004821
    12  C    0.188810  -0.004341   0.009603  -0.009571   0.000379   0.011832
    13  S   16.324971   0.084105   0.162405  -0.015255  -0.006581   0.007466
    14  C    0.084105  10.073146  -1.438355  -2.772471   0.115342   0.028648
    15  C    0.162405  -1.438355  11.542669   0.510833  -0.447715   0.195934
    16  C   -0.015255  -2.772471   0.510833  16.905854  -0.922406  -1.231287
    17  C   -0.006581   0.115342  -0.447715  -0.922406   7.117106   0.167696
    18  C    0.007466   0.028648   0.195934  -1.231287   0.167696  13.936849
    19  C   -0.008310   0.226761  -0.279084  -1.950822   0.053215  -2.485442
    20  N   -0.004089  -0.010401   0.004743   0.098463   0.003431   0.402913
    21  O    0.000138  -0.002011   0.002408   0.065910  -0.009145  -0.306650
    22  H    0.000000   0.000000  -0.000001  -0.000002   0.000004  -0.001980
    23  H   -0.000002   0.000007  -0.000020  -0.000774   0.000213   0.016986
    24  H    0.000000  -0.000013   0.000033   0.001137  -0.000389  -0.012945
    25  H   -0.000009   0.002674   0.016961   0.005613   0.029397   0.008750
    26  H    0.027991   0.010755  -0.008699  -0.012264  -0.000930   0.020751
    27  H    0.005745  -0.010813  -0.004147   0.000057   0.000010  -0.000023
    28  H    0.020847   0.018009   0.005032  -0.000969  -0.000024   0.000005
    29  H   -0.017979   0.003673   0.000692  -0.000428   0.000001  -0.000129
    30  H   -0.049560   0.000535  -0.000168  -0.000071  -0.000000   0.000011
    31  H    0.003466   0.393029  -0.066258   0.022716   0.001370  -0.000028
    32  H    0.000183   0.048625   0.276063  -0.058715  -0.036785  -0.000175
    33  H   -0.000013  -0.018002  -0.030796  -0.208232   0.537339   0.002163
    34  H   -0.000017   0.015697   0.027676  -0.045200   0.443454   0.015529
    35  H   -0.000004  -0.007249  -0.040885  -0.050349   0.465823  -0.059319
              19         20         21         22         23         24
     1  C    0.046555   0.000835  -0.047218   0.397006   0.432606   0.404266
     2  O   -0.034403   0.000347  -0.089150  -0.056422  -0.039030  -0.042028
     3  C    0.358038   0.042077  -0.040364   0.014311  -0.017409  -0.003112
     4  C   -0.074124  -0.055146   0.250202   0.006155  -0.012138  -0.009387
     5  C   -0.622392  -0.114779   0.416066   0.004209  -0.030233   0.022946
     6  C    0.039453   0.171093  -0.007814  -0.000123   0.000431   0.000204
     7  C   -0.020583  -0.068738   0.000883   0.000004  -0.002165   0.001418
     8  C    0.079119  -0.067152   0.008231  -0.000002  -0.000076   0.000053
     9  C   -0.035862  -0.015748   0.003633   0.000000  -0.000016   0.000006
    10  N    0.003631  -0.000073   0.000003  -0.000000   0.000000  -0.000000
    11  C   -0.003300  -0.000276   0.000031  -0.000000  -0.000000   0.000000
    12  C   -0.006538   0.000074   0.000008   0.000000   0.000000  -0.000000
    13  S   -0.008310  -0.004089   0.000138   0.000000  -0.000002   0.000000
    14  C    0.226761  -0.010401  -0.002011   0.000000   0.000007  -0.000013
    15  C   -0.279084   0.004743   0.002408  -0.000001  -0.000020   0.000033
    16  C   -1.950822   0.098463   0.065910  -0.000002  -0.000774   0.001137
    17  C    0.053215   0.003431  -0.009145   0.000004   0.000213  -0.000389
    18  C   -2.485442   0.402913  -0.306650  -0.001980   0.016986  -0.012945
    19  C   11.214748  -0.241820  -0.333397   0.000847   0.007470  -0.008634
    20  N   -0.241820   7.455385  -0.016758  -0.000006   0.000042   0.000057
    21  O   -0.333397  -0.016758   8.409424  -0.001601   0.003429   0.005053
    22  H    0.000847  -0.000006  -0.001601   0.534534  -0.028416  -0.028091
    23  H    0.007470   0.000042   0.003429  -0.028416   0.540647  -0.037060
    24  H   -0.008634   0.000057   0.005053  -0.028091  -0.037060   0.540647
    25  H   -0.001391  -0.000040   0.009962   0.000000   0.000003  -0.000005
    26  H   -0.012221   0.003478  -0.000859   0.000000   0.000000  -0.000000
    27  H    0.000016  -0.000000  -0.000000  -0.000000   0.000000  -0.000000
    28  H    0.000004  -0.000001   0.000000   0.000000  -0.000000  -0.000000
    29  H    0.000115  -0.000002   0.000000  -0.000000  -0.000000   0.000000
    30  H    0.000000   0.000002   0.000000   0.000000  -0.000000   0.000000
    31  H    0.000233  -0.000003  -0.000000  -0.000000  -0.000000  -0.000000
    32  H    0.000367   0.000002  -0.000001   0.000000  -0.000000  -0.000000
    33  H    0.001568  -0.000000  -0.000019   0.000000  -0.000000   0.000000
    34  H   -0.003322   0.000023  -0.000071  -0.000000   0.000000  -0.000000
    35  H    0.003209  -0.000203   0.000618  -0.000000   0.000000  -0.000000
              25         26         27         28         29         30
     1  C    0.001471  -0.000066  -0.000000  -0.000000   0.000000  -0.000000
     2  O   -0.003205   0.000033   0.000000  -0.000000  -0.000000   0.000000
     3  C    0.021600  -0.014295  -0.000001  -0.000001  -0.000001  -0.000002
     4  C    0.274671   0.003990   0.000006  -0.000003  -0.000001   0.000004
     5  C   -0.039646  -0.002256   0.000125  -0.000155   0.000040   0.000035
     6  C    0.005198  -0.079205   0.001466  -0.002312  -0.002349   0.000531
     7  C   -0.014538   0.363512   0.012718  -0.028188  -0.017340   0.001317
     8  C    0.000410  -0.015953   0.010913  -0.020422  -0.005468   0.003021
     9  C    0.000353   0.003751   0.016705  -0.023298  -0.022122   0.015534
    10  N   -0.000000   0.000473  -0.074007  -0.041131   0.012967   0.008893
    11  C    0.000001   0.001443   0.418412   0.456063  -0.022120  -0.020122
    12  C   -0.000001   0.002353  -0.057413  -0.072151   0.370247   0.361559
    13  S   -0.000009   0.027991   0.005745   0.020847  -0.017979  -0.049560
    14  C    0.002674   0.010755  -0.010813   0.018009   0.003673   0.000535
    15  C    0.016961  -0.008699  -0.004147   0.005032   0.000692  -0.000168
    16  C    0.005613  -0.012264   0.000057  -0.000969  -0.000428  -0.000071
    17  C    0.029397  -0.000930   0.000010  -0.000024   0.000001  -0.000000
    18  C    0.008750   0.020751  -0.000023   0.000005  -0.000129   0.000011
    19  C   -0.001391  -0.012221   0.000016   0.000004   0.000115   0.000000
    20  N   -0.000040   0.003478  -0.000000  -0.000001  -0.000002   0.000002
    21  O    0.009962  -0.000859  -0.000000   0.000000   0.000000   0.000000
    22  H    0.000000   0.000000  -0.000000   0.000000  -0.000000   0.000000
    23  H    0.000003   0.000000   0.000000  -0.000000  -0.000000  -0.000000
    24  H   -0.000005  -0.000000  -0.000000  -0.000000   0.000000   0.000000
    25  H    0.536704   0.000007   0.000000  -0.000000   0.000000  -0.000000
    26  H    0.000007   0.572066   0.000000  -0.000001  -0.000008   0.000002
    27  H    0.000000   0.000000   0.574885  -0.036794  -0.007313   0.001736
    28  H   -0.000000  -0.000001  -0.036794   0.569612   0.004541  -0.005918
    29  H    0.000000  -0.000008  -0.007313   0.004541   0.548151  -0.032618
    30  H   -0.000000   0.000002   0.001736  -0.005918  -0.032618   0.534740
    31  H   -0.000000  -0.000150   0.000001  -0.000017  -0.000000   0.000000
    32  H    0.000000   0.000019   0.000000   0.000000  -0.000000   0.000000
    33  H    0.000056   0.000002  -0.000000   0.000000  -0.000000  -0.000000
    34  H   -0.000002   0.000001   0.000000  -0.000000   0.000000  -0.000000
    35  H   -0.000314  -0.000008  -0.000000   0.000000  -0.000000   0.000000
              31         32         33         34         35
     1  C   -0.000000  -0.000000   0.000034  -0.000027  -0.000489
     2  O    0.000000   0.000000  -0.000001   0.000042  -0.000054
     3  C   -0.000206  -0.000609   0.006447   0.002706  -0.035599
     4  C    0.000619   0.000819   0.004188  -0.039077   0.077481
     5  C    0.001558   0.002248   0.004260   0.030576   0.045479
     6  C    0.040082   0.051220   0.059063  -0.077219  -0.032186
     7  C   -0.000766   0.006027  -0.006817  -0.014734  -0.008727
     8  C   -0.094481   0.011128   0.000393  -0.008757  -0.006686
     9  C    0.017266  -0.001897   0.001171  -0.000771   0.000490
    10  N   -0.009159   0.000468   0.000001  -0.000004  -0.000004
    11  C   -0.003102   0.000214   0.000006  -0.000001   0.000000
    12  C    0.001647  -0.000041  -0.000000  -0.000000   0.000002
    13  S    0.003466   0.000183  -0.000013  -0.000017  -0.000004
    14  C    0.393029   0.048625  -0.018002   0.015697  -0.007249
    15  C   -0.066258   0.276063  -0.030796   0.027676  -0.040885
    16  C    0.022716  -0.058715  -0.208232  -0.045200  -0.050349
    17  C    0.001370  -0.036785   0.537339   0.443454   0.465823
    18  C   -0.000028  -0.000175   0.002163   0.015529  -0.059319
    19  C    0.000233   0.000367   0.001568  -0.003322   0.003209
    20  N   -0.000003   0.000002  -0.000000   0.000023  -0.000203
    21  O   -0.000000  -0.000001  -0.000019  -0.000071   0.000618
    22  H   -0.000000   0.000000   0.000000  -0.000000  -0.000000
    23  H   -0.000000  -0.000000  -0.000000   0.000000   0.000000
    24  H   -0.000000  -0.000000   0.000000  -0.000000  -0.000000
    25  H   -0.000000   0.000000   0.000056  -0.000002  -0.000314
    26  H   -0.000150   0.000019   0.000002   0.000001  -0.000008
    27  H    0.000001   0.000000  -0.000000   0.000000  -0.000000
    28  H   -0.000017   0.000000   0.000000  -0.000000   0.000000
    29  H   -0.000000  -0.000000  -0.000000   0.000000  -0.000000
    30  H    0.000000   0.000000  -0.000000  -0.000000   0.000000
    31  H    0.538824  -0.004612  -0.000007   0.000002   0.000002
    32  H   -0.004612   0.575763   0.003329   0.000276   0.000133
    33  H   -0.000007   0.003329   0.543687  -0.027174  -0.024489
    34  H    0.000002   0.000276  -0.027174   0.546121  -0.030099
    35  H    0.000002   0.000133  -0.024489  -0.030099   0.534026
 Mulliken charges:
               1
     1  C   -0.170804
     2  O   -0.393824
     3  C    0.127410
     4  C    0.100958
     5  C    0.047869
     6  C   -0.482242
     7  C   -0.439044
     8  C    0.458447
     9  C   -0.058569
    10  N   -0.085919
    11  C   -0.175223
    12  C   -0.445390
    13  S    0.165032
    14  C   -0.231172
    15  C   -0.117644
    16  C    0.397499
    17  C   -0.610144
    18  C    0.520084
    19  C    0.086297
    20  N   -0.587728
    21  O   -0.320941
    22  H    0.159574
    23  H    0.165505
    24  H    0.165844
    25  H    0.145319
    26  H    0.136287
    27  H    0.147715
    28  H    0.157269
    29  H    0.187450
    30  H    0.180539
    31  H    0.157973
    32  H    0.125952
    33  H    0.151845
    34  H    0.164373
    35  H    0.169402
 Sum of Mulliken charges =  -0.00000
 Mulliken charges with hydrogens summed into heavy atoms:
               1
     1  C    0.320120
     2  O   -0.393824
     3  C    0.127410
     4  C    0.246278
     5  C    0.047869
     6  C   -0.482242
     7  C   -0.302757
     8  C    0.458447
     9  C   -0.058569
    10  N   -0.085919
    11  C    0.129761
    12  C   -0.077401
    13  S    0.165032
    14  C   -0.073199
    15  C    0.008309
    16  C    0.397499
    17  C   -0.124523
    18  C    0.520084
    19  C    0.086297
    20  N   -0.587728
    21  O   -0.320941
 Electronic spatial extent (au):  <R**2>=           8366.9602
 Charge=             -0.0000 electrons
 Dipole moment (field-independent basis, Debye):
    X=             -2.3105    Y=              1.4582    Z=             -3.3308  Tot=              4.3080
 Quadrupole moment (field-independent basis, Debye-Ang):
   XX=            -94.7535   YY=           -126.0904   ZZ=           -141.4600
   XY=             -2.7302   XZ=              1.8684   YZ=             11.0706
 Traceless Quadrupole moment (field-independent basis, Debye-Ang):
   XX=             26.0145   YY=             -5.3224   ZZ=            -20.6920
   XY=             -2.7302   XZ=              1.8684   YZ=             11.0706
 Octapole moment (field-independent basis, Debye-Ang**2):
  XXX=            -81.2982  YYY=             25.6780  ZZZ=            -39.2304  XYY=            -16.3326
  XXY=           -106.2866  XXZ=            -24.5935  XZZ=              0.3455  YZZ=             17.8253
  YYZ=            -22.2453  XYZ=             -4.9401
 Hexadecapole moment (field-independent basis, Debye-Ang**3):
 XXXX=          -6797.6195 YYYY=          -2186.9368 ZZZZ=           -815.3679 XXXY=             91.6596
 XXXZ=             27.8620 YYYX=             11.5493 YYYZ=             88.4176 ZZZX=             32.9486
 ZZZY=             75.7644 XXYY=          -1628.5321 XXZZ=          -1501.0866 YYZZ=           -561.0080
 XXYZ=             90.2386 YYXZ=             47.2122 ZZXY=            -24.2643
 N-N= 1.661639369331D+03 E-N=-6.308543739281D+03  KE= 1.266692339309D+03
 Unable to Open any file for archive entry.
 1\1\GINC-N1\SP\RB3LYP TD-FC\6-31+G(d,p)\C16H14N2O2S1\HPCMGAC13\25-Aug-
 2025\0\\# td=(50-50,nstates=3) b3lyp/6-31+g(d,p) geom=connectivity\\Ti
 tle Card Required\\0,1\C,0,-5.833069,-1.52609,-0.797679\O,0,-5.009481,
 -0.427852,-1.23686\C,0,-3.814203,-0.277815,-0.672368\C,0,-2.838741,0.6
 51608,-0.924556\C,0,-1.756825,0.339874,-0.040848\C,0,-0.443185,1.01583
 3,0.052084\C,0,0.718588,0.24179,-0.09285\C,0,1.993912,0.814801,-0.0307
 09\C,0,3.221975,0.007809,-0.192762\N,0,4.388001,0.521366,-0.287372\C,0
 ,5.449713,-0.47829,-0.330047\C,0,4.874975,-1.842504,-0.772252\S,0,3.11
 9631,-1.799663,-0.231734\C,0,2.097351,2.197765,0.185997\C,0,0.949265,2
 .967223,0.336591\C,0,-0.336195,2.40752,0.273556\C,0,-1.545158,3.293618
 ,0.466176\C,0,-2.161625,-0.758473,0.691198\C,0,-1.571325,-1.500486,1.7
 32102\N,0,-1.086449,-2.115286,2.597326\O,0,-3.442317,-1.140486,0.29705
 7\H,0,-6.742577,-1.45172,-1.391855\H,0,-5.333412,-2.480387,-0.984682\H
 ,0,-6.065133,-1.431817,0.266478\H,0,-2.8814,1.431676,-1.667785\H,0,0.6
 14444,-0.822017,-0.28032\H,0,6.245163,-0.147618,-1.005485\H,0,5.884694
 ,-0.547568,0.677722\H,0,4.907946,-1.966892,-1.858518\H,0,5.383188,-2.6
 85081,-0.299785\H,0,3.081987,2.648717,0.238385\H,0,1.046917,4.034139,0
 .519582\H,0,-1.256205,4.238089,0.935056\H,0,-2.025866,3.53707,-0.48887
 3\H,0,-2.303051,2.81705,1.09479\\Version=ES64L-G16RevC.02\State=1-A\HF
 =-1276.2769306\RMSD=7.848e-09\PG=C01 [X(C16H14N2O2S1)]\\@
 The archive entry for this job was punched.


 A warm smile is the universal language of kindness.
                             -- William Arthur Ward
 Job cpu time:       0 days  1 hours 29 minutes 30.0 seconds.
 Elapsed time:       0 days  0 hours  5 minutes 45.0 seconds.
 File lengths (MBytes):  RWF=   1250 Int=      0 D2E=      0 Chk=     58 Scr=      2
 Normal termination of Gaussian 16 at Mon Aug 25 10:32:11 2025.
