 Entering Gaussian System, Link 0=g16
 Input=M1255e.gjf
 Output=M1255e.log
 Initial command:
 /hpc/softwares/Gaussian/g16/l1.exe "/hpc/home/hpcmgac13/pbs.14245.admin1.x8z/Gau-24897.inp" -scrdir="/hpc/home/hpcmgac13/pbs.14245.admin1.x8z/"
 Default linda workers: n2
 Default is to use   8 SMP processors on each worker.
 Entering Link 1 = /hpc/softwares/Gaussian/g16/l1.exe PID=     24898.
  
 Copyright (c) 1988-2021, Gaussian, Inc.  All Rights Reserved.
  
 This is part of the Gaussian(R) 16 program.  It is based on
 the Gaussian(R) 09 system (copyright 2009, Gaussian, Inc.),
 the Gaussian(R) 03 system (copyright 2003, Gaussian, Inc.),
 the Gaussian(R) 98 system (copyright 1998, Gaussian, Inc.),
 the Gaussian(R) 94 system (copyright 1995, Gaussian, Inc.),
 the Gaussian 92(TM) system (copyright 1992, Gaussian, Inc.),
 the Gaussian 90(TM) system (copyright 1990, Gaussian, Inc.),
 the Gaussian 88(TM) system (copyright 1988, Gaussian, Inc.),
 the Gaussian 86(TM) system (copyright 1986, Carnegie Mellon
 University), and the Gaussian 82(TM) system (copyright 1983,
 Carnegie Mellon University). Gaussian is a federally registered
 trademark of Gaussian, Inc.
  
 This software contains proprietary and confidential information,
 including trade secrets, belonging to Gaussian, Inc.
  
 This software is provided under written license and may be
 used, copied, transmitted, or stored only in accord with that
 written license.
  
 The following legend is applicable only to US Government
 contracts under FAR:
  
                    RESTRICTED RIGHTS LEGEND
  
 Use, reproduction and disclosure by the US Government is
 subject to restrictions as set forth in subparagraphs (a)
 and (c) of the Commercial Computer Software - Restricted
 Rights clause in FAR 52.227-19.
  
 Gaussian, Inc.
 340 Quinnipiac St., Bldg. 40, Wallingford CT 06492
  
  
 ---------------------------------------------------------------
 Warning -- This program may not be used in any manner that
 competes with the business of Gaussian, Inc. or will provide
 assistance to any competitor of Gaussian, Inc.  The licensee
 of this program is prohibited from giving any competitor of
 Gaussian, Inc. access to this program.  By using this program,
 the user acknowledges that Gaussian, Inc. is engaged in the
 business of creating and licensing software in the field of
 computational chemistry and represents and warrants to the
 licensee that it is not a competitor of Gaussian, Inc. and that
 it will not use this program in any manner prohibited above.
 ---------------------------------------------------------------
  

 Cite this work as:
 Gaussian 16, Revision C.02,
 M. J. Frisch, G. W. Trucks, H. B. Schlegel, G. E. Scuseria, 
 M. A. Robb, J. R. Cheeseman, G. Scalmani, V. Barone, 
 G. A. Petersson, H. Nakatsuji, X. Li, M. Caricato, A. V. Marenich, 
 J. Bloino, B. G. Janesko, R. Gomperts, B. Mennucci, H. P. Hratchian, 
 J. V. Ortiz, A. F. Izmaylov, J. L. Sonnenberg, D. Williams-Young, 
 F. Ding, F. Lipparini, F. Egidi, J. Goings, B. Peng, A. Petrone, 
 T. Henderson, D. Ranasinghe, V. G. Zakrzewski, J. Gao, N. Rega, 
 G. Zheng, W. Liang, M. Hada, M. Ehara, K. Toyota, R. Fukuda, 
 J. Hasegawa, M. Ishida, T. Nakajima, Y. Honda, O. Kitao, H. Nakai, 
 T. Vreven, K. Throssell, J. A. Montgomery, Jr., J. E. Peralta, 
 F. Ogliaro, M. J. Bearpark, J. J. Heyd, E. N. Brothers, K. N. Kudin, 
 V. N. Staroverov, T. A. Keith, R. Kobayashi, J. Normand, 
 K. Raghavachari, A. P. Rendell, J. C. Burant, S. S. Iyengar, 
 J. Tomasi, M. Cossi, J. M. Millam, M. Klene, C. Adamo, R. Cammi, 
 J. W. Ochterski, R. L. Martin, K. Morokuma, O. Farkas, 
 J. B. Foresman, and D. J. Fox, Gaussian, Inc., Wallingford CT, 2019.
 
 ******************************************
 Gaussian 16:  ES64L-G16RevC.02  7-Dec-2021
                24-Sep-2025 
 ******************************************
 SetLPE:    new flags="-opt 'Tsnet.Node.lindarsharg: ssh'  -nodelist 'n2.head.cm.mguif.local' -env GAUSS_MDEF=1342177280 -env GAUSS_EXEDIR="/hpc/softwares/Gaussian/g16/bsd:/hpc/softwares/Gaussian/g16""
 Will use up to    1 processors via Linda.
 ----------------------------------------------------------
 # td=(50-50,nstates=3) b3lyp/6-31+g(d,p) geom=connectivity
 ----------------------------------------------------------
 1/38=1,57=2,172=1/1;
 2/12=2,17=6,18=5,40=1/2;
 3/5=1,6=6,7=111,11=9,25=1,30=1,74=-5/1,2,3,8;
 4//1;
 5/5=2,38=5/2;
 8/6=1,10=2,108=3/1;
 9/41=3,42=1,48=2,70=2/14;
 6/7=2,8=2,9=2,10=2/1;
 99/5=1,9=1/99;
 -------------------
 Title Card Required
 -------------------
 Symbolic Z-matrix:
 Charge =  0 Multiplicity = 1
 Cl                    4.38683   0.34364  -0.92316 
 C                     3.44904  -0.8579    0.0656 
 C                     2.07171  -0.3784    0.34993 
 N                     0.96836  -0.71435  -0.2493 
 C                     0.02663   0.03686   0.42683 
 C                    -1.41042   0.01711   0.10169 
 C                    -2.14724   1.18684  -0.1291 
 F                    -1.51317   2.37582  -0.05827 
 C                    -3.49785   1.17919  -0.4534 
 C                    -4.15508  -0.0482   -0.55264 
 C                    -3.47004  -1.2449   -0.33129 
 C                    -2.12094  -1.18569  -0.01126 
 F                    -1.46479  -2.34236   0.22763 
 N                     0.51846   0.7845    1.38933 
 O                     1.88975   0.51116   1.34217 
 H                     3.39424  -1.78027  -0.50932 
 H                     4.00782  -1.01052   0.98878 
 H                    -4.00693   2.12025  -0.6261 
 H                    -5.21047  -0.0728   -0.80378 
 H                    -3.95986  -2.20954  -0.39573 
 
                          Input orientation:                          
 ---------------------------------------------------------------------
 Center     Atomic      Atomic             Coordinates (Angstroms)
 Number     Number       Type             X           Y           Z
 ---------------------------------------------------------------------
      1         17           0        4.386832    0.343641   -0.923163
      2          6           0        3.449039   -0.857897    0.065597
      3          6           0        2.071712   -0.378399    0.349932
      4          7           0        0.968361   -0.714353   -0.249303
      5          6           0        0.026632    0.036863    0.426832
      6          6           0       -1.410423    0.017114    0.101687
      7          6           0       -2.147240    1.186837   -0.129102
      8          9           0       -1.513167    2.375821   -0.058270
      9          6           0       -3.497851    1.179185   -0.453399
     10          6           0       -4.155077   -0.048200   -0.552636
     11          6           0       -3.470037   -1.244896   -0.331289
     12          6           0       -2.120939   -1.185690   -0.011262
     13          9           0       -1.464790   -2.342360    0.227626
     14          7           0        0.518463    0.784498    1.389334
     15          8           0        1.889751    0.511164    1.342168
     16          1           0        3.394240   -1.780274   -0.509319
     17          1           0        4.007821   -1.010520    0.988777
     18          1           0       -4.006934    2.120252   -0.626104
     19          1           0       -5.210469   -0.072801   -0.803780
     20          1           0       -3.959855   -2.209536   -0.395733
 ---------------------------------------------------------------------
                    Distance matrix (angstroms):
                    1          2          3          4          5
     1  Cl   0.000000
     2  C    1.816809   0.000000
     3  C    2.738958   1.485865   0.000000
     4  N    3.641344   2.504702   1.299743   0.000000
     5  C    4.574707   3.555834   2.088231   1.381426   0.000000
     6  C    5.896194   4.937744   3.513306   2.513335   1.473512
     7  C    6.635933   5.961307   4.525372   3.651841   2.521353
     8  F    6.299824   5.924168   4.539131   3.967827   2.842012
     9  C    7.942735   7.257985   5.838788   4.855326   3.808108
    10  C    8.558916   7.672053   6.300521   5.175460   4.295729
    11  C    8.037671   6.941246   5.650297   4.470747   3.800572
    12  C    6.746962   5.580144   4.284916   3.134102   2.509706
    13  F    6.540672   5.135718   4.047091   2.966158   2.815089
    14  N    4.528386   3.610819   2.201197   2.265854   1.314255
    15  O    3.375678   2.436255   1.344977   2.209894   2.129322
    16  H    2.380656   1.088260   2.110129   2.662458   3.939435
    17  H    2.373376   1.089859   2.134530   3.295281   4.154836
    18  H    8.584864   8.058496   6.644234   5.738512   4.660347
    19  H    9.607074   8.738379   7.379336   6.236744   5.380860
    20  H    8.744374   7.545294   6.347352   5.152119   4.649194
                    6          7          8          9         10
     6  C    0.000000
     7  C    1.401576   0.000000
     8  F    2.366356   1.349351   0.000000
     9  C    2.452730   1.389020   2.350965   0.000000
    10  C    2.822327   2.395017   3.619387   1.395804   0.000000
    11  C    2.454006   2.775607   4.124739   2.427314   1.396551
    12  C    1.401545   2.375597   3.613303   2.772004   2.392632
    13  F    2.363458   3.612233   4.727082   4.122913   3.620721
    14  N    2.442850   3.094107   2.958950   4.436465   5.128997
    15  O    3.560060   4.349536   4.125291   5.718091   6.359490
    16  H    5.166113   6.297326   6.446644   7.500829   7.745589
    17  H    5.585725   6.630445   6.560863   7.950459   8.362710
    18  H    3.419757   2.139331   2.570336   1.083789   2.174748
    19  H    3.907468   3.380126   4.496841   2.150185   1.085141
    20  H    3.421257   3.859017   5.208230   3.420556   2.175800
                   11         12         13         14         15
    11  C    0.000000
    12  C    1.387800   0.000000
    13  F    2.353259   1.351105   0.000000
    14  N    4.794488   3.579072   3.880734   0.000000
    15  O    5.883157   4.560342   4.542879   1.399059   0.000000
    16  H    6.887425   5.569452   4.946635   4.295699   3.307897
    17  H    7.597096   6.212283   5.683539   3.944383   2.631849
    18  H    3.420438   3.855420   5.206367   5.130833   6.421382
    19  H    2.150851   3.378136   4.499423   6.193979   7.440378
    20  H    1.083792   2.139554   2.575183   5.675036   6.681347
                   16         17         18         19         20
    16  H    0.000000
    17  H    1.792566   0.000000
    18  H    8.366906   8.754763   0.000000
    19  H    8.777425   9.437661   2.507897   0.000000
    20  H    7.367488   8.175474   4.336168   2.509218   0.000000
 Stoichiometry    C9H5ClF2N2O
 Framework group  C1[X(C9H5ClF2N2O)]
 Deg. of freedom    54
 Full point group                 C1      NOp   1
 Largest Abelian subgroup         C1      NOp   1
 Largest concise Abelian subgroup C1      NOp   1
                         Standard orientation:                         
 ---------------------------------------------------------------------
 Center     Atomic      Atomic             Coordinates (Angstroms)
 Number     Number       Type             X           Y           Z
 ---------------------------------------------------------------------
      1         17           0       -4.386832   -0.343641   -0.923163
      2          6           0       -3.449039    0.857897    0.065597
      3          6           0       -2.071712    0.378399    0.349932
      4          7           0       -0.968361    0.714353   -0.249303
      5          6           0       -0.026632   -0.036863    0.426832
      6          6           0        1.410423   -0.017114    0.101687
      7          6           0        2.147240   -1.186837   -0.129102
      8          9           0        1.513167   -2.375821   -0.058270
      9          6           0        3.497851   -1.179185   -0.453399
     10          6           0        4.155077    0.048200   -0.552636
     11          6           0        3.470037    1.244896   -0.331289
     12          6           0        2.120939    1.185690   -0.011262
     13          9           0        1.464790    2.342360    0.227626
     14          7           0       -0.518463   -0.784498    1.389334
     15          8           0       -1.889751   -0.511164    1.342168
     16          1           0       -3.394240    1.780274   -0.509319
     17          1           0       -4.007821    1.010520    0.988777
     18          1           0        4.006934   -2.120252   -0.626104
     19          1           0        5.210469    0.072801   -0.803780
     20          1           0        3.959855    2.209536   -0.395733
 ---------------------------------------------------------------------
 Rotational constants (GHZ):           1.1749753           0.2738193           0.2437843
 Standard basis: 6-31+G(d,p) (6D, 7F)
 There are   314 symmetry adapted cartesian basis functions of A   symmetry.
 There are   314 symmetry adapted basis functions of A   symmetry.
   314 basis functions,   539 primitive gaussians,   314 cartesian basis functions
    58 alpha electrons       58 beta electrons
       nuclear repulsion energy      1040.2550961372 Hartrees.
 NAtoms=   20 NActive=   20 NUniq=   20 SFac= 1.00D+00 NAtFMM=   60 NAOKFM=F Big=F
 Integral buffers will be    131072 words long.
 Regular integral format.
 Two-electron integral symmetry is turned on.
 One-electron integrals computed using PRISM.
 NBasis=   314 RedAO= T EigKep=  2.66D-06  NBF=   314
 NBsUse=   313 1.00D-06 EigRej=  5.99D-07 NBFU=   313
 ExpMin= 4.38D-02 ExpMax= 2.52D+04 ExpMxC= 3.78D+03 IAcc=3 IRadAn=         5 AccDes= 0.00D+00
 Harris functional with IExCor=  402 and IRadAn=       5 diagonalized for initial guess.
 HarFok:  IExCor=  402 AccDes= 0.00D+00 IRadAn=         5 IDoV= 1 UseB2=F ITyADJ=14
 ICtDFT=  3500011 ScaDFX=  1.000000  1.000000  1.000000  1.000000
 FoFCou: FMM=F IPFlag=           0 FMFlag=      100000 FMFlg1=           0
         NFxFlg=           0 DoJE=T BraDBF=F KetDBF=T FulRan=T
         wScrn=  0.000000 ICntrl=       500 IOpCl=  0 I1Cent=   200000004 NGrid=           0
         NMat0=    1 NMatS0=      1 NMatT0=    0 NMatD0=    1 NMtDS0=    0 NMtDT0=    0
 Petite list used in FoFCou.
 Requested convergence on RMS density matrix=1.00D-08 within 128 cycles.
 Requested convergence on MAX density matrix=1.00D-06.
 Requested convergence on             energy=1.00D-06.
 No special actions if energy rises.
 SCF Done:  E(RB3LYP) =  -1190.56104069     A.U. after   15 cycles
            NFock= 15  Conv=0.58D-08     -V/T= 2.0066
 DoSCS=F DFT=T ScalE2(SS,OS)=  1.000000  1.000000
 ExpMin= 4.38D-02 ExpMax= 2.52D+04 ExpMxC= 3.78D+03 IAcc=3 IRadAn=         5 AccDes= 0.00D+00
 HarFok:  IExCor=  205 AccDes= 0.00D+00 IRadAn=         5 IDoV=-2 UseB2=F ITyADJ=14
 ICtDFT= 12500011 ScaDFX=  1.000000  1.000000  1.000000  1.000000
 Range of M.O.s used for correlation:    20   313
 NBasis=   314 NAE=    58 NBE=    58 NFC=    19 NFV=     0
 NROrb=    294 NOA=    39 NOB=    39 NVA=   255 NVB=   255

 **** Warning!!: The largest alpha MO coefficient is  0.14251853D+03

 Orbital symmetries:
       Occupied  (A) (A) (A) (A) (A) (A) (A) (A) (A) (A) (A) (A)
                 (A) (A) (A) (A) (A) (A) (A) (A) (A) (A) (A) (A)
                 (A) (A) (A) (A) (A) (A) (A) (A) (A) (A) (A) (A)
                 (A) (A) (A) (A) (A) (A) (A) (A) (A) (A) (A) (A)
                 (A) (A) (A) (A) (A) (A) (A) (A) (A) (A)
       Virtual   (A) (A) (A) (A) (A) (A) (A) (A) (A) (A) (A) (A)
                 (A) (A) (A) (A) (A) (A) (A) (A) (A) (A) (A) (A)
                 (A) (A) (A) (A) (A) (A) (A) (A) (A) (A) (A) (A)
                 (A) (A) (A) (A) (A) (A) (A) (A) (A) (A) (A) (A)
                 (A) (A) (A) (A) (A) (A) (A) (A) (A) (A) (A) (A)
                 (A) (A) (A) (A) (A) (A) (A) (A) (A) (A) (A) (A)
                 (A) (A) (A) (A) (A) (A) (A) (A) (A) (A) (A) (A)
                 (A) (A) (A) (A) (A) (A) (A) (A) (A) (A) (A) (A)
                 (A) (A) (A) (A) (A) (A) (A) (A) (A) (A) (A) (A)
                 (A) (A) (A) (A) (A) (A) (A) (A) (A) (A) (A) (A)
                 (A) (A) (A) (A) (A) (A) (A) (A) (A) (A) (A) (A)
                 (A) (A) (A) (A) (A) (A) (A) (A) (A) (A) (A) (A)
                 (A) (A) (A) (A) (A) (A) (A) (A) (A) (A) (A) (A)
                 (A) (A) (A) (A) (A) (A) (A) (A) (A) (A) (A) (A)
                 (A) (A) (A) (A) (A) (A) (A) (A) (A) (A) (A) (A)
                 (A) (A) (A) (A) (A) (A) (A) (A) (A) (A) (A) (A)
                 (A) (A) (A) (A) (A) (A) (A) (A) (A) (A) (A) (A)
                 (A) (A) (A) (A) (A) (A) (A) (A) (A) (A) (A) (A)
                 (A) (A) (A) (A) (A) (A) (A) (A) (A) (A) (A) (A)
                 (A) (A) (A) (A) (A) (A) (A) (A) (A) (A) (A) (A)
                 (A) (A) (A) (A) (A) (A) (A) (A) (A) (A) (A) (A)
                 (A) (A) (A)
    24 initial guesses have been made.
 Convergence on wavefunction:    0.001000000000000
 Iteration     1 Dimension    24 NMult     0 NNew     24
 CISAX will form    24 AO SS matrices at one time.
 New state      1 was old state      4
 New state      3 was old state     12
 New state      4 was old state      8
 New state      5 was old state      1
 New state      7 was old state      3
 New state      8 was old state     18
 New state      9 was old state     16
 New state     10 was old state      5
 New state     11 was old state     10
 New state     12 was old state     17
 Vector   4 SDiff=2.84D-01 TDiff=1.02D+01 assumed to be singlet.
 Vector   6 SDiff=1.38D+01 TDiff=3.12D+00 assumed to be triplet.
 Vector  10 SDiff=2.79D-01 TDiff=9.77D+00 assumed to be singlet.
 Vector  12 SDiff=1.36D+01 TDiff=3.26D+00 assumed to be triplet.
 Iteration     2 Dimension    36 NMult    24 NNew     12
 New state      2 was old state      3
 New state      3 was old state      2
 New state      4 was old state      5
 New state      5 was old state      7
 New state      6 was old state     10
 Iteration     3 Dimension    48 NMult    36 NNew     12
 Iteration     4 Dimension    60 NMult    48 NNew     12
 Iteration     5 Dimension    70 NMult    60 NNew     10
 Iteration     6 Dimension    76 NMult    70 NNew      6
 Iteration     7 Dimension    78 NMult    76 NNew      2
 ***********************************************************************
 Excited states from <AA,BB:AA,BB> singles matrix:
 ***********************************************************************
 
 Ground to excited state transition densities written to RWF  633
 Ground to excited state transition electric dipole moments (Au):
       state          X           Y           Z        Dip. S.      Osc.
         1         0.0000      0.0000      0.0000      0.0000      0.0000
         2         0.0000      0.0000     -0.0000      0.0000      0.0000
         3         0.0000     -0.0000      0.0000      0.0000      0.0000
         4        -0.0386      0.3087      0.0388      0.0983      0.0115
         5         0.5236      0.1499     -0.2705      0.3698      0.0458
         6         0.0283      0.2498     -0.0056      0.0632      0.0081
 Ground to excited state transition velocity dipole moments (Au):
       state          X           Y           Z        Dip. S.      Osc.
         1        -0.0000     -0.0000      0.0000      0.0000      0.0000
         2        -0.0000      0.0000      0.0000      0.0000      0.0000
         3         0.0000      0.0000      0.0000      0.0000      0.0000
         4         0.0069     -0.0569     -0.0065      0.0033      0.0127
         5        -0.0950     -0.0269      0.0480      0.0121      0.0432
         6        -0.0052     -0.0497      0.0012      0.0025      0.0086
 Ground to excited state transition magnetic dipole moments (Au):
       state          X           Y           Z
         1        -0.0000      0.0000     -0.0000
         2         0.0000     -0.0000      0.0000
         3         0.0000     -0.0000      0.0000
         4        -0.1332      0.0216     -0.6048
         5         0.1895      0.0291      0.1334
         6        -0.0428      0.0348     -0.5242
 Ground to excited state transition velocity quadrupole moments (Au):
       state          XX          YY          ZZ          XY          XZ          YZ
         1        -0.0000     -0.0000      0.0000     -0.0000     -0.0000      0.0000
         2        -0.0000     -0.0000      0.0000      0.0000     -0.0000     -0.0000
         3         0.0000      0.0000      0.0000      0.0000      0.0000     -0.0000
         4         0.0603      0.0019     -0.0045     -0.2757     -0.0214      0.0118
         5        -0.7460     -0.0441      0.0975      0.0420     -0.0211     -0.1038
         6        -0.0564     -0.0020      0.0072     -0.2426     -0.0122      0.0189
 <0|del|b> * <b|rxdel|0> + <0|del|b> * <b|delr+rdel|0>
 Rotatory Strengths (R) in cgs (10**-40 erg-esu-cm/Gauss)
       state          XX          YY          ZZ    R(velocity)    E-M Angle
         1        -0.0000      0.0000     -0.0000     -0.0000       90.00
         2         0.0000      0.0000     -0.0000      0.0000       90.00
         3        -0.0000     -0.0000     -0.0000     -0.0000       90.00
         4         6.5494      2.5927     -2.0454      2.3656       87.18
         5        13.4294     -7.1344    -53.3896    -15.6982      118.88
         6        -5.9616     -0.3937     -1.4702     -2.6085       94.66
 1/2[<0|r|b>*<b|rxdel|0> + (<0|rxdel|b>*<b|r|0>)*]
 Rotatory Strengths (R) in cgs (10**-40 erg-esu-cm/Gauss)
       state          XX          YY          ZZ     R(length)
         1         0.0000     -0.0000      0.0000      0.0000
         2        -0.0000      0.0000      0.0000      0.0000
         3        -0.0000     -0.0000     -0.0000     -0.0000
         4        -3.6362     -4.7060     16.5748      2.7442
         5       -70.1504     -3.0865     25.5179    -15.9064
         6         0.8550     -6.1477     -2.0838     -2.4588
  1/2[<0|del|b>*<b|r|0> + (<0|r|b>*<b|del|0>)*] (Au)
       state          X           Y           Z        Dip. S.   Osc.(frdel)
         1        -0.0000     -0.0000      0.0000      0.0000      0.0000
         2        -0.0000      0.0000     -0.0000      0.0000      0.0000
         3         0.0000     -0.0000      0.0000     -0.0000     -0.0000
         4        -0.0003     -0.0176     -0.0003      0.0181      0.0121
         5        -0.0497     -0.0040     -0.0130      0.0668      0.0445
         6        -0.0001     -0.0124     -0.0000      0.0126      0.0084

 Excitation energies and oscillator strengths:
 
 Excited State   1:      Triplet-A      3.5591 eV  348.36 nm  f=0.0000  <S**2>=2.000
      56 -> 59         0.13463
      57 -> 59         0.46761
      57 -> 60         0.35387
      58 -> 61         0.32503
 This state for optimization and/or second-order correction.
 Total Energy, E(TD-HF/TD-DFT) =  -1190.43024795    
 Copying the excited state density for this state as the 1-particle RhoCI density.
 
 Excited State   2:      Triplet-A      3.9965 eV  310.23 nm  f=0.0000  <S**2>=2.000
      53 -> 59        -0.20804
      56 -> 59         0.40786
      57 -> 59         0.24284
      57 -> 60        -0.24183
      57 -> 62        -0.11067
      57 -> 64         0.11867
      58 -> 61        -0.33554
 
 Excited State   3:      Triplet-A      4.1709 eV  297.26 nm  f=0.0000  <S**2>=2.000
      57 -> 61         0.11954
      58 -> 59         0.49630
      58 -> 60         0.47840
 
 Excited State   4:      Singlet-A      4.7725 eV  259.79 nm  f=0.0115  <S**2>=0.000
      57 -> 61        -0.17659
      58 -> 59         0.67434
      58 -> 60         0.10516
 
 Excited State   5:      Singlet-A      5.0602 eV  245.02 nm  f=0.0458  <S**2>=0.000
      56 -> 59        -0.10504
      57 -> 59         0.67572
      57 -> 60        -0.13175
 
 Excited State   6:      Singlet-A      5.2558 eV  235.90 nm  f=0.0081  <S**2>=0.000
      57 -> 61        -0.30503
      58 -> 59        -0.17460
      58 -> 60         0.60708
 SavETr:  write IOETrn=   770 NScale= 10 NData=  16 NLR=1 NState=    6 LETran=     118.

 **********************************************************************

            Population analysis using the SCF Density.

 **********************************************************************

 Orbital symmetries:
       Occupied  (A) (A) (A) (A) (A) (A) (A) (A) (A) (A) (A) (A)
                 (A) (A) (A) (A) (A) (A) (A) (A) (A) (A) (A) (A)
                 (A) (A) (A) (A) (A) (A) (A) (A) (A) (A) (A) (A)
                 (A) (A) (A) (A) (A) (A) (A) (A) (A) (A) (A) (A)
                 (A) (A) (A) (A) (A) (A) (A) (A) (A) (A)
       Virtual   (A) (A) (A) (A) (A) (A) (A) (A) (A) (A) (A) (A)
                 (A) (A) (A) (A) (A) (A) (A) (A) (A) (A) (A) (A)
                 (A) (A) (A) (A) (A) (A) (A) (A) (A) (A) (A) (A)
                 (A) (A) (A) (A) (A) (A) (A) (A) (A) (A) (A) (A)
                 (A) (A) (A) (A) (A) (A) (A) (A) (A) (A) (A) (A)
                 (A) (A) (A) (A) (A) (A) (A) (A) (A) (A) (A) (A)
                 (A) (A) (A) (A) (A) (A) (A) (A) (A) (A) (A) (A)
                 (A) (A) (A) (A) (A) (A) (A) (A) (A) (A) (A) (A)
                 (A) (A) (A) (A) (A) (A) (A) (A) (A) (A) (A) (A)
                 (A) (A) (A) (A) (A) (A) (A) (A) (A) (A) (A) (A)
                 (A) (A) (A) (A) (A) (A) (A) (A) (A) (A) (A) (A)
                 (A) (A) (A) (A) (A) (A) (A) (A) (A) (A) (A) (A)
                 (A) (A) (A) (A) (A) (A) (A) (A) (A) (A) (A) (A)
                 (A) (A) (A) (A) (A) (A) (A) (A) (A) (A) (A) (A)
                 (A) (A) (A) (A) (A) (A) (A) (A) (A) (A) (A) (A)
                 (A) (A) (A) (A) (A) (A) (A) (A) (A) (A) (A) (A)
                 (A) (A) (A) (A) (A) (A) (A) (A) (A) (A) (A) (A)
                 (A) (A) (A) (A) (A) (A) (A) (A) (A) (A) (A) (A)
                 (A) (A) (A) (A) (A) (A) (A) (A) (A) (A) (A) (A)
                 (A) (A) (A) (A) (A) (A) (A) (A) (A) (A) (A) (A)
                 (A) (A) (A) (A) (A) (A) (A) (A) (A) (A) (A) (A)
                 (A) (A) (A)
 The electronic state is 1-A.
 Alpha  occ. eigenvalues -- -101.56323 -24.74493 -24.74325 -19.27757 -14.41916
 Alpha  occ. eigenvalues --  -14.37382 -10.32499 -10.31243 -10.31237 -10.29220
 Alpha  occ. eigenvalues --  -10.28907 -10.24714 -10.23581 -10.22536 -10.22500
 Alpha  occ. eigenvalues --   -9.47850  -7.24310  -7.23249  -7.23224  -1.25237
 Alpha  occ. eigenvalues --   -1.25118  -1.19481  -0.97093  -0.91888  -0.89603
 Alpha  occ. eigenvalues --   -0.86860  -0.80073  -0.78143  -0.74286  -0.69075
 Alpha  occ. eigenvalues --   -0.65661  -0.64365  -0.62299  -0.58414  -0.55392
 Alpha  occ. eigenvalues --   -0.54776  -0.52151  -0.51535  -0.50895  -0.49830
 Alpha  occ. eigenvalues --   -0.48721  -0.48416  -0.46763  -0.46205  -0.45219
 Alpha  occ. eigenvalues --   -0.44401  -0.42052  -0.40357  -0.38972  -0.38439
 Alpha  occ. eigenvalues --   -0.36575  -0.35918  -0.32992  -0.32522  -0.31977
 Alpha  occ. eigenvalues --   -0.31595  -0.28075  -0.27395
 Alpha virt. eigenvalues --   -0.07484  -0.05306  -0.03216  -0.01050  -0.00054
 Alpha virt. eigenvalues --    0.00567   0.01440   0.02256   0.03046   0.03815
 Alpha virt. eigenvalues --    0.04230   0.04674   0.04949   0.05297   0.06237
 Alpha virt. eigenvalues --    0.06817   0.07520   0.07750   0.07998   0.08981
 Alpha virt. eigenvalues --    0.09536   0.09554   0.10208   0.10680   0.10818
 Alpha virt. eigenvalues --    0.11454   0.11904   0.12403   0.13599   0.13834
 Alpha virt. eigenvalues --    0.14512   0.15062   0.15878   0.16226   0.16618
 Alpha virt. eigenvalues --    0.17292   0.17655   0.17785   0.18303   0.18613
 Alpha virt. eigenvalues --    0.18848   0.19273   0.20478   0.20998   0.21169
 Alpha virt. eigenvalues --    0.22293   0.22768   0.22988   0.23452   0.23963
 Alpha virt. eigenvalues --    0.24181   0.25339   0.26028   0.26374   0.26770
 Alpha virt. eigenvalues --    0.26971   0.28405   0.28687   0.28922   0.29496
 Alpha virt. eigenvalues --    0.29715   0.30215   0.31035   0.31564   0.33112
 Alpha virt. eigenvalues --    0.34640   0.35625   0.36282   0.36455   0.37154
 Alpha virt. eigenvalues --    0.37309   0.38356   0.39203   0.40277   0.41027
 Alpha virt. eigenvalues --    0.41563   0.42367   0.43079   0.43778   0.46134
 Alpha virt. eigenvalues --    0.47644   0.49714   0.52744   0.56202   0.57561
 Alpha virt. eigenvalues --    0.59017   0.60698   0.62025   0.62557   0.65315
 Alpha virt. eigenvalues --    0.65659   0.67059   0.68181   0.68525   0.69179
 Alpha virt. eigenvalues --    0.69501   0.72366   0.73134   0.73333   0.75184
 Alpha virt. eigenvalues --    0.75493   0.77398   0.78370   0.79952   0.81269
 Alpha virt. eigenvalues --    0.82578   0.85139   0.85568   0.86019   0.86795
 Alpha virt. eigenvalues --    0.88177   0.89133   0.90188   0.91474   0.93072
 Alpha virt. eigenvalues --    0.94693   0.95455   0.97154   0.98267   1.00275
 Alpha virt. eigenvalues --    1.01644   1.01956   1.03007   1.03290   1.05304
 Alpha virt. eigenvalues --    1.06391   1.08227   1.09780   1.12638   1.14532
 Alpha virt. eigenvalues --    1.16911   1.18539   1.20944   1.21330   1.23080
 Alpha virt. eigenvalues --    1.24752   1.25024   1.26274   1.30857   1.31815
 Alpha virt. eigenvalues --    1.32081   1.33330   1.34638   1.35690   1.36192
 Alpha virt. eigenvalues --    1.37284   1.37412   1.40869   1.42329   1.43257
 Alpha virt. eigenvalues --    1.46065   1.46714   1.52621   1.54442   1.62218
 Alpha virt. eigenvalues --    1.62423   1.63606   1.64830   1.65716   1.67331
 Alpha virt. eigenvalues --    1.67878   1.70815   1.74327   1.76097   1.76579
 Alpha virt. eigenvalues --    1.77337   1.80606   1.80887   1.81781   1.82534
 Alpha virt. eigenvalues --    1.84398   1.86161   1.87433   1.89020   1.89569
 Alpha virt. eigenvalues --    1.90110   1.91059   1.92016   1.92864   1.94018
 Alpha virt. eigenvalues --    1.96001   1.97068   2.03402   2.05123   2.06249
 Alpha virt. eigenvalues --    2.08550   2.09551   2.10713   2.13215   2.15966
 Alpha virt. eigenvalues --    2.19563   2.21273   2.23649   2.25120   2.27155
 Alpha virt. eigenvalues --    2.28725   2.30771   2.31190   2.33385   2.34347
 Alpha virt. eigenvalues --    2.35424   2.36165   2.39302   2.39808   2.41500
 Alpha virt. eigenvalues --    2.42439   2.42956   2.48844   2.52695   2.53482
 Alpha virt. eigenvalues --    2.54687   2.55617   2.56040   2.57571   2.58690
 Alpha virt. eigenvalues --    2.61313   2.62584   2.70390   2.71933   2.74256
 Alpha virt. eigenvalues --    2.75825   2.78409   2.81613   2.87647   2.88693
 Alpha virt. eigenvalues --    2.95448   3.02272   3.03097   3.07096   3.10089
 Alpha virt. eigenvalues --    3.15619   3.20048   3.24382   3.24466   3.28762
 Alpha virt. eigenvalues --    3.34668   3.35033   3.42548   3.42697   3.79665
 Alpha virt. eigenvalues --    4.13765   4.23431   4.25459   4.26736   4.27777
 Alpha virt. eigenvalues --    4.29463   4.38301   4.41259   4.49373   4.50608
 Alpha virt. eigenvalues --    4.55756   4.63896   4.86725   6.27211   6.39581
          Condensed to atoms (all electrons):
               1          2          3          4          5          6
     1  Cl  16.891627   0.318933  -0.143568  -0.005508  -0.042750   0.004035
     2  C    0.318933   9.986175  -2.586834  -0.211937  -2.244507   0.246414
     3  C   -0.143568  -2.586834   9.089265   0.384406  -1.465304   0.170024
     4  N   -0.005508  -0.211937   0.384406   7.048104   0.050999  -0.329066
     5  C   -0.042750  -2.244507  -1.465304   0.050999  12.373983   0.062906
     6  C    0.004035   0.246414   0.170024  -0.329066   0.062906  11.450350
     7  C    0.010008   0.028745  -0.246996  -0.214205  -1.054980  -2.261830
     8  F    0.000132  -0.003800  -0.014476  -0.000007  -0.019845  -0.069118
     9  C    0.000123   0.011643   0.157363   0.077511  -0.318821   0.067055
    10  C    0.000061  -0.000120   0.001134  -0.002954  -0.213627  -0.377647
    11  C   -0.000441  -0.015108   0.004781   0.077133  -0.052603  -0.553304
    12  C   -0.009520  -0.132056   0.058188   0.360704  -0.735550  -2.871154
    13  F   -0.000025  -0.000252  -0.010223  -0.012524  -0.010546  -0.060195
    14  N   -0.006048   0.461620   0.463819   0.075479  -1.524784  -0.093206
    15  O   -0.001118  -0.292666   0.239239  -0.098167   0.243087   0.015662
    16  H   -0.041023   0.442945  -0.099368  -0.010342   0.007009  -0.005229
    17  H   -0.047432   0.418359  -0.065904   0.008059  -0.012640   0.000777
    18  H    0.000000   0.000000   0.000021  -0.000008   0.003158   0.044877
    19  H    0.000000  -0.000007  -0.000218   0.000013  -0.003524  -0.024223
    20  H   -0.000000  -0.000031  -0.000272   0.000158   0.001932   0.036578
               7          8          9         10         11         12
     1  Cl   0.010008   0.000132   0.000123   0.000061  -0.000441  -0.009520
     2  C    0.028745  -0.003800   0.011643  -0.000120  -0.015108  -0.132056
     3  C   -0.246996  -0.014476   0.157363   0.001134   0.004781   0.058188
     4  N   -0.214205  -0.000007   0.077511  -0.002954   0.077133   0.360704
     5  C   -1.054980  -0.019845  -0.318821  -0.213627  -0.052603  -0.735550
     6  C   -2.261830  -0.069118   0.067055  -0.377647  -0.553304  -2.871154
     7  C   20.767200   0.154114  -6.006855   0.949701  -0.399487  -5.190469
     8  F    0.154114   9.394363  -0.035711  -0.013661   0.000888  -0.063828
     9  C   -6.006855  -0.035711   9.593085   0.095381   0.209523   1.543837
    10  C    0.949701  -0.013661   0.095381   5.281086   0.346511  -0.026332
    11  C   -0.399487   0.000888   0.209523   0.346511   7.347609  -1.484626
    12  C   -5.190469  -0.063828   1.543837  -0.026332  -1.484626  14.935575
    13  F   -0.038961  -0.000342  -0.003941  -0.017252  -0.062940   0.131947
    14  N    0.174221  -0.001583   0.022157   0.006863   0.027335   0.058168
    15  O    0.003521  -0.001914  -0.025148  -0.001344  -0.004286  -0.022900
    16  H   -0.001471  -0.000000   0.000117  -0.000031  -0.000074   0.001982
    17  H    0.000338  -0.000000   0.000005   0.000004   0.000040   0.000235
    18  H    0.026660  -0.007942   0.246419  -0.001452  -0.006364   0.008750
    19  H    0.031868  -0.000523  -0.009192   0.301453  -0.019332   0.043159
    20  H    0.002170   0.000040  -0.005932   0.003344   0.230363   0.053438
              13         14         15         16         17         18
     1  Cl  -0.000025  -0.006048  -0.001118  -0.041023  -0.047432   0.000000
     2  C   -0.000252   0.461620  -0.292666   0.442945   0.418359   0.000000
     3  C   -0.010223   0.463819   0.239239  -0.099368  -0.065904   0.000021
     4  N   -0.012524   0.075479  -0.098167  -0.010342   0.008059  -0.000008
     5  C   -0.010546  -1.524784   0.243087   0.007009  -0.012640   0.003158
     6  C   -0.060195  -0.093206   0.015662  -0.005229   0.000777   0.044877
     7  C   -0.038961   0.174221   0.003521  -0.001471   0.000338   0.026660
     8  F   -0.000342  -0.001583  -0.001914  -0.000000  -0.000000  -0.007942
     9  C   -0.003941   0.022157  -0.025148   0.000117   0.000005   0.246419
    10  C   -0.017252   0.006863  -0.001344  -0.000031   0.000004  -0.001452
    11  C   -0.062940   0.027335  -0.004286  -0.000074   0.000040  -0.006364
    12  C    0.131947   0.058168  -0.022900   0.001982   0.000235   0.008750
    13  F    9.407172  -0.000591  -0.000328  -0.000028   0.000003   0.000038
    14  N   -0.000591   7.700422   0.025347  -0.000998   0.000179  -0.000041
    15  O   -0.000328   0.025347   7.821311   0.007915  -0.006446  -0.000005
    16  H   -0.000028  -0.000998   0.007915   0.500648  -0.029080   0.000000
    17  H    0.000003   0.000179  -0.006446  -0.029080   0.512685  -0.000000
    18  H    0.000038  -0.000041  -0.000005   0.000000  -0.000000   0.540190
    19  H   -0.000523   0.000006  -0.000000   0.000000   0.000000  -0.004783
    20  H   -0.007798  -0.000024  -0.000000   0.000000  -0.000000  -0.000119
              19         20
     1  Cl   0.000000  -0.000000
     2  C   -0.000007  -0.000031
     3  C   -0.000218  -0.000272
     4  N    0.000013   0.000158
     5  C   -0.003524   0.001932
     6  C   -0.024223   0.036578
     7  C    0.031868   0.002170
     8  F   -0.000523   0.000040
     9  C   -0.009192  -0.005932
    10  C    0.301453   0.003344
    11  C   -0.019332   0.230363
    12  C    0.043159   0.053438
    13  F   -0.000523  -0.007798
    14  N    0.000006  -0.000024
    15  O   -0.000000  -0.000000
    16  H    0.000000   0.000000
    17  H    0.000000  -0.000000
    18  H   -0.004783  -0.000119
    19  H    0.545618  -0.004770
    20  H   -0.004770   0.541367
 Mulliken charges:
               1
     1  Cl   0.072514
     2  C   -0.427515
     3  C    0.064925
     4  N   -0.197847
     5  C    0.956409
     6  C    0.546293
     7  C   -0.733292
     8  F   -0.316784
     9  C    0.381381
    10  C   -0.331116
    11  C    0.354384
    12  C   -0.659549
    13  F   -0.312691
    14  N   -0.388338
    15  O    0.098244
    16  H    0.227028
    17  H    0.220819
    18  H    0.150601
    19  H    0.144978
    20  H    0.149557
 Sum of Mulliken charges =  -0.00000
 Mulliken charges with hydrogens summed into heavy atoms:
               1
     1  Cl   0.072514
     2  C    0.020332
     3  C    0.064925
     4  N   -0.197847
     5  C    0.956409
     6  C    0.546293
     7  C   -0.733292
     8  F   -0.316784
     9  C    0.531982
    10  C   -0.186139
    11  C    0.503940
    12  C   -0.659549
    13  F   -0.312691
    14  N   -0.388338
    15  O    0.098244
 Electronic spatial extent (au):  <R**2>=           4195.8933
 Charge=             -0.0000 electrons
 Dipole moment (field-independent basis, Debye):
    X=              2.1843    Y=              1.9598    Z=             -0.3718  Tot=              2.9581
 Quadrupole moment (field-independent basis, Debye-Ang):
   XX=            -72.3716   YY=            -93.2025   ZZ=            -95.6020
   XY=             -6.2396   XZ=             -6.2662   YZ=              3.4567
 Traceless Quadrupole moment (field-independent basis, Debye-Ang):
   XX=             14.6871   YY=             -6.1438   ZZ=             -8.5433
   XY=             -6.2396   XZ=             -6.2662   YZ=              3.4567
 Octapole moment (field-independent basis, Debye-Ang**2):
  XXX=             68.7070  YYY=              0.8881  ZZZ=              1.1814  XYY=             -4.3449
  XXY=             21.9944  XXZ=              0.4301  XZZ=             -6.8826  YZZ=              2.4244
  YYZ=             -4.4326  XYZ=             -4.4986
 Hexadecapole moment (field-independent basis, Debye-Ang**3):
 XXXX=          -4066.4889 YYYY=           -767.7394 ZZZZ=           -348.6548 XXXY=            -60.2330
 XXXZ=           -132.1993 YYYX=             -1.6973 YYYZ=              5.0641 ZZZX=             15.2990
 ZZZY=             14.8544 XXYY=           -766.3134 XXZZ=           -799.0111 YYZZ=           -182.3054
 XXYZ=             22.5689 YYXZ=             -2.3097 ZZXY=             -1.5014
 N-N= 1.040255096137D+03 E-N=-4.882157520052D+03  KE= 1.182752931226D+03
 Unable to Open any file for archive entry.
 1\1\GINC-N2\SP\RB3LYP TD-FC\6-31+G(d,p)\C9H5Cl1F2N2O1\HPCMGAC13\24-Sep
 -2025\0\\# td=(50-50,nstates=3) b3lyp/6-31+g(d,p) geom=connectivity\\T
 itle Card Required\\0,1\Cl,0,4.386832,0.343641,-0.923163\C,0,3.449039,
 -0.857897,0.065597\C,0,2.071712,-0.378399,0.349932\N,0,0.968361,-0.714
 353,-0.249303\C,0,0.026632,0.036863,0.426832\C,0,-1.410423,0.017114,0.
 101687\C,0,-2.14724,1.186837,-0.129102\F,0,-1.513167,2.375821,-0.05827
 \C,0,-3.497851,1.179185,-0.453399\C,0,-4.155077,-0.0482,-0.552636\C,0,
 -3.470037,-1.244896,-0.331289\C,0,-2.120939,-1.18569,-0.011262\F,0,-1.
 46479,-2.34236,0.227626\N,0,0.518463,0.784498,1.389334\O,0,1.889751,0.
 511164,1.342168\H,0,3.39424,-1.780274,-0.509319\H,0,4.007821,-1.01052,
 0.988777\H,0,-4.006934,2.120252,-0.626104\H,0,-5.210469,-0.072801,-0.8
 0378\H,0,-3.959855,-2.209536,-0.395733\\Version=ES64L-G16RevC.02\State
 =1-A\HF=-1190.5610407\RMSD=5.770e-09\PG=C01 [X(C9H5Cl1F2N2O1)]\\@
 The archive entry for this job was punched.


 CHARLIE BROWN -- WHICH DO YOU THINK LASTS LONGER IN LIFE, THE GOOD THINGS 
                  OR THE BAD THINGS?
 LINUS --         GOOD THINGS LAST EIGHT SECONDS ..
                  BAD THINGS LAST THREE WEEKS
 CHARLIE BROWN -- WHAT ABOUT IN BETWEEN?
 SNOOPY --        IN BETWEEN YOU SHOULD TAKE A NAP ...
 Job cpu time:       0 days  0 hours 21 minutes 12.5 seconds.
 Elapsed time:       0 days  0 hours  2 minutes 42.7 seconds.
 File lengths (MBytes):  RWF=    653 Int=      0 D2E=      0 Chk=     27 Scr=      2
 Normal termination of Gaussian 16 at Wed Sep 24 11:24:42 2025.
