 Entering Gaussian System, Link 0=g16
 Input=M1407E.gjf
 Output=M1407E.log
 Initial command:
 /hpc/softwares/Gaussian/g16/l1.exe "/hpc/home/hpcmgac13/pbs.13120.admin1.x8z/Gau-2832661.inp" -scrdir="/hpc/home/hpcmgac13/pbs.13120.admin1.x8z/"
 Default linda workers: n2
 Default is to use   6 SMP processors on each worker.
 Entering Link 1 = /hpc/softwares/Gaussian/g16/l1.exe PID=   2832662.
  
 Copyright (c) 1988-2021, Gaussian, Inc.  All Rights Reserved.
  
 This is part of the Gaussian(R) 16 program.  It is based on
 the Gaussian(R) 09 system (copyright 2009, Gaussian, Inc.),
 the Gaussian(R) 03 system (copyright 2003, Gaussian, Inc.),
 the Gaussian(R) 98 system (copyright 1998, Gaussian, Inc.),
 the Gaussian(R) 94 system (copyright 1995, Gaussian, Inc.),
 the Gaussian 92(TM) system (copyright 1992, Gaussian, Inc.),
 the Gaussian 90(TM) system (copyright 1990, Gaussian, Inc.),
 the Gaussian 88(TM) system (copyright 1988, Gaussian, Inc.),
 the Gaussian 86(TM) system (copyright 1986, Carnegie Mellon
 University), and the Gaussian 82(TM) system (copyright 1983,
 Carnegie Mellon University). Gaussian is a federally registered
 trademark of Gaussian, Inc.
  
 This software contains proprietary and confidential information,
 including trade secrets, belonging to Gaussian, Inc.
  
 This software is provided under written license and may be
 used, copied, transmitted, or stored only in accord with that
 written license.
  
 The following legend is applicable only to US Government
 contracts under FAR:
  
                    RESTRICTED RIGHTS LEGEND
  
 Use, reproduction and disclosure by the US Government is
 subject to restrictions as set forth in subparagraphs (a)
 and (c) of the Commercial Computer Software - Restricted
 Rights clause in FAR 52.227-19.
  
 Gaussian, Inc.
 340 Quinnipiac St., Bldg. 40, Wallingford CT 06492
  
  
 ---------------------------------------------------------------
 Warning -- This program may not be used in any manner that
 competes with the business of Gaussian, Inc. or will provide
 assistance to any competitor of Gaussian, Inc.  The licensee
 of this program is prohibited from giving any competitor of
 Gaussian, Inc. access to this program.  By using this program,
 the user acknowledges that Gaussian, Inc. is engaged in the
 business of creating and licensing software in the field of
 computational chemistry and represents and warrants to the
 licensee that it is not a competitor of Gaussian, Inc. and that
 it will not use this program in any manner prohibited above.
 ---------------------------------------------------------------
  

 Cite this work as:
 Gaussian 16, Revision C.02,
 M. J. Frisch, G. W. Trucks, H. B. Schlegel, G. E. Scuseria, 
 M. A. Robb, J. R. Cheeseman, G. Scalmani, V. Barone, 
 G. A. Petersson, H. Nakatsuji, X. Li, M. Caricato, A. V. Marenich, 
 J. Bloino, B. G. Janesko, R. Gomperts, B. Mennucci, H. P. Hratchian, 
 J. V. Ortiz, A. F. Izmaylov, J. L. Sonnenberg, D. Williams-Young, 
 F. Ding, F. Lipparini, F. Egidi, J. Goings, B. Peng, A. Petrone, 
 T. Henderson, D. Ranasinghe, V. G. Zakrzewski, J. Gao, N. Rega, 
 G. Zheng, W. Liang, M. Hada, M. Ehara, K. Toyota, R. Fukuda, 
 J. Hasegawa, M. Ishida, T. Nakajima, Y. Honda, O. Kitao, H. Nakai, 
 T. Vreven, K. Throssell, J. A. Montgomery, Jr., J. E. Peralta, 
 F. Ogliaro, M. J. Bearpark, J. J. Heyd, E. N. Brothers, K. N. Kudin, 
 V. N. Staroverov, T. A. Keith, R. Kobayashi, J. Normand, 
 K. Raghavachari, A. P. Rendell, J. C. Burant, S. S. Iyengar, 
 J. Tomasi, M. Cossi, J. M. Millam, M. Klene, C. Adamo, R. Cammi, 
 J. W. Ochterski, R. L. Martin, K. Morokuma, O. Farkas, 
 J. B. Foresman, and D. J. Fox, Gaussian, Inc., Wallingford CT, 2019.
 
 ******************************************
 Gaussian 16:  ES64L-G16RevC.02  7-Dec-2021
                11-Aug-2025 
 ******************************************
 SetLPE:    new flags="-opt 'Tsnet.Node.lindarsharg: ssh'  -nodelist 'n2.head.cm.mguif.local' -env GAUSS_MDEF=1342177280 -env GAUSS_EXEDIR="/hpc/softwares/Gaussian/g16/bsd:/hpc/softwares/Gaussian/g16""
 Will use up to    1 processors via Linda.
 ----------------------------------------------------------
 # td=(50-50,nstates=3) b3lyp/6-31+g(d,p) geom=connectivity
 ----------------------------------------------------------
 1/38=1,57=2,172=1/1;
 2/12=2,17=6,18=5,40=1/2;
 3/5=1,6=6,7=111,11=9,25=1,30=1,74=-5/1,2,3,8;
 4//1;
 5/5=2,38=5/2;
 8/6=1,10=2,108=3/1;
 9/41=3,42=1,48=2,70=2/14;
 6/7=2,8=2,9=2,10=2/1;
 99/5=1,9=1/99;
 -------------------
 Title Card Required
 -------------------
 Symbolic Z-matrix:
 Charge =  0 Multiplicity = 1
 C                    -0.99219  -3.14155  -1.24138 
 C                    -1.24072  -2.62065   0.17095 
 C                    -2.48558  -3.20674   0.82108 
 O                    -1.46749  -1.17399   0.12958 
 C                    -0.46493  -0.29357   0.07311 
 C                     0.87047  -0.60348   0.07206 
 C                     1.87611   0.41732   0.04201 
 C                     3.23352   0.09689   0.04708 
 C                     4.24835   1.09847   0.02026 
 N                     5.07386   1.92078  -0.0019 
 C                     3.67434  -1.25924   0.0798 
 N                     4.00635  -2.37612   0.10629 
 C                     1.45117   1.80192   0.00653 
 C                     0.13535   2.12072  -0.00452 
 C                    -0.9016    1.10857   0.01917 
 C                    -2.23588   1.488    -0.01408 
 C                    -3.37214   0.62001  -0.01163 
 N                    -4.37167   0.0222   -0.01957 
 C                    -2.58745   2.87625  -0.0654 
 N                    -2.8774    4.0033   -0.10642 
 H                    -0.80794  -4.21988  -1.20639 
 H                    -1.8698   -2.96112  -1.86946 
 H                    -0.12504  -2.66862  -1.71023 
 H                    -0.37147  -2.80167   0.8137 
 H                    -2.62508  -2.80636   1.82869 
 H                    -2.38333  -4.29401   0.89076 
 H                    -3.37597  -2.97425   0.23041 
 H                     1.19222  -1.63581   0.09555 
 H                     2.20261   2.58354  -0.01378 
 H                    -0.16733   3.16149  -0.03498 
 
                          Input orientation:                          
 ---------------------------------------------------------------------
 Center     Atomic      Atomic             Coordinates (Angstroms)
 Number     Number       Type             X           Y           Z
 ---------------------------------------------------------------------
      1          6           0       -0.992190   -3.141548   -1.241379
      2          6           0       -1.240722   -2.620649    0.170951
      3          6           0       -2.485575   -3.206739    0.821083
      4          8           0       -1.467489   -1.173990    0.129584
      5          6           0       -0.464931   -0.293571    0.073106
      6          6           0        0.870471   -0.603482    0.072064
      7          6           0        1.876107    0.417319    0.042014
      8          6           0        3.233524    0.096892    0.047078
      9          6           0        4.248349    1.098469    0.020257
     10          7           0        5.073860    1.920777   -0.001896
     11          6           0        3.674342   -1.259235    0.079796
     12          7           0        4.006351   -2.376121    0.106288
     13          6           0        1.451173    1.801916    0.006530
     14          6           0        0.135351    2.120720   -0.004515
     15          6           0       -0.901597    1.108571    0.019170
     16          6           0       -2.235876    1.487996   -0.014083
     17          6           0       -3.372141    0.620008   -0.011625
     18          7           0       -4.371665    0.022195   -0.019573
     19          6           0       -2.587445    2.876251   -0.065398
     20          7           0       -2.877402    4.003303   -0.106421
     21          1           0       -0.807943   -4.219884   -1.206391
     22          1           0       -1.869804   -2.961115   -1.869458
     23          1           0       -0.125039   -2.668615   -1.710230
     24          1           0       -0.371473   -2.801666    0.813698
     25          1           0       -2.625079   -2.806358    1.828686
     26          1           0       -2.383328   -4.294007    0.890764
     27          1           0       -3.375967   -2.974253    0.230411
     28          1           0        1.192219   -1.635814    0.095551
     29          1           0        2.202609    2.583536   -0.013783
     30          1           0       -0.167332    3.161494   -0.034984
 ---------------------------------------------------------------------
                    Distance matrix (angstroms):
                    1          2          3          4          5
     1  C    0.000000
     2  C    1.525706   0.000000
     3  C    2.547194   1.521786   0.000000
     4  O    2.444736   1.464908   2.376287   0.000000
     5  C    3.180699   2.454937   3.623399   1.335459   0.000000
     6  C    3.411219   2.921622   4.312890   2.407248   1.370892
     7  C    4.747606   4.354365   5.724073   3.703993   2.446792
     8  C    5.477616   5.236339   6.649899   4.870469   3.719100
     9  C    6.858040   6.632077   8.032551   6.151977   4.914832
    10  N    7.997526   7.779998   9.171356   7.237687   5.965498
    11  C    5.202415   5.100942   6.502834   5.142779   4.250427
    12  N    5.233307   5.253166   6.583765   5.604336   4.932593
    13  C    5.653772   5.180001   6.422469   4.170102   2.840238
    14  C    5.522015   4.940136   5.994388   3.666360   2.489009
    15  C    4.434039   3.747683   4.666257   2.354254   1.469554
    16  C    4.948302   4.231493   4.774975   2.774388   2.513529
    17  C    4.617983   3.883058   4.015395   2.620318   3.048553
    18  N    4.787790   4.101674   3.832760   3.144415   3.920570
    19  C    6.335746   5.664401   6.148089   4.206753   3.817332
    20  N    7.476032   6.828792   7.280007   5.371026   4.931062
    21  H    1.094523   2.154512   2.819852   3.390767   4.143755
    22  H    1.094187   2.162159   2.771014   2.711428   3.586504
    23  H    1.093361   2.187668   3.502749   2.724150   2.989423
    24  H    2.173511   1.096123   2.152572   2.078122   2.616821
    25  H    3.493419   2.167722   1.093174   2.625183   3.749987
    26  H    2.794541   2.150304   1.094286   3.339560   4.511352
    27  H    2.806519   2.165143   1.093499   2.625529   3.960421
    28  H    2.970902   2.625793   4.064526   2.699720   2.132666
    29  H    6.670106   6.242932   7.496890   5.254443   3.924419
    30  H    6.470249   5.884535   6.830922   4.529229   3.469542
                    6          7          8          9         10
     6  C    0.000000
     7  C    1.433263   0.000000
     8  C    2.464785   1.394733   0.000000
     9  C    3.782774   2.468192   1.426095   0.000000
    10  N    4.903655   3.533828   2.591484   1.165397   0.000000
    11  C    2.879542   2.458843   1.426349   2.427302   3.475313
    12  N    3.602383   3.513599   2.591633   3.484069   4.428839
    13  C    2.475368   1.448771   2.466886   2.884306   3.624646
    14  C    2.822684   2.435974   3.700975   4.238203   4.942556
    15  C    2.464579   2.862515   4.257170   5.149956   6.030440
    16  C    3.745810   4.249459   5.643868   6.496005   7.322547
    17  C    4.416298   5.252434   6.626606   7.635562   8.545585
    18  N    5.280138   6.260557   7.605848   8.687036   9.634463
    19  C    4.907608   5.097174   6.451447   7.063705   7.720917
    20  N    5.941454   5.956271   7.254449   7.696131   8.220122
    21  H    4.186870   5.501481   6.044766   7.440137   8.588023
    22  H    4.103297   5.394385   6.250478   7.581757   8.691095
    23  H    2.903857   4.074056   4.692132   6.025946   7.142092
    24  H    2.631437   4.001122   4.688854   6.097816   7.253848
    25  H    4.489683   5.817643   6.776888   8.109384   9.217944
    26  H    4.987730   6.407789   7.179194   8.591608   9.748335
    27  H    4.865991   6.254801   7.290467   8.646469   9.768053
    28  H    1.081565   2.164700   2.677974   4.101451   5.265546
    29  H    3.455292   2.191395   2.692562   2.528168   2.946773
    30  H    3.906858   3.422290   4.578683   4.874152   5.386146
                   11         12         13         14         15
    11  C    0.000000
    12  N    1.165490   0.000000
    13  C    3.783979   4.898457   0.000000
    14  C    4.894452   5.934517   1.353937   0.000000
    15  C    5.152611   6.019852   2.452838   1.449230   0.000000
    16  C    6.518187   7.342431   3.700446   2.454210   1.387577
    17  C    7.293342   7.964473   4.966044   3.815061   2.518577
    18  N    8.148016   8.715441   6.088804   4.971642   3.636356
    19  C    7.505551   8.431787   4.179690   2.826332   2.444162
    20  N    8.405613   9.387670   4.857512   3.554038   3.507000
    21  H    5.523640   5.319776   6.544987   6.522083   5.468382
    22  H    6.118296   6.226957   6.102023   5.772669   4.589846
    23  H    4.430106   4.522574   5.041563   5.090677   4.226228
    24  H    4.391620   4.454982   5.016625   5.015598   4.025203
    25  H    6.718252   6.864956   6.416562   5.937735   4.644503
    26  H    6.823700   6.717268   7.255725   6.949388   5.669484
    27  H    7.257467   7.407549   6.794350   6.192196   4.778764
    28  H    2.510577   2.909898   3.448618   3.903656   3.452760
    29  H    4.116023   5.278835   1.084435   2.118452   3.436961
    30  H    5.857856   6.935760   2.114175   1.084323   2.180956
                   16         17         18         19         20
    16  C    0.000000
    17  C    1.429863   0.000000
    18  N    2.590405   1.164685   0.000000
    19  C    1.432999   2.389408   3.366181   0.000000
    20  N    2.597470   3.420590   4.253185   1.164476   0.000000
    21  H    6.003373   5.605991   5.666029   7.404298   8.550637
    22  H    4.834358   4.304997   4.310629   6.151787   7.254424
    23  H    4.960843   4.923817   5.304018   6.286052   7.393389
    24  H    4.749992   4.625259   4.966897   6.158091   7.309850
    25  H    4.689217   3.960408   3.803595   5.990076   7.083769
    26  H    5.854233   5.093093   4.838574   7.236609   8.371609
    27  H    4.612077   3.602403   3.167429   5.910809   7.003450
    28  H    4.639186   5.092504   5.806811   5.888166   6.957172
    29  H    4.571691   5.910439   7.055606   4.799267   5.275494
    30  H    2.660809   4.090293   5.247080   2.437055   2.838701
                   21         22         23         24         25
    21  H    0.000000
    22  H    1.775304   0.000000
    23  H    1.768233   1.776264   0.000000
    24  H    2.506513   3.077295   2.539418   0.000000
    25  H    3.809427   3.777653   4.335101   2.471632   0.000000
    26  H    2.624003   3.107915   3.808797   2.506109   1.775173
    27  H    3.195425   2.584212   3.798425   3.065452   1.773839
    28  H    3.517544   3.872166   2.462253   2.078480   4.352665
    29  H    7.534737   7.125393   5.990072   6.025863   7.466741
    30  H    7.501154   6.614382   6.066169   6.026708   6.717815
                   26         27         28         29         30
    26  H    0.000000
    27  H    1.778524   0.000000
    28  H    4.525803   4.762135   0.000000
    29  H    8.315625   7.878398   4.340018   0.000000
    30  H    7.832761   6.929153   4.987944   2.439489   0.000000
 Stoichiometry    C15H10N4O
 Framework group  C1[X(C15H10N4O)]
 Deg. of freedom    84
 Full point group                 C1      NOp   1
 Largest Abelian subgroup         C1      NOp   1
 Largest concise Abelian subgroup C1      NOp   1
                         Standard orientation:                         
 ---------------------------------------------------------------------
 Center     Atomic      Atomic             Coordinates (Angstroms)
 Number     Number       Type             X           Y           Z
 ---------------------------------------------------------------------
      1          6           0       -0.992190    3.141548    1.241379
      2          6           0       -1.240722    2.620649   -0.170951
      3          6           0       -2.485575    3.206739   -0.821083
      4          8           0       -1.467489    1.173990   -0.129584
      5          6           0       -0.464931    0.293571   -0.073106
      6          6           0        0.870471    0.603482   -0.072064
      7          6           0        1.876107   -0.417319   -0.042014
      8          6           0        3.233524   -0.096892   -0.047078
      9          6           0        4.248349   -1.098469   -0.020257
     10          7           0        5.073860   -1.920777    0.001896
     11          6           0        3.674342    1.259235   -0.079796
     12          7           0        4.006351    2.376121   -0.106288
     13          6           0        1.451173   -1.801916   -0.006530
     14          6           0        0.135351   -2.120720    0.004515
     15          6           0       -0.901597   -1.108571   -0.019170
     16          6           0       -2.235876   -1.487996    0.014083
     17          6           0       -3.372141   -0.620008    0.011625
     18          7           0       -4.371665   -0.022195    0.019573
     19          6           0       -2.587445   -2.876251    0.065398
     20          7           0       -2.877402   -4.003303    0.106421
     21          1           0       -0.807943    4.219884    1.206391
     22          1           0       -1.869804    2.961115    1.869458
     23          1           0       -0.125039    2.668615    1.710230
     24          1           0       -0.371473    2.801666   -0.813698
     25          1           0       -2.625079    2.806358   -1.828686
     26          1           0       -2.383328    4.294007   -0.890764
     27          1           0       -3.375967    2.974253   -0.230411
     28          1           0        1.192219    1.635814   -0.095551
     29          1           0        2.202609   -2.583536    0.013783
     30          1           0       -0.167332   -3.161494    0.034984
 ---------------------------------------------------------------------
 Rotational constants (GHZ):           0.4532453           0.2459533           0.1636337
 Standard basis: 6-31+G(d,p) (6D, 7F)
 There are   430 symmetry adapted cartesian basis functions of A   symmetry.
 There are   430 symmetry adapted basis functions of A   symmetry.
   430 basis functions,   710 primitive gaussians,   430 cartesian basis functions
    68 alpha electrons       68 beta electrons
       nuclear repulsion energy      1332.7416450704 Hartrees.
 NAtoms=   30 NActive=   30 NUniq=   30 SFac= 1.00D+00 NAtFMM=   60 NAOKFM=F Big=F
 Integral buffers will be    131072 words long.
 Regular integral format.
 Two-electron integral symmetry is turned on.
 One-electron integrals computed using PRISM.
 NBasis=   430 RedAO= T EigKep=  1.00D-06  NBF=   430
 NBsUse=   426 1.00D-06 EigRej=  6.54D-07 NBFU=   426
 ExpMin= 4.38D-02 ExpMax= 5.48D+03 ExpMxC= 8.25D+02 IAcc=3 IRadAn=         5 AccDes= 0.00D+00
 Harris functional with IExCor=  402 and IRadAn=       5 diagonalized for initial guess.
 HarFok:  IExCor=  402 AccDes= 0.00D+00 IRadAn=         5 IDoV= 1 UseB2=F ITyADJ=14
 ICtDFT=  3500011 ScaDFX=  1.000000  1.000000  1.000000  1.000000
 FoFCou: FMM=F IPFlag=           0 FMFlag=      100000 FMFlg1=           0
         NFxFlg=           0 DoJE=T BraDBF=F KetDBF=T FulRan=T
         wScrn=  0.000000 ICntrl=       500 IOpCl=  0 I1Cent=   200000004 NGrid=           0
         NMat0=    1 NMatS0=      1 NMatT0=    0 NMatD0=    1 NMtDS0=    0 NMtDT0=    0
 Petite list used in FoFCou.
 Requested convergence on RMS density matrix=1.00D-08 within 128 cycles.
 Requested convergence on MAX density matrix=1.00D-06.
 Requested convergence on             energy=1.00D-06.
 No special actions if energy rises.
 SCF Done:  E(RB3LYP) =  -871.781970766     A.U. after   18 cycles
            NFock= 18  Conv=0.29D-08     -V/T= 2.0095
 DoSCS=F DFT=T ScalE2(SS,OS)=  1.000000  1.000000
 ExpMin= 4.38D-02 ExpMax= 5.48D+03 ExpMxC= 8.25D+02 IAcc=3 IRadAn=         5 AccDes= 0.00D+00
 HarFok:  IExCor=  205 AccDes= 0.00D+00 IRadAn=         5 IDoV=-2 UseB2=F ITyADJ=14
 ICtDFT= 12500011 ScaDFX=  1.000000  1.000000  1.000000  1.000000
 Range of M.O.s used for correlation:    21   426
 NBasis=   430 NAE=    68 NBE=    68 NFC=    20 NFV=     0
 NROrb=    406 NOA=    48 NOB=    48 NVA=   358 NVB=   358

 **** Warning!!: The largest alpha MO coefficient is  0.23066728D+03


 **** Warning!!: The smallest alpha delta epsilon is  0.89443805D-01

 Orbital symmetries:
       Occupied  (A) (A) (A) (A) (A) (A) (A) (A) (A) (A) (A) (A)
                 (A) (A) (A) (A) (A) (A) (A) (A) (A) (A) (A) (A)
                 (A) (A) (A) (A) (A) (A) (A) (A) (A) (A) (A) (A)
                 (A) (A) (A) (A) (A) (A) (A) (A) (A) (A) (A) (A)
                 (A) (A) (A) (A) (A) (A) (A) (A) (A) (A) (A) (A)
                 (A) (A) (A) (A) (A) (A) (A) (A)
       Virtual   (A) (A) (A) (A) (A) (A) (A) (A) (A) (A) (A) (A)
                 (A) (A) (A) (A) (A) (A) (A) (A) (A) (A) (A) (A)
                 (A) (A) (A) (A) (A) (A) (A) (A) (A) (A) (A) (A)
                 (A) (A) (A) (A) (A) (A) (A) (A) (A) (A) (A) (A)
                 (A) (A) (A) (A) (A) (A) (A) (A) (A) (A) (A) (A)
                 (A) (A) (A) (A) (A) (A) (A) (A) (A) (A) (A) (A)
                 (A) (A) (A) (A) (A) (A) (A) (A) (A) (A) (A) (A)
                 (A) (A) (A) (A) (A) (A) (A) (A) (A) (A) (A) (A)
                 (A) (A) (A) (A) (A) (A) (A) (A) (A) (A) (A) (A)
                 (A) (A) (A) (A) (A) (A) (A) (A) (A) (A) (A) (A)
                 (A) (A) (A) (A) (A) (A) (A) (A) (A) (A) (A) (A)
                 (A) (A) (A) (A) (A) (A) (A) (A) (A) (A) (A) (A)
                 (A) (A) (A) (A) (A) (A) (A) (A) (A) (A) (A) (A)
                 (A) (A) (A) (A) (A) (A) (A) (A) (A) (A) (A) (A)
                 (A) (A) (A) (A) (A) (A) (A) (A) (A) (A) (A) (A)
                 (A) (A) (A) (A) (A) (A) (A) (A) (A) (A) (A) (A)
                 (A) (A) (A) (A) (A) (A) (A) (A) (A) (A) (A) (A)
                 (A) (A) (A) (A) (A) (A) (A) (A) (A) (A) (A) (A)
                 (A) (A) (A) (A) (A) (A) (A) (A) (A) (A) (A) (A)
                 (A) (A) (A) (A) (A) (A) (A) (A) (A) (A) (A) (A)
                 (A) (A) (A) (A) (A) (A) (A) (A) (A) (A) (A) (A)
                 (A) (A) (A) (A) (A) (A) (A) (A) (A) (A) (A) (A)
                 (A) (A) (A) (A) (A) (A) (A) (A) (A) (A) (A) (A)
                 (A) (A) (A) (A) (A) (A) (A) (A) (A) (A) (A) (A)
                 (A) (A) (A) (A) (A) (A) (A) (A) (A) (A) (A) (A)
                 (A) (A) (A) (A) (A) (A) (A) (A) (A) (A) (A) (A)
                 (A) (A) (A) (A) (A) (A) (A) (A) (A) (A) (A) (A)
                 (A) (A) (A) (A) (A) (A) (A) (A) (A) (A) (A) (A)
                 (A) (A) (A) (A) (A) (A) (A) (A) (A) (A) (A) (A)
                 (A) (A) (A) (A) (A) (A) (A) (A) (A) (A)
    24 initial guesses have been made.
 Convergence on wavefunction:    0.001000000000000
 Iteration     1 Dimension    24 NMult     0 NNew     24
 CISAX will form    24 AO SS matrices at one time.
 New state      1 was old state      2
 New state      2 was old state      4
 New state      4 was old state      6
 New state      5 was old state      1
 New state      6 was old state      8
 New state      8 was old state     12
 New state      9 was old state      5
 New state     11 was old state      9
 New state     12 was old state     14
 Vector   6 SDiff=6.10D+00 TDiff=6.24D+00 assumed to be singlet.
 Vector  12 SDiff=6.17D+00 TDiff=6.07D+00 assumed to be triplet.
 Iteration     2 Dimension    36 NMult    24 NNew     12
 New state      6 was old state      7
 Iteration     3 Dimension    48 NMult    36 NNew     12
 New state      4 was old state      5
 New state      5 was old state      4
 Iteration     4 Dimension    60 NMult    48 NNew     12
 Iteration     5 Dimension    72 NMult    60 NNew     12
 Iteration     6 Dimension    82 NMult    72 NNew     10
 ***********************************************************************
 Excited states from <AA,BB:AA,BB> singles matrix:
 ***********************************************************************
 
 Ground to excited state transition densities written to RWF  633
 Ground to excited state transition electric dipole moments (Au):
       state          X           Y           Z        Dip. S.      Osc.
         1        -0.0000      0.0000     -0.0000      0.0000      0.0000
         2        -0.0000      0.0000     -0.0000      0.0000      0.0000
         3         1.8513      0.1620     -0.0248      3.4541      0.2085
         4         3.0535      0.9090     -0.0410     10.1515      0.7567
         5        -0.0000      0.0000      0.0000      0.0000      0.0000
         6         0.0437      0.0425      0.0040      0.0037      0.0004
 Ground to excited state transition velocity dipole moments (Au):
       state          X           Y           Z        Dip. S.      Osc.
         1         0.0000     -0.0000      0.0000      0.0000      0.0000
         2        -0.0000      0.0000      0.0000      0.0000      0.0000
         3        -0.1574     -0.0109      0.0022      0.0249      0.1833
         4        -0.3310     -0.1000      0.0045      0.1196      0.7130
         5         0.0000     -0.0000     -0.0000      0.0000      0.0000
         6        -0.0059     -0.0061     -0.0019      0.0001      0.0003
 Ground to excited state transition magnetic dipole moments (Au):
       state          X           Y           Z
         1        -0.0000      0.0000      0.0000
         2        -0.0000      0.0000     -0.0000
         3         0.0089      0.0283      0.1600
         4        -0.0182      0.0110     -1.0625
         5        -0.0000     -0.0000     -0.0000
         6        -0.1901     -0.0443      0.0061
 Ground to excited state transition velocity quadrupole moments (Au):
       state          XX          YY          ZZ          XY          XZ          YZ
         1         0.0000      0.0000      0.0000     -0.0000     -0.0000     -0.0000
         2        -0.0000      0.0000     -0.0000      0.0000     -0.0000     -0.0000
         3        -0.5394      0.1434      0.0125      0.0464      0.0143      0.0060
         4        -0.4986      0.2751     -0.0018      0.5653      0.0024     -0.0105
         5        -0.0000     -0.0000      0.0000     -0.0000      0.0000      0.0000
         6         0.1294      0.0262     -0.0007      0.0505      0.0204      0.0035
 <0|del|b> * <b|rxdel|0> + <0|del|b> * <b|delr+rdel|0>
 Rotatory Strengths (R) in cgs (10**-40 erg-esu-cm/Gauss)
       state          XX          YY          ZZ    R(velocity)    E-M Angle
         1        -0.0000     -0.0000      0.0000     -0.0000       90.00
         2        -0.0000      0.0000     -0.0000     -0.0000       90.00
         3         1.1584     -8.1695     -3.5636     -3.5249       93.02
         4        -9.8782      6.6379      3.8339      0.1979       90.00
         5         0.0000     -0.0000     -0.0000      0.0000       90.00
         6         0.6981      2.8789      3.1294      2.2355       35.44
 1/2[<0|r|b>*<b|rxdel|0> + (<0|rxdel|b>*<b|r|0>)*]
 Rotatory Strengths (R) in cgs (10**-40 erg-esu-cm/Gauss)
       state          XX          YY          ZZ     R(length)
         1        -0.0000     -0.0000      0.0000     -0.0000
         2        -0.0000     -0.0000     -0.0000     -0.0000
         3       -11.5937     -3.2370      2.8084     -4.0074
         4        39.3275     -7.0739    -30.8168      0.4789
         5        -0.0000      0.0000      0.0000      0.0000
         6         5.8781      1.3326     -0.0173      2.3978
  1/2[<0|del|b>*<b|r|0> + (<0|r|b>*<b|del|0>)*] (Au)
       state          X           Y           Z        Dip. S.   Osc.(frdel)
         1        -0.0000     -0.0000     -0.0000      0.0000      0.0000
         2         0.0000      0.0000     -0.0000     -0.0000     -0.0000
         3        -0.2914     -0.0018     -0.0001      0.2932      0.1955
         4        -1.0107     -0.0909     -0.0002      1.1018      0.7345
         5        -0.0000     -0.0000     -0.0000      0.0000      0.0000
         6        -0.0003     -0.0003     -0.0000      0.0005      0.0003

 Excitation energies and oscillator strengths:
 
 Excited State   1:      Triplet-A      0.7007 eV 1769.38 nm  f=0.0000  <S**2>=2.000
      67 -> 69         0.13491
      68 -> 69         0.76003
      68 <- 69         0.31837
 This state for optimization and/or second-order correction.
 Total Energy, E(TD-HF/TD-DFT) =  -871.756219672    
 Copying the excited state density for this state as the 1-particle RhoCI density.
 
 Excited State   2:      Triplet-A      2.0315 eV  610.30 nm  f=0.0000  <S**2>=2.000
      67 -> 69         0.68636
      68 -> 69        -0.11326
 
 Excited State   3:      Singlet-A      2.4639 eV  503.20 nm  f=0.2085  <S**2>=0.000
      67 -> 69        -0.48052
      68 -> 69         0.52013
 
 Excited State   4:      Singlet-A      3.0427 eV  407.48 nm  f=0.7567  <S**2>=0.000
      67 -> 69         0.51065
      68 -> 69         0.49605
      68 <- 69        -0.13347
 
 Excited State   5:      Triplet-A      3.0580 eV  405.44 nm  f=0.0000  <S**2>=2.000
      66 -> 69         0.65583
      68 -> 70        -0.21462
 
 Excited State   6:      Singlet-A      3.9641 eV  312.77 nm  f=0.0004  <S**2>=0.000
      65 -> 69         0.68389
      66 -> 69         0.14899
 SavETr:  write IOETrn=   770 NScale= 10 NData=  16 NLR=1 NState=    6 LETran=     118.

 **********************************************************************

            Population analysis using the SCF Density.

 **********************************************************************

 Orbital symmetries:
       Occupied  (A) (A) (A) (A) (A) (A) (A) (A) (A) (A) (A) (A)
                 (A) (A) (A) (A) (A) (A) (A) (A) (A) (A) (A) (A)
                 (A) (A) (A) (A) (A) (A) (A) (A) (A) (A) (A) (A)
                 (A) (A) (A) (A) (A) (A) (A) (A) (A) (A) (A) (A)
                 (A) (A) (A) (A) (A) (A) (A) (A) (A) (A) (A) (A)
                 (A) (A) (A) (A) (A) (A) (A) (A)
       Virtual   (A) (A) (A) (A) (A) (A) (A) (A) (A) (A) (A) (A)
                 (A) (A) (A) (A) (A) (A) (A) (A) (A) (A) (A) (A)
                 (A) (A) (A) (A) (A) (A) (A) (A) (A) (A) (A) (A)
                 (A) (A) (A) (A) (A) (A) (A) (A) (A) (A) (A) (A)
                 (A) (A) (A) (A) (A) (A) (A) (A) (A) (A) (A) (A)
                 (A) (A) (A) (A) (A) (A) (A) (A) (A) (A) (A) (A)
                 (A) (A) (A) (A) (A) (A) (A) (A) (A) (A) (A) (A)
                 (A) (A) (A) (A) (A) (A) (A) (A) (A) (A) (A) (A)
                 (A) (A) (A) (A) (A) (A) (A) (A) (A) (A) (A) (A)
                 (A) (A) (A) (A) (A) (A) (A) (A) (A) (A) (A) (A)
                 (A) (A) (A) (A) (A) (A) (A) (A) (A) (A) (A) (A)
                 (A) (A) (A) (A) (A) (A) (A) (A) (A) (A) (A) (A)
                 (A) (A) (A) (A) (A) (A) (A) (A) (A) (A) (A) (A)
                 (A) (A) (A) (A) (A) (A) (A) (A) (A) (A) (A) (A)
                 (A) (A) (A) (A) (A) (A) (A) (A) (A) (A) (A) (A)
                 (A) (A) (A) (A) (A) (A) (A) (A) (A) (A) (A) (A)
                 (A) (A) (A) (A) (A) (A) (A) (A) (A) (A) (A) (A)
                 (A) (A) (A) (A) (A) (A) (A) (A) (A) (A) (A) (A)
                 (A) (A) (A) (A) (A) (A) (A) (A) (A) (A) (A) (A)
                 (A) (A) (A) (A) (A) (A) (A) (A) (A) (A) (A) (A)
                 (A) (A) (A) (A) (A) (A) (A) (A) (A) (A) (A) (A)
                 (A) (A) (A) (A) (A) (A) (A) (A) (A) (A) (A) (A)
                 (A) (A) (A) (A) (A) (A) (A) (A) (A) (A) (A) (A)
                 (A) (A) (A) (A) (A) (A) (A) (A) (A) (A) (A) (A)
                 (A) (A) (A) (A) (A) (A) (A) (A) (A) (A) (A) (A)
                 (A) (A) (A) (A) (A) (A) (A) (A) (A) (A) (A) (A)
                 (A) (A) (A) (A) (A) (A) (A) (A) (A) (A) (A) (A)
                 (A) (A) (A) (A) (A) (A) (A) (A) (A) (A) (A) (A)
                 (A) (A) (A) (A) (A) (A) (A) (A) (A) (A) (A) (A)
                 (A) (A) (A) (A) (A) (A) (A) (A) (A) (A)
 The electronic state is 1-A.
 Alpha  occ. eigenvalues --  -19.24164 -14.38803 -14.38325 -14.38099 -14.38063
 Alpha  occ. eigenvalues --  -10.33053 -10.31993 -10.30753 -10.29902 -10.29458
 Alpha  occ. eigenvalues --  -10.29296 -10.27935 -10.27601 -10.27527 -10.27306
 Alpha  occ. eigenvalues --  -10.26497 -10.26333 -10.25190 -10.21703 -10.21039
 Alpha  occ. eigenvalues --   -1.12989  -0.96316  -0.95846  -0.94329  -0.94183
 Alpha  occ. eigenvalues --   -0.93081  -0.89083  -0.84580  -0.83872  -0.80694
 Alpha  occ. eigenvalues --   -0.76610  -0.72969  -0.70169  -0.68441  -0.64554
 Alpha  occ. eigenvalues --   -0.63519  -0.60194  -0.59638  -0.57803  -0.54389
 Alpha  occ. eigenvalues --   -0.52399  -0.50835  -0.50233  -0.47972  -0.47196
 Alpha  occ. eigenvalues --   -0.46066  -0.45089  -0.43687  -0.43484  -0.42654
 Alpha  occ. eigenvalues --   -0.41596  -0.40848  -0.40779  -0.40603  -0.40037
 Alpha  occ. eigenvalues --   -0.40018  -0.39806  -0.38870  -0.38148  -0.38128
 Alpha  occ. eigenvalues --   -0.37855  -0.37625  -0.37301  -0.36764  -0.35437
 Alpha  occ. eigenvalues --   -0.34517  -0.30095  -0.26608
 Alpha virt. eigenvalues --   -0.17664  -0.07005  -0.05613  -0.04105  -0.03590
 Alpha virt. eigenvalues --   -0.02149  -0.00833  -0.00240   0.00219   0.00608
 Alpha virt. eigenvalues --    0.00801   0.01089   0.01296   0.01980   0.02092
 Alpha virt. eigenvalues --    0.02478   0.03204   0.03319   0.03915   0.04204
 Alpha virt. eigenvalues --    0.04784   0.05407   0.05676   0.05839   0.06244
 Alpha virt. eigenvalues --    0.06781   0.07078   0.07347   0.07583   0.08125
 Alpha virt. eigenvalues --    0.08247   0.08566   0.09126   0.09701   0.09981
 Alpha virt. eigenvalues --    0.10185   0.10531   0.10776   0.11727   0.11888
 Alpha virt. eigenvalues --    0.12305   0.12549   0.12936   0.13185   0.13617
 Alpha virt. eigenvalues --    0.14064   0.14402   0.14517   0.15142   0.15491
 Alpha virt. eigenvalues --    0.15997   0.16221   0.16534   0.17147   0.17255
 Alpha virt. eigenvalues --    0.17968   0.18445   0.18813   0.18926   0.19008
 Alpha virt. eigenvalues --    0.19636   0.19807   0.20486   0.20734   0.21775
 Alpha virt. eigenvalues --    0.22108   0.22431   0.22779   0.23128   0.23416
 Alpha virt. eigenvalues --    0.23953   0.24172   0.24302   0.24583   0.24899
 Alpha virt. eigenvalues --    0.25063   0.25462   0.25743   0.25873   0.26175
 Alpha virt. eigenvalues --    0.26479   0.26959   0.27114   0.27608   0.27818
 Alpha virt. eigenvalues --    0.28187   0.28293   0.28596   0.29372   0.29740
 Alpha virt. eigenvalues --    0.30142   0.30414   0.31087   0.31494   0.31585
 Alpha virt. eigenvalues --    0.32172   0.32659   0.33157   0.33735   0.34307
 Alpha virt. eigenvalues --    0.35114   0.35475   0.36620   0.38444   0.39168
 Alpha virt. eigenvalues --    0.39750   0.41386   0.42112   0.42857   0.43140
 Alpha virt. eigenvalues --    0.44796   0.47783   0.52466   0.55731   0.57950
 Alpha virt. eigenvalues --    0.60652   0.62435   0.63007   0.64198   0.64607
 Alpha virt. eigenvalues --    0.64793   0.65438   0.66622   0.67074   0.68656
 Alpha virt. eigenvalues --    0.69825   0.70047   0.70481   0.70667   0.70942
 Alpha virt. eigenvalues --    0.71217   0.73141   0.73851   0.74339   0.74624
 Alpha virt. eigenvalues --    0.75849   0.75951   0.76426   0.77097   0.77381
 Alpha virt. eigenvalues --    0.78183   0.78822   0.79129   0.80185   0.81995
 Alpha virt. eigenvalues --    0.83323   0.83851   0.84590   0.85051   0.86999
 Alpha virt. eigenvalues --    0.87620   0.89485   0.90861   0.91987   0.92957
 Alpha virt. eigenvalues --    0.93914   0.95029   0.96239   0.96792   0.97914
 Alpha virt. eigenvalues --    0.98324   0.98377   0.99106   0.99464   0.99981
 Alpha virt. eigenvalues --    1.01090   1.01794   1.02470   1.02618   1.03704
 Alpha virt. eigenvalues --    1.04377   1.04955   1.06105   1.06960   1.07766
 Alpha virt. eigenvalues --    1.09026   1.10486   1.11371   1.11909   1.11973
 Alpha virt. eigenvalues --    1.13166   1.14521   1.15228   1.16447   1.17532
 Alpha virt. eigenvalues --    1.19077   1.20056   1.20746   1.21463   1.22635
 Alpha virt. eigenvalues --    1.23962   1.25172   1.26507   1.28282   1.28696
 Alpha virt. eigenvalues --    1.29960   1.30839   1.31925   1.32792   1.34104
 Alpha virt. eigenvalues --    1.36282   1.37407   1.39142   1.39902   1.41867
 Alpha virt. eigenvalues --    1.42645   1.43693   1.48289   1.48764   1.48883
 Alpha virt. eigenvalues --    1.49023   1.49203   1.50823   1.51212   1.52170
 Alpha virt. eigenvalues --    1.53137   1.54804   1.58392   1.59638   1.61341
 Alpha virt. eigenvalues --    1.64306   1.65398   1.66711   1.68420   1.69134
 Alpha virt. eigenvalues --    1.70898   1.72225   1.73932   1.76109   1.76777
 Alpha virt. eigenvalues --    1.78473   1.78991   1.80173   1.82039   1.82869
 Alpha virt. eigenvalues --    1.83476   1.84038   1.86151   1.87411   1.87850
 Alpha virt. eigenvalues --    1.88377   1.89753   1.89976   1.91353   1.92238
 Alpha virt. eigenvalues --    1.92765   1.93262   1.94403   1.94661   1.95460
 Alpha virt. eigenvalues --    1.96759   1.98191   1.99184   2.00176   2.01371
 Alpha virt. eigenvalues --    2.01687   2.02269   2.02736   2.03682   2.05422
 Alpha virt. eigenvalues --    2.05972   2.08517   2.08913   2.09640   2.10180
 Alpha virt. eigenvalues --    2.12230   2.13075   2.14911   2.16053   2.17947
 Alpha virt. eigenvalues --    2.18439   2.20935   2.23088   2.25219   2.25840
 Alpha virt. eigenvalues --    2.27905   2.29480   2.30218   2.32653   2.33644
 Alpha virt. eigenvalues --    2.34648   2.38100   2.40880   2.45077   2.45882
 Alpha virt. eigenvalues --    2.47785   2.49930   2.50481   2.51516   2.54826
 Alpha virt. eigenvalues --    2.56229   2.59409   2.60324   2.61437   2.64438
 Alpha virt. eigenvalues --    2.66527   2.68654   2.70296   2.70767   2.71633
 Alpha virt. eigenvalues --    2.72286   2.74443   2.75685   2.77463   2.79640
 Alpha virt. eigenvalues --    2.79847   2.81426   2.83037   2.86367   2.87643
 Alpha virt. eigenvalues --    2.88210   2.89345   2.94685   2.96128   2.99009
 Alpha virt. eigenvalues --    3.02487   3.04951   3.05614   3.05872   3.08863
 Alpha virt. eigenvalues --    3.10068   3.11669   3.17170   3.22557   3.24568
 Alpha virt. eigenvalues --    3.25581   3.25840   3.26454   3.30114   3.34135
 Alpha virt. eigenvalues --    3.42527   3.44052   3.46190   3.47278   3.48474
 Alpha virt. eigenvalues --    3.51384   3.51808   3.71236   4.19025   4.21496
 Alpha virt. eigenvalues --    4.22275   4.23702   4.27064   4.28891   4.30692
 Alpha virt. eigenvalues --    4.33433   4.35923   4.43002   4.43669   4.48040
 Alpha virt. eigenvalues --    4.54289   4.58590   4.60753   4.63022   4.67336
 Alpha virt. eigenvalues --    4.79104   4.79987   4.95541
          Condensed to atoms (all electrons):
               1          2          3          4          5          6
     1  C    5.482402  -0.044371  -0.268453  -0.009566  -0.132020   0.081106
     2  C   -0.044371   6.626447  -0.275008  -0.092504   0.308329  -0.073047
     3  C   -0.268453  -0.275008   5.816812  -0.099219  -0.028360  -0.050834
     4  O   -0.009566  -0.092504  -0.099219   8.644861  -0.015643   0.304117
     5  C   -0.132020   0.308329  -0.028360  -0.015643  15.479098  -4.506456
     6  C    0.081106  -0.073047  -0.050834   0.304117  -4.506456  13.787234
     7  C   -0.019634  -0.085998   0.003259   0.106191  -1.323467   2.549354
     8  C    0.049260  -0.238286  -0.031406   0.060167  -2.391801  -1.201269
     9  C   -0.009540  -0.023578   0.005624  -0.007031   0.190541  -1.075874
    10  N    0.000045   0.000168  -0.000022   0.000036  -0.005931   0.068568
    11  C   -0.000556   0.079489   0.007095  -0.003509  -0.687825   0.793248
    12  N    0.001614  -0.005770  -0.001093   0.000451   0.072738   0.027976
    13  C    0.017489   0.027193  -0.007058  -0.008269  -0.907256  -0.430354
    14  C    0.008720   0.038515  -0.004879  -0.026475   0.215980  -0.684701
    15  C   -0.152790  -0.147869   0.199186  -0.378993  -0.906416   0.473766
    16  C    0.066771  -0.114033  -0.033768  -0.063261   2.413222  -3.790303
    17  C    0.026972   0.123197  -0.078238  -0.071378   0.670220  -0.137719
    18  N    0.001008  -0.013363  -0.003499   0.017953  -0.121079  -0.049167
    19  C    0.002797  -0.098713   0.037988  -0.035935  -1.866053  -0.318895
    20  N   -0.000261   0.002153  -0.000446   0.000456   0.130258   0.012500
    21  H    0.463195  -0.076460  -0.042718   0.011178  -0.033564   0.034486
    22  H    0.460952  -0.089382  -0.032246  -0.000859   0.038428  -0.030416
    23  H    0.373126   0.002818   0.024100  -0.006690  -0.002764  -0.017727
    24  H    0.000496   0.283820  -0.006932  -0.044826   0.026866   0.003759
    25  H    0.000405  -0.106037   0.472643  -0.004361  -0.000572   0.000391
    26  H    0.000007  -0.053801   0.394198   0.008171  -0.004972   0.012301
    27  H   -0.000233  -0.102495   0.454850  -0.001669  -0.003817   0.016319
    28  H    0.017276  -0.022059  -0.005344  -0.004957  -0.088105   0.393234
    29  H    0.000033   0.000204   0.000016   0.000077   0.007084   0.033027
    30  H    0.000042   0.000101  -0.000114  -0.000556   0.018458   0.009860
               7          8          9         10         11         12
     1  C   -0.019634   0.049260  -0.009540   0.000045  -0.000556   0.001614
     2  C   -0.085998  -0.238286  -0.023578   0.000168   0.079489  -0.005770
     3  C    0.003259  -0.031406   0.005624  -0.000022   0.007095  -0.001093
     4  O    0.106191   0.060167  -0.007031   0.000036  -0.003509   0.000451
     5  C   -1.323467  -2.391801   0.190541  -0.005931  -0.687825   0.072738
     6  C    2.549354  -1.201269  -1.075874   0.068568   0.793248   0.027976
     7  C   18.310531  -7.323692   1.037100  -0.125958  -1.961975   0.057105
     8  C   -7.323692  17.669417  -2.284595   0.428664  -1.216328   0.187340
     9  C    1.037100  -2.284595  12.279076  -0.466141  -2.058908   0.044884
    10  N   -0.125958   0.428664  -0.466141   7.308738   0.070112  -0.002763
    11  C   -1.961975  -1.216328  -2.058908   0.070112  12.045032  -0.254754
    12  N    0.057105   0.187340   0.044884  -0.002763  -0.254754   7.291151
    13  C   -0.903516   1.919691  -0.416817   0.080457  -0.142803   0.019864
    14  C   -2.822516   0.986540  -0.954312   0.101334   0.281768  -0.006997
    15  C    0.068039  -1.910516   0.050456   0.013575  -0.388561   0.018260
    16  C   -2.123578   0.429069  -0.131264   0.003038  -0.130499   0.003036
    17  C   -0.280581  -0.053663  -0.007667   0.000116  -0.012797   0.000021
    18  N    0.003129   0.001493   0.000036  -0.000000   0.000027   0.000003
    19  C   -0.171687  -0.228502   0.027231  -0.000213  -0.025367   0.000180
    20  N    0.012134   0.006787  -0.000933   0.000008   0.000393  -0.000001
    21  H    0.003205   0.003512   0.000006   0.000000  -0.000970   0.000076
    22  H   -0.004427  -0.000602  -0.000071   0.000000  -0.000636   0.000013
    23  H   -0.002527  -0.017133  -0.000903  -0.000002   0.007173   0.000083
    24  H   -0.002021   0.002037  -0.000557  -0.000000  -0.000438   0.000359
    25  H    0.000601  -0.000156   0.000025  -0.000000   0.000119  -0.000003
    26  H    0.001134   0.000454   0.000005   0.000000  -0.000109   0.000003
    27  H    0.001192   0.000236   0.000004   0.000000  -0.000015   0.000000
    28  H   -0.031946  -0.002175   0.000468  -0.000058   0.053055   0.002950
    29  H   -0.006457  -0.033729  -0.009561   0.002225   0.014727  -0.000100
    30  H    0.029945  -0.003758   0.001885   0.000029   0.000237   0.000003
              13         14         15         16         17         18
     1  C    0.017489   0.008720  -0.152790   0.066771   0.026972   0.001008
     2  C    0.027193   0.038515  -0.147869  -0.114033   0.123197  -0.013363
     3  C   -0.007058  -0.004879   0.199186  -0.033768  -0.078238  -0.003499
     4  O   -0.008269  -0.026475  -0.378993  -0.063261  -0.071378   0.017953
     5  C   -0.907256   0.215980  -0.906416   2.413222   0.670220  -0.121079
     6  C   -0.430354  -0.684701   0.473766  -3.790303  -0.137719  -0.049167
     7  C   -0.903516  -2.822516   0.068039  -2.123578  -0.280581   0.003129
     8  C    1.919691   0.986540  -1.910516   0.429069  -0.053663   0.001493
     9  C   -0.416817  -0.954312   0.050456  -0.131264  -0.007667   0.000036
    10  N    0.080457   0.101334   0.013575   0.003038   0.000116  -0.000000
    11  C   -0.142803   0.281768  -0.388561  -0.130499  -0.012797   0.000027
    12  N    0.019864  -0.006997   0.018260   0.003036   0.000021   0.000003
    13  C    9.158713   1.187508  -2.094305  -1.019359   0.113401  -0.000524
    14  C    1.187508   8.988175  -1.512424   1.380564  -0.865870   0.072113
    15  C   -2.094305  -1.512424  23.762345 -10.090742  -1.953099   0.131193
    16  C   -1.019359   1.380564 -10.090742  21.252874  -2.172265   0.377180
    17  C    0.113401  -0.865870  -1.953099  -2.172265  12.030735  -0.190087
    18  N   -0.000524   0.072113   0.131193   0.377180  -0.190087   7.291821
    19  C   -0.306174   0.048375   0.031678  -2.022376  -0.966679  -0.042118
    20  N    0.028545   0.037248   0.073792   0.346070  -0.028061   0.000586
    21  H    0.000158  -0.000169  -0.003695  -0.001450   0.000602   0.000044
    22  H   -0.000107   0.002256   0.004163   0.003581   0.000387   0.000255
    23  H    0.003934   0.002636  -0.012677   0.005853  -0.001376   0.000015
    24  H    0.001649   0.001107  -0.015718  -0.007007   0.005499  -0.000275
    25  H   -0.000262  -0.000762   0.005364   0.004927  -0.011078   0.001418
    26  H   -0.000042  -0.000478  -0.003270   0.001533  -0.000071   0.000219
    27  H    0.000177  -0.000502  -0.001847  -0.016974   0.014718  -0.004441
    28  H   -0.004058  -0.006160  -0.001242  -0.000624   0.000311   0.000019
    29  H    0.317039  -0.035711   0.017254   0.009623  -0.000046   0.000004
    30  H    0.022133   0.326888   0.020950  -0.144094   0.011745  -0.000119
              19         20         21         22         23         24
     1  C    0.002797  -0.000261   0.463195   0.460952   0.373126   0.000496
     2  C   -0.098713   0.002153  -0.076460  -0.089382   0.002818   0.283820
     3  C    0.037988  -0.000446  -0.042718  -0.032246   0.024100  -0.006932
     4  O   -0.035935   0.000456   0.011178  -0.000859  -0.006690  -0.044826
     5  C   -1.866053   0.130258  -0.033564   0.038428  -0.002764   0.026866
     6  C   -0.318895   0.012500   0.034486  -0.030416  -0.017727   0.003759
     7  C   -0.171687   0.012134   0.003205  -0.004427  -0.002527  -0.002021
     8  C   -0.228502   0.006787   0.003512  -0.000602  -0.017133   0.002037
     9  C    0.027231  -0.000933   0.000006  -0.000071  -0.000903  -0.000557
    10  N   -0.000213   0.000008   0.000000   0.000000  -0.000002  -0.000000
    11  C   -0.025367   0.000393  -0.000970  -0.000636   0.007173  -0.000438
    12  N    0.000180  -0.000001   0.000076   0.000013   0.000083   0.000359
    13  C   -0.306174   0.028545   0.000158  -0.000107   0.003934   0.001649
    14  C    0.048375   0.037248  -0.000169   0.002256   0.002636   0.001107
    15  C    0.031678   0.073792  -0.003695   0.004163  -0.012677  -0.015718
    16  C   -2.022376   0.346070  -0.001450   0.003581   0.005853  -0.007007
    17  C   -0.966679  -0.028061   0.000602   0.000387  -0.001376   0.005499
    18  N   -0.042118   0.000586   0.000044   0.000255   0.000015  -0.000275
    19  C   12.600075  -0.449256  -0.000028  -0.000944   0.000232  -0.002229
    20  N   -0.449256   7.278357  -0.000000   0.000000   0.000000   0.000002
    21  H   -0.000028  -0.000000   0.527546  -0.025399  -0.024894  -0.001341
    22  H   -0.000944   0.000000  -0.025399   0.524504  -0.026508   0.005217
    23  H    0.000232   0.000000  -0.024894  -0.026508   0.543104  -0.004843
    24  H   -0.002229   0.000002  -0.001341   0.005217  -0.004843   0.626285
    25  H    0.001056  -0.000000   0.000073   0.000064  -0.000160  -0.004874
    26  H    0.000207  -0.000000   0.000883   0.000021   0.000060  -0.002298
    27  H   -0.001289  -0.000000   0.000056   0.003510  -0.000006   0.004894
    28  H   -0.000329   0.000003   0.000124   0.000027   0.000920   0.002512
    29  H    0.000351   0.000009  -0.000000  -0.000000   0.000000   0.000000
    30  H    0.021000   0.001211   0.000000  -0.000000  -0.000000  -0.000000
              25         26         27         28         29         30
     1  C    0.000405   0.000007  -0.000233   0.017276   0.000033   0.000042
     2  C   -0.106037  -0.053801  -0.102495  -0.022059   0.000204   0.000101
     3  C    0.472643   0.394198   0.454850  -0.005344   0.000016  -0.000114
     4  O   -0.004361   0.008171  -0.001669  -0.004957   0.000077  -0.000556
     5  C   -0.000572  -0.004972  -0.003817  -0.088105   0.007084   0.018458
     6  C    0.000391   0.012301   0.016319   0.393234   0.033027   0.009860
     7  C    0.000601   0.001134   0.001192  -0.031946  -0.006457   0.029945
     8  C   -0.000156   0.000454   0.000236  -0.002175  -0.033729  -0.003758
     9  C    0.000025   0.000005   0.000004   0.000468  -0.009561   0.001885
    10  N   -0.000000   0.000000   0.000000  -0.000058   0.002225   0.000029
    11  C    0.000119  -0.000109  -0.000015   0.053055   0.014727   0.000237
    12  N   -0.000003   0.000003   0.000000   0.002950  -0.000100   0.000003
    13  C   -0.000262  -0.000042   0.000177  -0.004058   0.317039   0.022133
    14  C   -0.000762  -0.000478  -0.000502  -0.006160  -0.035711   0.326888
    15  C    0.005364  -0.003270  -0.001847  -0.001242   0.017254   0.020950
    16  C    0.004927   0.001533  -0.016974  -0.000624   0.009623  -0.144094
    17  C   -0.011078  -0.000071   0.014718   0.000311  -0.000046   0.011745
    18  N    0.001418   0.000219  -0.004441   0.000019   0.000004  -0.000119
    19  C    0.001056   0.000207  -0.001289  -0.000329   0.000351   0.021000
    20  N   -0.000000  -0.000000  -0.000000   0.000003   0.000009   0.001211
    21  H    0.000073   0.000883   0.000056   0.000124  -0.000000   0.000000
    22  H    0.000064   0.000021   0.003510   0.000027  -0.000000  -0.000000
    23  H   -0.000160   0.000060  -0.000006   0.000920   0.000000  -0.000000
    24  H   -0.004874  -0.002298   0.004894   0.002512   0.000000  -0.000000
    25  H    0.526302  -0.025030  -0.023663  -0.000002  -0.000000   0.000000
    26  H   -0.025030   0.540802  -0.025822   0.000011  -0.000000   0.000000
    27  H   -0.023663  -0.025822   0.504564   0.000001   0.000000  -0.000000
    28  H   -0.000002   0.000011   0.000001   0.547776  -0.000094   0.000011
    29  H   -0.000000  -0.000000   0.000000  -0.000094   0.516237  -0.004330
    30  H    0.000000   0.000000  -0.000000   0.000011  -0.004330   0.515776
 Mulliken charges:
               1
     1  C   -0.416292
     2  C    0.170339
     3  C   -0.446135
     4  O   -0.277957
     5  C   -0.545120
     6  C   -0.234481
     7  C    1.007060
     8  C    1.192944
     9  C   -0.189589
    10  N   -0.476022
    11  C   -0.466425
    12  N   -0.456628
    13  C   -0.657049
    14  C   -0.757770
    15  C    0.704145
    16  C    1.564255
    17  C   -0.167249
    18  N   -0.473843
    19  C   -0.234380
    20  N   -0.451554
    21  H    0.165543
    22  H    0.168219
    23  H    0.154155
    24  H    0.128858
    25  H    0.163571
    26  H    0.155882
    27  H    0.182254
    28  H    0.148456
    29  H    0.172118
    30  H    0.172698
 Sum of Mulliken charges =  -0.00000
 Mulliken charges with hydrogens summed into heavy atoms:
               1
     1  C    0.071624
     2  C    0.299197
     3  C    0.055572
     4  O   -0.277957
     5  C   -0.545120
     6  C   -0.086025
     7  C    1.007060
     8  C    1.192944
     9  C   -0.189589
    10  N   -0.476022
    11  C   -0.466425
    12  N   -0.456628
    13  C   -0.484930
    14  C   -0.585073
    15  C    0.704145
    16  C    1.564255
    17  C   -0.167249
    18  N   -0.473843
    19  C   -0.234380
    20  N   -0.451554
 Electronic spatial extent (au):  <R**2>=           6147.2851
 Charge=             -0.0000 electrons
 Dipole moment (field-independent basis, Debye):
    X=             -1.3069    Y=              3.0861    Z=             -0.0631  Tot=              3.3520
 Quadrupole moment (field-independent basis, Debye-Ang):
   XX=           -167.9892   YY=           -125.8952   ZZ=           -114.7582
   XY=            -12.5272   XZ=              0.8148   YZ=              0.6568
 Traceless Quadrupole moment (field-independent basis, Debye-Ang):
   XX=            -31.7750   YY=             10.3190   ZZ=             21.4560
   XY=            -12.5272   XZ=              0.8148   YZ=              0.6568
 Octapole moment (field-independent basis, Debye-Ang**2):
  XXX=            -82.0774  YYY=            103.7685  ZZZ=             -0.5709  XYY=            -26.4372
  XXY=             48.1602  XXZ=             -0.8038  XZZ=             -8.1080  YZZ=              8.9569
  YYZ=             -1.6253  XYZ=              0.6902
 Hexadecapole moment (field-independent basis, Debye-Ang**3):
 XXXX=          -6854.1557 YYYY=          -3328.2549 ZZZZ=           -253.3733 XXXY=             60.2248
 XXXZ=             10.6402 YYYX=           -384.1164 YYYZ=             11.4357 ZZZX=              3.4671
 ZZZY=             -0.6619 XXYY=          -1815.4358 XXZZ=           -928.7833 YYZZ=           -551.4210
 XXYZ=              9.3752 YYXZ=             14.8231 ZZXY=            -10.6294
 N-N= 1.332741645070D+03 E-N=-4.686014995135D+03  KE= 8.635444472468D+02
 Unable to Open any file for archive entry.
 1\1\GINC-N2\SP\RB3LYP TD-FC\6-31+G(d,p)\C15H10N4O1\HPCMGAC13\11-Aug-20
 25\0\\# td=(50-50,nstates=3) b3lyp/6-31+g(d,p) geom=connectivity\\Titl
 e Card Required\\0,1\C,0,-0.99219,-3.141548,-1.241379\C,0,-1.240722,-2
 .620649,0.170951\C,0,-2.485575,-3.206739,0.821083\O,0,-1.467489,-1.173
 99,0.129584\C,0,-0.464931,-0.293571,0.073106\C,0,0.870471,-0.603482,0.
 072064\C,0,1.876107,0.417319,0.042014\C,0,3.233524,0.096892,0.047078\C
 ,0,4.248349,1.098469,0.020257\N,0,5.07386,1.920777,-0.001896\C,0,3.674
 342,-1.259235,0.079796\N,0,4.006351,-2.376121,0.106288\C,0,1.451173,1.
 801916,0.00653\C,0,0.135351,2.12072,-0.004515\C,0,-0.901597,1.108571,0
 .01917\C,0,-2.235876,1.487996,-0.014083\C,0,-3.372141,0.620008,-0.0116
 25\N,0,-4.371665,0.022195,-0.019573\C,0,-2.587445,2.876251,-0.065398\N
 ,0,-2.877402,4.003303,-0.106421\H,0,-0.807943,-4.219884,-1.206391\H,0,
 -1.869804,-2.961115,-1.869458\H,0,-0.125039,-2.668615,-1.71023\H,0,-0.
 371473,-2.801666,0.813698\H,0,-2.625079,-2.806358,1.828686\H,0,-2.3833
 28,-4.294007,0.890764\H,0,-3.375967,-2.974253,0.230411\H,0,1.192219,-1
 .635814,0.095551\H,0,2.202609,2.583536,-0.013783\H,0,-0.167332,3.16149
 4,-0.034984\\Version=ES64L-G16RevC.02\State=1-A\HF=-871.7819708\RMSD=2
 .898e-09\PG=C01 [X(C15H10N4O1)]\\@
 The archive entry for this job was punched.


 DEFINE YOUR TERMS, YOU WILL PERMIT ME AGAIN TO SAY, 
 OR WE SHALL NEVER UNDERSTAND ONE ANOTHER.

                                    -- VOLTAIRE
 Job cpu time:       0 days  0 hours 59 minutes 55.5 seconds.
 Elapsed time:       0 days  0 hours 10 minutes  6.9 seconds.
 File lengths (MBytes):  RWF=   1062 Int=      0 D2E=      0 Chk=     48 Scr=      2
 Normal termination of Gaussian 16 at Mon Aug 11 15:03:39 2025.
