 Entering Gaussian System, Link 0=g16
 Input=M1416E.gjf
 Output=M1416E.log
 Initial command:
 /hpc/softwares/Gaussian/g16/l1.exe "/hpc/home/hpcmgac13/pbs.13123.admin1.x8z/Gau-2832990.inp" -scrdir="/hpc/home/hpcmgac13/pbs.13123.admin1.x8z/"
 Default linda workers: n2
 Default is to use   8 SMP processors on each worker.
 Entering Link 1 = /hpc/softwares/Gaussian/g16/l1.exe PID=   2832991.
  
 Copyright (c) 1988-2021, Gaussian, Inc.  All Rights Reserved.
  
 This is part of the Gaussian(R) 16 program.  It is based on
 the Gaussian(R) 09 system (copyright 2009, Gaussian, Inc.),
 the Gaussian(R) 03 system (copyright 2003, Gaussian, Inc.),
 the Gaussian(R) 98 system (copyright 1998, Gaussian, Inc.),
 the Gaussian(R) 94 system (copyright 1995, Gaussian, Inc.),
 the Gaussian 92(TM) system (copyright 1992, Gaussian, Inc.),
 the Gaussian 90(TM) system (copyright 1990, Gaussian, Inc.),
 the Gaussian 88(TM) system (copyright 1988, Gaussian, Inc.),
 the Gaussian 86(TM) system (copyright 1986, Carnegie Mellon
 University), and the Gaussian 82(TM) system (copyright 1983,
 Carnegie Mellon University). Gaussian is a federally registered
 trademark of Gaussian, Inc.
  
 This software contains proprietary and confidential information,
 including trade secrets, belonging to Gaussian, Inc.
  
 This software is provided under written license and may be
 used, copied, transmitted, or stored only in accord with that
 written license.
  
 The following legend is applicable only to US Government
 contracts under FAR:
  
                    RESTRICTED RIGHTS LEGEND
  
 Use, reproduction and disclosure by the US Government is
 subject to restrictions as set forth in subparagraphs (a)
 and (c) of the Commercial Computer Software - Restricted
 Rights clause in FAR 52.227-19.
  
 Gaussian, Inc.
 340 Quinnipiac St., Bldg. 40, Wallingford CT 06492
  
  
 ---------------------------------------------------------------
 Warning -- This program may not be used in any manner that
 competes with the business of Gaussian, Inc. or will provide
 assistance to any competitor of Gaussian, Inc.  The licensee
 of this program is prohibited from giving any competitor of
 Gaussian, Inc. access to this program.  By using this program,
 the user acknowledges that Gaussian, Inc. is engaged in the
 business of creating and licensing software in the field of
 computational chemistry and represents and warrants to the
 licensee that it is not a competitor of Gaussian, Inc. and that
 it will not use this program in any manner prohibited above.
 ---------------------------------------------------------------
  

 Cite this work as:
 Gaussian 16, Revision C.02,
 M. J. Frisch, G. W. Trucks, H. B. Schlegel, G. E. Scuseria, 
 M. A. Robb, J. R. Cheeseman, G. Scalmani, V. Barone, 
 G. A. Petersson, H. Nakatsuji, X. Li, M. Caricato, A. V. Marenich, 
 J. Bloino, B. G. Janesko, R. Gomperts, B. Mennucci, H. P. Hratchian, 
 J. V. Ortiz, A. F. Izmaylov, J. L. Sonnenberg, D. Williams-Young, 
 F. Ding, F. Lipparini, F. Egidi, J. Goings, B. Peng, A. Petrone, 
 T. Henderson, D. Ranasinghe, V. G. Zakrzewski, J. Gao, N. Rega, 
 G. Zheng, W. Liang, M. Hada, M. Ehara, K. Toyota, R. Fukuda, 
 J. Hasegawa, M. Ishida, T. Nakajima, Y. Honda, O. Kitao, H. Nakai, 
 T. Vreven, K. Throssell, J. A. Montgomery, Jr., J. E. Peralta, 
 F. Ogliaro, M. J. Bearpark, J. J. Heyd, E. N. Brothers, K. N. Kudin, 
 V. N. Staroverov, T. A. Keith, R. Kobayashi, J. Normand, 
 K. Raghavachari, A. P. Rendell, J. C. Burant, S. S. Iyengar, 
 J. Tomasi, M. Cossi, J. M. Millam, M. Klene, C. Adamo, R. Cammi, 
 J. W. Ochterski, R. L. Martin, K. Morokuma, O. Farkas, 
 J. B. Foresman, and D. J. Fox, Gaussian, Inc., Wallingford CT, 2019.
 
 ******************************************
 Gaussian 16:  ES64L-G16RevC.02  7-Dec-2021
                11-Aug-2025 
 ******************************************
 SetLPE:    new flags="-opt 'Tsnet.Node.lindarsharg: ssh'  -nodelist 'n2.head.cm.mguif.local' -env GAUSS_MDEF=1342177280 -env GAUSS_EXEDIR="/hpc/softwares/Gaussian/g16/bsd:/hpc/softwares/Gaussian/g16""
 Will use up to    1 processors via Linda.
 ----------------------------------------------------------
 # td=(50-50,nstates=3) b3lyp/6-31+g(d,p) geom=connectivity
 ----------------------------------------------------------
 1/38=1,57=2,172=1/1;
 2/12=2,17=6,18=5,40=1/2;
 3/5=1,6=6,7=111,11=9,25=1,30=1,74=-5/1,2,3,8;
 4//1;
 5/5=2,38=5/2;
 8/6=1,10=2,108=3/1;
 9/41=3,42=1,48=2,70=2/14;
 6/7=2,8=2,9=2,10=2/1;
 99/5=1,9=1/99;
 -------------------
 Title Card Required
 -------------------
 Symbolic Z-matrix:
 Charge =  0 Multiplicity = 1
 C                    -3.17251   2.80983   0.66673 
 N                    -2.58531   1.53005   0.32144 
 C                    -1.49162   1.02346   1.15842 
 C                    -1.2513   -0.42385   0.64883 
 C                    -0.71541  -1.347     1.7499 
 C                    -0.34218  -0.43647  -0.62362 
 N                     1.08783  -0.21393  -0.39574 
 C                     1.82741   0.95733  -0.40215 
 C                     1.26297   2.22542  -0.6274 
 N                     0.83275   3.29598  -0.81117 
 C                     3.17611   0.60175  -0.20895 
 C                     4.3944    1.31921  -0.11794 
 C                     5.55613   0.59941   0.06977 
 C                     5.5556   -0.82494   0.17093 
 C                     4.38649  -1.55176   0.08469 
 C                     3.20241  -0.8142   -0.1051 
 N                     1.92245  -1.28671  -0.23556 
 O                     1.50863  -2.4866   -0.24205 
 C                    -2.65577  -0.76617   0.15568 
 C                    -3.22622  -1.98946  -0.16745 
 C                    -4.5445   -2.02486  -0.65158 
 C                    -5.26002  -0.83457  -0.80964 
 C                    -4.69308   0.40796  -0.49424 
 C                    -3.37791   0.43187  -0.01875 
 H                    -2.37631   3.5513    0.77168 
 H                    -3.83507   3.14639  -0.13503 
 H                    -3.74993   2.77147   1.60712 
 H                    -0.61623   1.67356   1.08833 
 H                    -1.80203   0.98318   2.21809 
 H                     0.24271  -0.98334   2.13833 
 H                    -1.4245   -1.38402   2.58189 
 H                    -0.55184  -2.36116   1.3791 
 H                    -0.40844  -1.41343  -1.10585 
 H                    -0.67521   0.33622  -1.32064 
 H                     4.40557   2.40139  -0.1956 
 H                     6.50232   1.12683   0.1426 
 H                     6.49861  -1.34168   0.318 
 H                     4.3556   -2.63281   0.15515 
 H                    -2.66753  -2.9129   -0.03755 
 H                    -5.00769  -2.97542  -0.89645 
 H                    -6.28187  -0.86863  -1.17732 
 H                    -5.26725   1.32037  -0.61713 
 
                          Input orientation:                          
 ---------------------------------------------------------------------
 Center     Atomic      Atomic             Coordinates (Angstroms)
 Number     Number       Type             X           Y           Z
 ---------------------------------------------------------------------
      1          6           0       -3.172506    2.809831    0.666734
      2          7           0       -2.585308    1.530045    0.321442
      3          6           0       -1.491622    1.023460    1.158420
      4          6           0       -1.251300   -0.423854    0.648833
      5          6           0       -0.715414   -1.346997    1.749900
      6          6           0       -0.342184   -0.436472   -0.623624
      7          7           0        1.087832   -0.213928   -0.395739
      8          6           0        1.827406    0.957325   -0.402148
      9          6           0        1.262973    2.225425   -0.627399
     10          7           0        0.832751    3.295977   -0.811169
     11          6           0        3.176110    0.601751   -0.208950
     12          6           0        4.394404    1.319213   -0.117941
     13          6           0        5.556130    0.599406    0.069773
     14          6           0        5.555604   -0.824940    0.170934
     15          6           0        4.386488   -1.551757    0.084691
     16          6           0        3.202411   -0.814198   -0.105101
     17          7           0        1.922453   -1.286710   -0.235555
     18          8           0        1.508631   -2.486600   -0.242053
     19          6           0       -2.655772   -0.766170    0.155684
     20          6           0       -3.226221   -1.989458   -0.167451
     21          6           0       -4.544501   -2.024862   -0.651581
     22          6           0       -5.260022   -0.834574   -0.809644
     23          6           0       -4.693085    0.407963   -0.494241
     24          6           0       -3.377910    0.431873   -0.018750
     25          1           0       -2.376314    3.551296    0.771675
     26          1           0       -3.835073    3.146394   -0.135027
     27          1           0       -3.749927    2.771473    1.607117
     28          1           0       -0.616226    1.673558    1.088332
     29          1           0       -1.802031    0.983184    2.218095
     30          1           0        0.242714   -0.983339    2.138334
     31          1           0       -1.424499   -1.384022    2.581885
     32          1           0       -0.551837   -2.361156    1.379097
     33          1           0       -0.408435   -1.413426   -1.105848
     34          1           0       -0.675207    0.336222   -1.320636
     35          1           0        4.405568    2.401390   -0.195597
     36          1           0        6.502319    1.126827    0.142596
     37          1           0        6.498606   -1.341684    0.318003
     38          1           0        4.355598   -2.632805    0.155147
     39          1           0       -2.667525   -2.912903   -0.037546
     40          1           0       -5.007686   -2.975422   -0.896446
     41          1           0       -6.281874   -0.868633   -1.177320
     42          1           0       -5.267251    1.320367   -0.617127
 ---------------------------------------------------------------------
                    Distance matrix (angstroms):
                    1          2          3          4          5
     1  C    0.000000
     2  N    1.449786   0.000000
     3  C    2.501649   1.467416   0.000000
     4  C    3.761392   2.388406   1.553110   0.000000
     5  C    4.948714   3.716768   2.563477   1.533530   0.000000
     6  C    4.496024   3.129208   2.574547   1.563905   2.569430
     7  N    5.331271   4.128892   3.255783   2.570358   3.023129
     8  C    5.438144   4.508174   3.668200   3.534211   4.050573
     9  C    4.657229   4.024067   3.495950   3.868981   4.725226
    10  N    4.296815   4.010542   3.800832   4.506886   5.523866
    11  C    6.778449   5.859777   4.882137   4.624891   4.772701
    12  C    7.752147   6.996705   6.030080   5.958204   6.058692
    13  C    9.023936   8.198319   7.143933   6.908218   6.778169
    14  C    9.467697   8.476028   7.352218   6.835437   6.487784
    15  C    8.746463   7.626237   6.506675   5.777116   5.370684
    16  C    7.373526   6.259002   5.196866   4.533909   4.367408
    17  N    6.599574   5.344555   4.351547   3.405785   3.302122
    18  O    7.126789   5.762925   4.825284   3.558907   3.195770
    19  C    3.649105   2.303268   2.358707   1.527389   2.577571
    20  C    4.871542   3.610635   3.720812   2.649103   3.223840
    21  C    5.195631   4.174036   4.678508   3.885804   4.570396
    22  C    4.451865   3.744980   4.639656   4.285522   5.240926
    23  C    3.070667   2.523317   3.655064   3.720809   4.892639
    24  C    2.483297   1.396399   2.300823   2.387552   3.658058
    25  H    1.093025   2.081308   2.705958   4.133106   5.263914
    26  H    1.093202   2.093528   3.416375   4.476270   5.785826
    27  H    1.104177   2.133176   2.890816   4.167920   5.117661
    28  H    2.829033   2.118018   1.092638   2.235087   3.093746
    29  H    2.760718   2.123646   1.104938   2.178450   2.613367
    30  H    5.312012   4.197130   2.827613   2.182594   1.095964
    31  H    4.930693   3.866376   2.797629   2.165320   1.093788
    32  H    5.840760   4.516092   3.519591   2.185331   1.092140
    33  H    5.349583   3.929371   3.498373   2.183708   2.872968
    34  H    4.037931   2.787493   2.698990   2.188243   3.501862
    35  H    7.637908   7.063917   6.205554   6.379281   6.637757
    36  H    9.834097   9.098326   8.058888   7.923351   7.797365
    37  H   10.530294   9.527032   8.375199   7.811076   7.354756
    38  H    9.303567   8.095255   6.968846   6.046528   5.469159
    39  H    5.787979   4.458186   4.278789   2.944856   3.075347
    40  H    6.267421   5.258365   5.707560   4.796751   5.298916
    41  H    5.157500   4.654519   5.655282   5.370227   6.307371
    42  H    2.873110   2.849157   4.182833   4.557721   5.782462
                    6          7          8          9         10
     6  C    0.000000
     7  N    1.465061   0.000000
     8  C    2.588212   1.385224   0.000000
     9  C    3.108414   2.456580   1.406201   0.000000
    10  N    3.917502   3.543597   2.574088   1.168308   0.000000
    11  C    3.691647   2.249695   1.408105   2.543916   3.621167
    12  C    5.076752   3.655285   2.607914   3.299489   4.132013
    13  C    6.028594   4.565512   3.775473   4.643402   5.509797
    14  C    5.963735   4.544826   4.171852   5.326232   6.344432
    15  C    4.909777   3.591898   3.616823   4.952830   6.077182
    16  C    3.602179   2.217259   2.262116   3.643285   4.796599
    17  N    2.449915   1.368617   2.252217   3.594934   4.745503
    18  O    2.788214   2.316404   3.462350   4.734133   5.849693
    19  C    2.463475   3.824083   4.835338   4.991936   5.441106
    20  C    3.307193   4.670725   5.854721   6.174921   6.695181
    21  C    4.492575   5.921834   7.039663   7.196685   7.566481
    22  C    4.937430   6.391539   7.321789   7.207376   7.360933
    23  C    4.433977   5.815106   6.544240   6.228605   6.243071
    24  C    3.214892   4.527917   5.245799   5.012492   5.153706
    25  H    4.689012   5.247864   5.077185   4.118222   3.587294
    26  H    5.027517   5.966132   6.076763   5.203911   4.718911
    27  H    5.184576   6.027268   6.199590   5.515469   5.208085
    28  H    2.730956   2.944297   2.950569   2.603782   2.887885
    29  H    3.495990   4.076336   4.476511   4.362826   4.633306
    30  H    2.875688   2.779882   3.568119   4.357336   5.230703
    31  H    3.513480   4.067821   4.996123   5.527216   6.205674
    32  H    2.785544   3.232514   4.454879   5.325062   6.222339
    33  H    1.091498   2.044961   3.333862   4.032835   4.879124
    34  H    1.092605   2.065528   2.737236   2.793959   3.360602
    35  H    5.547776   4.229340   2.962247   3.176999   3.734198
    36  H    7.062451   5.603936   4.709595   5.408378   6.144826
    37  H    6.964372   5.572947   5.255870   6.405459   7.408430
    38  H    5.243998   4.102772   4.426213   5.811980   6.963812
    39  H    3.447232   4.638478   5.942727   6.496088   7.169422
    40  H    5.318610   6.710581   7.901222   8.151218   8.570205
    41  H    5.981075   7.439897   8.348379   8.173147   8.252026
    42  H    5.229035   6.541418   7.107192   6.592652   6.414882
                   11         12         13         14         15
    11  C    0.000000
    12  C    1.416783   0.000000
    13  C    2.396286   1.379480   0.000000
    14  C    2.800313   2.455448   1.427934   0.000000
    15  C    2.487737   2.878123   2.448630   1.379323   0.000000
    16  C    1.419996   2.443861   2.751154   2.369352   1.407854
    17  N    2.266859   3.593774   4.105395   3.684868   2.498855
    18  O    3.509914   4.777793   5.099306   4.394276   3.043477
    19  C    6.001251   7.357219   8.325113   8.211600   7.086298
    20  C    6.906948   8.308049   9.159049   8.865160   7.629449
    21  C    8.167181   9.558851  10.460874  10.204336   8.973767
    22  C    8.578589   9.915906  10.946178  10.859990   9.714388
    23  C    7.876749   9.140811  10.266507  10.343990   9.306681
    24  C    6.558980   7.823431   8.936049   9.023482   8.014447
    25  H    6.363242   7.184444   8.492938   9.078968   8.499917
    26  H    7.459045   8.429898   9.732614  10.200486   9.471798
    27  H    7.481696   8.450740   9.679049  10.079172   9.338595
    28  H    4.148918   5.165953   6.347381   6.721279   6.036315
    29  H    5.551390   6.630670   7.674966   7.848247   7.019623
    30  H    4.077630   5.256335   5.917467   5.667676   4.659551
    31  H    5.735648   6.961047   7.679445   7.405882   6.327060
    32  H    5.019791   6.344410   6.912779   6.412523   5.168914
    33  H    4.208839   5.613425   6.403875   6.127499   4.942449
    34  H    4.017337   5.302236   6.389997   6.511228   5.582129
    35  H    2.179552   1.085017   2.154382   3.444725   3.963117
    36  H    3.385699   2.132650   1.085702   2.169439   3.413928
    37  H    3.885048   3.420246   2.172029   1.085314   2.135324
    38  H    3.462096   3.961632   3.449022   2.169940   1.083782
    39  H    6.821308   8.233354   8.942949   8.486631   7.185176
    40  H    8.957864  10.365773  11.194069  10.832681   9.551961
    41  H    9.620459  10.949514  11.993695  11.914092  10.764445
    42  H    8.483712   9.674542  10.869093  11.061536  10.096352
                   16         17         18         19         20
    16  C    0.000000
    17  N    1.370612   0.000000
    18  O    2.384235   1.269262   0.000000
    19  C    5.864181   4.624303   4.523309   0.000000
    20  C    6.535475   5.196858   4.761464   1.387898   0.000000
    21  C    7.859961   6.522227   6.084515   2.409000   1.404812
    22  C    8.491735   7.219553   6.990423   2.778247   2.425390
    23  C    7.998998   6.834046   6.848604   2.439597   2.829507
    24  C    6.697819   5.576233   5.696107   1.409687   2.430631
    25  H    7.137818   6.549825   7.250974   4.370132   5.683683
    26  H    8.075479   7.267161   7.765130   4.096757   5.171917
    27  H    8.007729   7.213888   7.662845   3.977279   5.107820
    28  H    4.711178   4.118344   4.857145   3.313888   4.669770
    29  H    5.802780   5.004458   5.390010   2.835957   4.068875
    30  H    3.717716   2.923851   3.086840   3.518421   4.285141
    31  H    5.380789   4.376017   4.218241   2.790023   3.342395
    32  H    4.323228   3.143827   2.624765   2.909856   3.111639
    33  H    3.794572   2.491286   2.360717   2.657240   3.025280
    34  H    4.223377   3.249484   3.728380   2.705074   3.639546
    35  H    3.434499   4.446295   5.682152   7.747216   8.804802
    36  H    3.836447   5.190697   6.175899   9.351697  10.220169
    37  H    3.364842   4.609840   5.150179   9.173887   9.758460
    38  H    2.169078   2.807991   2.878257   7.255593   7.615901
    39  H    6.234202   4.873562   4.202837   2.155444   1.087091
    40  H    8.526594   7.163473   6.567310   3.394005   2.162678
    41  H    9.544856   8.268778   8.011524   3.864714   3.407800
    42  H    8.749498   7.657303   7.781147   3.430845   3.914454
                   21         22         23         24         25
    21  C    0.000000
    22  C    1.397762   0.000000
    23  C    2.442431   1.401711   0.000000
    24  C    2.792303   2.402446   1.398695   0.000000
    25  H    6.149815   5.481988   4.104938   3.370277   0.000000
    26  H    5.245189   4.281786   2.892097   2.755203   1.764662
    27  H    5.360774   4.596161   3.300217   2.873250   1.786869
    28  H    5.668946   5.608733   4.552697   3.224021   2.593083
    29  H    4.980414   4.942585   4.005726   2.791203   3.002854
    30  H    5.637892   6.244422   5.764398   4.445757   5.412022
    31  H    4.538765   5.149330   4.832951   3.725130   5.342301
    32  H    4.492005   5.411843   5.322344   4.212087   6.217296
    33  H    4.205622   4.894967   4.695716   3.661242   5.660928
    34  H    4.581898   4.759454   4.102611   3.001443   4.196216
    35  H    9.995167  10.211373   9.319250   8.030741   6.946353
    36  H   11.515038  11.962714  11.236521   9.905954   9.225178
    37  H   11.106621  11.823455  11.356714  10.040143  10.144520
    38  H    8.957241   9.829782   9.568001   8.320435   9.161979
    39  H    2.165339   3.411250   3.916582   3.419434   6.521159
    40  H    1.085386   2.157415   3.421701   3.877651   7.232205
    41  H    2.152146   1.086521   2.149545   3.386238   6.211904
    42  H    3.422588   2.163535   1.085011   2.171885   3.906831
                   26         27         28         29         30
    26  H    0.000000
    27  H    1.784063   0.000000
    28  H    3.745241   3.360749   0.000000
    29  H    3.788129   2.713958   1.777390   0.000000
    30  H    6.233074   5.506540   2.983183   2.838055   0.000000
    31  H    5.806647   4.860651   3.497542   2.424570   1.771125
    32  H    6.588271   6.051748   4.045690   3.667630   1.762422
    33  H    5.785871   6.003260   3.793030   4.328331   3.336718
    34  H    4.391752   4.894496   2.755916   3.769736   3.814223
    35  H    8.274471   8.360552   5.234179   6.809662   5.850895
    36  H   10.536479  10.486097   7.201876   8.560990   6.900611
    37  H   11.275327  11.118107   7.765689   8.827000   6.525197
    38  H   10.028481   9.849567   6.643390   7.432868   4.854852
    39  H    6.171527   6.015700   5.148889   4.584375   4.114263
    40  H    6.279444   6.393480   6.696064   5.970524   6.383180
    41  H    4.815979   5.235859   6.610256   5.918367   7.319629
    42  H    2.370217   3.058634   4.966424   4.489981   6.577183
                   31         32         33         34         35
    31  H    0.000000
    32  H    1.778491   0.000000
    33  H    3.825261   2.663402   0.000000
    34  H    4.330167   3.818328   1.782854   0.000000
    35  H    7.485548   7.052473   6.209348   5.598652   0.000000
    36  H    8.665387   7.965932   7.467933   7.367699   2.476944
    37  H    8.240300   7.202360   7.052639   7.547456   4.319166
    38  H    6.392029   5.065053   5.076712   6.025119   5.046646
    39  H    3.277806   2.605271   2.914307   4.021500   8.848465
    40  H    5.241237   5.040834   4.861768   5.469671  10.863271
    41  H    6.163712   6.449513   5.899084   5.736456  11.219548
    42  H    5.684553   6.306635   5.596478   4.748719   9.742162
                   36         37         38         39         40
    36  H    0.000000
    37  H    2.474738   0.000000
    38  H    4.329365   2.507189   0.000000
    39  H   10.021872   9.306616   7.031347   0.000000
    40  H   12.263290  11.684979   9.428379   2.493586   0.000000
    41  H   13.006138  12.876352  10.864786   4.306001   2.478105
    42  H   11.795652  12.099437  10.431836   5.001506   4.312679
                   41         42
    41  H    0.000000
    42  H    2.476893   0.000000
 Stoichiometry    C19H18N4O
 Framework group  C1[X(C19H18N4O)]
 Deg. of freedom   120
 Full point group                 C1      NOp   1
 Largest Abelian subgroup         C1      NOp   1
 Largest concise Abelian subgroup C1      NOp   1
                         Standard orientation:                         
 ---------------------------------------------------------------------
 Center     Atomic      Atomic             Coordinates (Angstroms)
 Number     Number       Type             X           Y           Z
 ---------------------------------------------------------------------
      1          6           0       -3.172506    2.809831    0.666734
      2          7           0       -2.585308    1.530045    0.321442
      3          6           0       -1.491622    1.023460    1.158420
      4          6           0       -1.251300   -0.423854    0.648833
      5          6           0       -0.715414   -1.346997    1.749900
      6          6           0       -0.342184   -0.436472   -0.623624
      7          7           0        1.087832   -0.213928   -0.395739
      8          6           0        1.827406    0.957325   -0.402148
      9          6           0        1.262973    2.225425   -0.627399
     10          7           0        0.832751    3.295977   -0.811169
     11          6           0        3.176110    0.601751   -0.208950
     12          6           0        4.394404    1.319213   -0.117941
     13          6           0        5.556130    0.599406    0.069773
     14          6           0        5.555604   -0.824940    0.170934
     15          6           0        4.386488   -1.551757    0.084691
     16          6           0        3.202411   -0.814198   -0.105101
     17          7           0        1.922453   -1.286710   -0.235555
     18          8           0        1.508631   -2.486600   -0.242053
     19          6           0       -2.655772   -0.766170    0.155684
     20          6           0       -3.226221   -1.989458   -0.167451
     21          6           0       -4.544501   -2.024862   -0.651581
     22          6           0       -5.260022   -0.834574   -0.809644
     23          6           0       -4.693085    0.407963   -0.494241
     24          6           0       -3.377910    0.431873   -0.018750
     25          1           0       -2.376314    3.551296    0.771675
     26          1           0       -3.835073    3.146394   -0.135027
     27          1           0       -3.749927    2.771473    1.607117
     28          1           0       -0.616226    1.673558    1.088332
     29          1           0       -1.802031    0.983184    2.218095
     30          1           0        0.242714   -0.983339    2.138334
     31          1           0       -1.424499   -1.384022    2.581885
     32          1           0       -0.551837   -2.361156    1.379097
     33          1           0       -0.408435   -1.413426   -1.105848
     34          1           0       -0.675207    0.336222   -1.320636
     35          1           0        4.405568    2.401390   -0.195597
     36          1           0        6.502319    1.126827    0.142596
     37          1           0        6.498606   -1.341684    0.318003
     38          1           0        4.355598   -2.632805    0.155147
     39          1           0       -2.667525   -2.912903   -0.037546
     40          1           0       -5.007686   -2.975422   -0.896446
     41          1           0       -6.281874   -0.868633   -1.177320
     42          1           0       -5.267251    1.320367   -0.617127
 ---------------------------------------------------------------------
 Rotational constants (GHZ):           0.5502870           0.1452499           0.1224444
 Standard basis: 6-31+G(d,p) (6D, 7F)
 There are   546 symmetry adapted cartesian basis functions of A   symmetry.
 There are   546 symmetry adapted basis functions of A   symmetry.
   546 basis functions,   894 primitive gaussians,   546 cartesian basis functions
    84 alpha electrons       84 beta electrons
       nuclear repulsion energy      1986.8385008714 Hartrees.
 NAtoms=   42 NActive=   42 NUniq=   42 SFac= 1.00D+00 NAtFMM=   60 NAOKFM=F Big=F
 Integral buffers will be    131072 words long.
 Regular integral format.
 Two-electron integral symmetry is turned on.
 One-electron integrals computed using PRISM.
 NBasis=   546 RedAO= T EigKep=  1.31D-06  NBF=   546
 NBsUse=   542 1.00D-06 EigRej=  9.29D-07 NBFU=   542
 ExpMin= 4.38D-02 ExpMax= 5.48D+03 ExpMxC= 8.25D+02 IAcc=3 IRadAn=         5 AccDes= 0.00D+00
 Harris functional with IExCor=  402 and IRadAn=       5 diagonalized for initial guess.
 HarFok:  IExCor=  402 AccDes= 0.00D+00 IRadAn=         5 IDoV= 1 UseB2=F ITyADJ=14
 ICtDFT=  3500011 ScaDFX=  1.000000  1.000000  1.000000  1.000000
 FoFCou: FMM=F IPFlag=           0 FMFlag=      100000 FMFlg1=           0
         NFxFlg=           0 DoJE=T BraDBF=F KetDBF=T FulRan=T
         wScrn=  0.000000 ICntrl=       500 IOpCl=  0 I1Cent=   200000004 NGrid=           0
         NMat0=    1 NMatS0=      1 NMatT0=    0 NMatD0=    1 NMtDS0=    0 NMtDT0=    0
 Petite list used in FoFCou.
 Requested convergence on RMS density matrix=1.00D-08 within 128 cycles.
 Requested convergence on MAX density matrix=1.00D-06.
 Requested convergence on             energy=1.00D-06.
 No special actions if energy rises.
 SCF Done:  E(RB3LYP) =  -1029.05584071     A.U. after   17 cycles
            NFock= 17  Conv=0.49D-08     -V/T= 2.0095
 DoSCS=F DFT=T ScalE2(SS,OS)=  1.000000  1.000000
 ExpMin= 4.38D-02 ExpMax= 5.48D+03 ExpMxC= 8.25D+02 IAcc=3 IRadAn=         5 AccDes= 0.00D+00
 HarFok:  IExCor=  205 AccDes= 0.00D+00 IRadAn=         5 IDoV=-2 UseB2=F ITyADJ=14
 ICtDFT= 12500011 ScaDFX=  1.000000  1.000000  1.000000  1.000000
 GSVD:  LWork=        -768 too small for GESVD, short by        3240 words or        3240 for optimal perf.
 Range of M.O.s used for correlation:    25   542
 NBasis=   546 NAE=    84 NBE=    84 NFC=    24 NFV=     0
 NROrb=    518 NOA=    60 NOB=    60 NVA=   458 NVB=   458

 **** Warning!!: The largest alpha MO coefficient is  0.19529388D+03

 Orbital symmetries:
       Occupied  (A) (A) (A) (A) (A) (A) (A) (A) (A) (A) (A) (A)
                 (A) (A) (A) (A) (A) (A) (A) (A) (A) (A) (A) (A)
                 (A) (A) (A) (A) (A) (A) (A) (A) (A) (A) (A) (A)
                 (A) (A) (A) (A) (A) (A) (A) (A) (A) (A) (A) (A)
                 (A) (A) (A) (A) (A) (A) (A) (A) (A) (A) (A) (A)
                 (A) (A) (A) (A) (A) (A) (A) (A) (A) (A) (A) (A)
                 (A) (A) (A) (A) (A) (A) (A) (A) (A) (A) (A) (A)
       Virtual   (A) (A) (A) (A) (A) (A) (A) (A) (A) (A) (A) (A)
                 (A) (A) (A) (A) (A) (A) (A) (A) (A) (A) (A) (A)
                 (A) (A) (A) (A) (A) (A) (A) (A) (A) (A) (A) (A)
                 (A) (A) (A) (A) (A) (A) (A) (A) (A) (A) (A) (A)
                 (A) (A) (A) (A) (A) (A) (A) (A) (A) (A) (A) (A)
                 (A) (A) (A) (A) (A) (A) (A) (A) (A) (A) (A) (A)
                 (A) (A) (A) (A) (A) (A) (A) (A) (A) (A) (A) (A)
                 (A) (A) (A) (A) (A) (A) (A) (A) (A) (A) (A) (A)
                 (A) (A) (A) (A) (A) (A) (A) (A) (A) (A) (A) (A)
                 (A) (A) (A) (A) (A) (A) (A) (A) (A) (A) (A) (A)
                 (A) (A) (A) (A) (A) (A) (A) (A) (A) (A) (A) (A)
                 (A) (A) (A) (A) (A) (A) (A) (A) (A) (A) (A) (A)
                 (A) (A) (A) (A) (A) (A) (A) (A) (A) (A) (A) (A)
                 (A) (A) (A) (A) (A) (A) (A) (A) (A) (A) (A) (A)
                 (A) (A) (A) (A) (A) (A) (A) (A) (A) (A) (A) (A)
                 (A) (A) (A) (A) (A) (A) (A) (A) (A) (A) (A) (A)
                 (A) (A) (A) (A) (A) (A) (A) (A) (A) (A) (A) (A)
                 (A) (A) (A) (A) (A) (A) (A) (A) (A) (A) (A) (A)
                 (A) (A) (A) (A) (A) (A) (A) (A) (A) (A) (A) (A)
                 (A) (A) (A) (A) (A) (A) (A) (A) (A) (A) (A) (A)
                 (A) (A) (A) (A) (A) (A) (A) (A) (A) (A) (A) (A)
                 (A) (A) (A) (A) (A) (A) (A) (A) (A) (A) (A) (A)
                 (A) (A) (A) (A) (A) (A) (A) (A) (A) (A) (A) (A)
                 (A) (A) (A) (A) (A) (A) (A) (A) (A) (A) (A) (A)
                 (A) (A) (A) (A) (A) (A) (A) (A) (A) (A) (A) (A)
                 (A) (A) (A) (A) (A) (A) (A) (A) (A) (A) (A) (A)
                 (A) (A) (A) (A) (A) (A) (A) (A) (A) (A) (A) (A)
                 (A) (A) (A) (A) (A) (A) (A) (A) (A) (A) (A) (A)
                 (A) (A) (A) (A) (A) (A) (A) (A) (A) (A) (A) (A)
                 (A) (A) (A) (A) (A) (A) (A) (A) (A) (A) (A) (A)
                 (A) (A) (A) (A) (A) (A) (A) (A) (A) (A) (A) (A)
                 (A) (A) (A) (A) (A) (A) (A) (A) (A) (A) (A) (A)
                 (A) (A) (A) (A) (A) (A) (A) (A) (A) (A) (A) (A)
                 (A) (A) (A) (A) (A) (A) (A) (A) (A) (A) (A) (A)
                 (A) (A) (A) (A) (A) (A) (A) (A) (A) (A) (A) (A)
                 (A) (A) (A) (A) (A) (A) (A) (A) (A) (A) (A) (A)
                 (A) (A) (A) (A) (A) (A) (A) (A) (A) (A) (A) (A)
                 (A) (A) (A) (A) (A) (A) (A) (A) (A) (A) (A) (A)
                 (A) (A)
    24 initial guesses have been made.
 Convergence on wavefunction:    0.001000000000000
 Iteration     1 Dimension    24 NMult     0 NNew     24
 CISAX will form    24 AO SS matrices at one time.
 New state      1 was old state      4
 New state      3 was old state      1
 New state      4 was old state     10
 New state      5 was old state     12
 New state      7 was old state      5
 New state      8 was old state     22
 New state      9 was old state     18
 New state     10 was old state      3
 New state     11 was old state      8
 New state     12 was old state      7
 Vector   5 SDiff=2.13D+00 TDiff=7.78D+00 assumed to be singlet.
 Vector   6 SDiff=3.16D-01 TDiff=1.15D+01 assumed to be singlet.
 Vector  11 SDiff=2.18D+00 TDiff=7.22D+00 assumed to be singlet.
 Vector  12 SDiff=5.74D+00 TDiff=2.40D+00 assumed to be triplet.
 Iteration     2 Dimension    36 NMult    24 NNew     12
 New state      4 was old state     10
 New state      5 was old state      4
 New state      6 was old state      7
 Iteration     3 Dimension    48 NMult    36 NNew     12
 Iteration     4 Dimension    60 NMult    48 NNew     12
 Iteration     5 Dimension    72 NMult    60 NNew     12
 Iteration     6 Dimension    78 NMult    72 NNew      6
 Iteration     7 Dimension    84 NMult    78 NNew      6
 Iteration     8 Dimension    88 NMult    84 NNew      4
 Iteration     9 Dimension    90 NMult    88 NNew      2
 Iteration    10 Dimension    92 NMult    90 NNew      2
 ***********************************************************************
 Excited states from <AA,BB:AA,BB> singles matrix:
 ***********************************************************************
 
 Ground to excited state transition densities written to RWF  633
 Ground to excited state transition electric dipole moments (Au):
       state          X           Y           Z        Dip. S.      Osc.
         1        -0.0000      0.0000     -0.0000      0.0000      0.0000
         2         0.0000     -0.0000      0.0000      0.0000      0.0000
         3        -0.6049      0.0295      0.0362      0.3681      0.0235
         4        -0.1266      1.2171     -0.1134      1.5103      0.1201
         5        -0.0000     -0.0000      0.0000      0.0000      0.0000
         6         0.4329      0.1245     -0.0070      0.2030      0.0202
 Ground to excited state transition velocity dipole moments (Au):
       state          X           Y           Z        Dip. S.      Osc.
         1        -0.0000     -0.0000      0.0000      0.0000      0.0000
         2         0.0000      0.0000     -0.0000      0.0000      0.0000
         3         0.0570     -0.0036     -0.0044      0.0033      0.0229
         4         0.0122     -0.1486      0.0128      0.0224      0.1251
         5         0.0000      0.0000      0.0000      0.0000      0.0000
         6        -0.0621     -0.0180      0.0018      0.0042      0.0187
 Ground to excited state transition magnetic dipole moments (Au):
       state          X           Y           Z
         1         0.0000     -0.0000     -0.0000
         2         0.0000      0.0000      0.0000
         3        -0.0208     -0.0117      0.1145
         4        -0.0560     -0.1217     -1.5392
         5         0.0000      0.0000      0.0000
         6         0.0247      0.0279     -0.0999
 Ground to excited state transition velocity quadrupole moments (Au):
       state          XX          YY          ZZ          XY          XZ          YZ
         1         0.0000     -0.0000     -0.0000     -0.0000      0.0000      0.0000
         2        -0.0000      0.0000      0.0000      0.0000     -0.0000     -0.0000
         3        -0.0362      0.0216     -0.0252     -0.0129     -0.0143     -0.0306
         4         0.0143      0.0111     -0.0268     -0.6046      0.0241      0.1344
         5         0.0000      0.0000      0.0000      0.0000      0.0000      0.0000
         6        -0.0291     -0.0530      0.0224      0.0506      0.0297      0.0393
 <0|del|b> * <b|rxdel|0> + <0|del|b> * <b|delr+rdel|0>
 Rotatory Strengths (R) in cgs (10**-40 erg-esu-cm/Gauss)
       state          XX          YY          ZZ    R(velocity)    E-M Angle
         1        -0.0000     -0.0000     -0.0000     -0.0000       90.00
         2        -0.0000     -0.0000      0.0000     -0.0000       90.00
         3        -1.6964    -12.9140      2.3995     -4.0703      104.29
         4       -17.1044    -32.5922     36.0242     -4.5574       90.57
         5         0.0000      0.0000      0.0000      0.0000       90.00
         6        -0.1377    -10.0616     -0.3079     -3.5024      108.78
 1/2[<0|r|b>*<b|rxdel|0> + (<0|rxdel|b>*<b|r|0>)*]
 Rotatory Strengths (R) in cgs (10**-40 erg-esu-cm/Gauss)
       state          XX          YY          ZZ     R(length)
         1         0.0000      0.0000     -0.0000     -0.0000
         2        -0.0000      0.0000     -0.0000     -0.0000
         3        -8.9169      0.2432     -2.9263     -3.8667
         4        -5.0121    104.7080   -123.3802     -7.8947
         5         0.0000      0.0000     -0.0000      0.0000
         6        -7.5700     -2.4570     -0.4956     -3.5076
  1/2[<0|del|b>*<b|r|0> + (<0|r|b>*<b|del|0>)*] (Au)
       state          X           Y           Z        Dip. S.   Osc.(frdel)
         1         0.0000     -0.0000     -0.0000      0.0000      0.0000
         2         0.0000     -0.0000     -0.0000      0.0000      0.0000
         3        -0.0345     -0.0001     -0.0002      0.0347      0.0232
         4        -0.0015     -0.1808     -0.0015      0.1838      0.1225
         5        -0.0000     -0.0000      0.0000      0.0000      0.0000
         6        -0.0269     -0.0022     -0.0000      0.0291      0.0194

 Excitation energies and oscillator strengths:
 
 Excited State   1:      Triplet-A      1.5382 eV  806.03 nm  f=0.0000  <S**2>=2.000
      83 -> 85         0.70563
      83 <- 85         0.16285
 This state for optimization and/or second-order correction.
 Total Energy, E(TD-HF/TD-DFT) =  -1028.99931232    
 Copying the excited state density for this state as the 1-particle RhoCI density.
 
 Excited State   2:      Triplet-A      2.5727 eV  481.91 nm  f=0.0000  <S**2>=2.000
      84 -> 85         0.69927
 
 Excited State   3:      Singlet-A      2.6046 eV  476.01 nm  f=0.0235  <S**2>=0.000
      84 -> 85         0.70503
 
 Excited State   4:      Singlet-A      3.2468 eV  381.87 nm  f=0.1201  <S**2>=0.000
      83 -> 85         0.68918
      83 -> 86        -0.11170
 
 Excited State   5:      Triplet-A      3.3645 eV  368.51 nm  f=0.0000  <S**2>=2.000
      80 -> 85         0.42674
      80 -> 86        -0.13695
      83 -> 86         0.45116
      83 -> 88        -0.19841
 
 Excited State   6:      Singlet-A      4.0628 eV  305.17 nm  f=0.0202  <S**2>=0.000
      82 -> 85         0.69931
 SavETr:  write IOETrn=   770 NScale= 10 NData=  16 NLR=1 NState=    6 LETran=     118.

 **********************************************************************

            Population analysis using the SCF Density.

 **********************************************************************

 Orbital symmetries:
       Occupied  (A) (A) (A) (A) (A) (A) (A) (A) (A) (A) (A) (A)
                 (A) (A) (A) (A) (A) (A) (A) (A) (A) (A) (A) (A)
                 (A) (A) (A) (A) (A) (A) (A) (A) (A) (A) (A) (A)
                 (A) (A) (A) (A) (A) (A) (A) (A) (A) (A) (A) (A)
                 (A) (A) (A) (A) (A) (A) (A) (A) (A) (A) (A) (A)
                 (A) (A) (A) (A) (A) (A) (A) (A) (A) (A) (A) (A)
                 (A) (A) (A) (A) (A) (A) (A) (A) (A) (A) (A) (A)
       Virtual   (A) (A) (A) (A) (A) (A) (A) (A) (A) (A) (A) (A)
                 (A) (A) (A) (A) (A) (A) (A) (A) (A) (A) (A) (A)
                 (A) (A) (A) (A) (A) (A) (A) (A) (A) (A) (A) (A)
                 (A) (A) (A) (A) (A) (A) (A) (A) (A) (A) (A) (A)
                 (A) (A) (A) (A) (A) (A) (A) (A) (A) (A) (A) (A)
                 (A) (A) (A) (A) (A) (A) (A) (A) (A) (A) (A) (A)
                 (A) (A) (A) (A) (A) (A) (A) (A) (A) (A) (A) (A)
                 (A) (A) (A) (A) (A) (A) (A) (A) (A) (A) (A) (A)
                 (A) (A) (A) (A) (A) (A) (A) (A) (A) (A) (A) (A)
                 (A) (A) (A) (A) (A) (A) (A) (A) (A) (A) (A) (A)
                 (A) (A) (A) (A) (A) (A) (A) (A) (A) (A) (A) (A)
                 (A) (A) (A) (A) (A) (A) (A) (A) (A) (A) (A) (A)
                 (A) (A) (A) (A) (A) (A) (A) (A) (A) (A) (A) (A)
                 (A) (A) (A) (A) (A) (A) (A) (A) (A) (A) (A) (A)
                 (A) (A) (A) (A) (A) (A) (A) (A) (A) (A) (A) (A)
                 (A) (A) (A) (A) (A) (A) (A) (A) (A) (A) (A) (A)
                 (A) (A) (A) (A) (A) (A) (A) (A) (A) (A) (A) (A)
                 (A) (A) (A) (A) (A) (A) (A) (A) (A) (A) (A) (A)
                 (A) (A) (A) (A) (A) (A) (A) (A) (A) (A) (A) (A)
                 (A) (A) (A) (A) (A) (A) (A) (A) (A) (A) (A) (A)
                 (A) (A) (A) (A) (A) (A) (A) (A) (A) (A) (A) (A)
                 (A) (A) (A) (A) (A) (A) (A) (A) (A) (A) (A) (A)
                 (A) (A) (A) (A) (A) (A) (A) (A) (A) (A) (A) (A)
                 (A) (A) (A) (A) (A) (A) (A) (A) (A) (A) (A) (A)
                 (A) (A) (A) (A) (A) (A) (A) (A) (A) (A) (A) (A)
                 (A) (A) (A) (A) (A) (A) (A) (A) (A) (A) (A) (A)
                 (A) (A) (A) (A) (A) (A) (A) (A) (A) (A) (A) (A)
                 (A) (A) (A) (A) (A) (A) (A) (A) (A) (A) (A) (A)
                 (A) (A) (A) (A) (A) (A) (A) (A) (A) (A) (A) (A)
                 (A) (A) (A) (A) (A) (A) (A) (A) (A) (A) (A) (A)
                 (A) (A) (A) (A) (A) (A) (A) (A) (A) (A) (A) (A)
                 (A) (A) (A) (A) (A) (A) (A) (A) (A) (A) (A) (A)
                 (A) (A) (A) (A) (A) (A) (A) (A) (A) (A) (A) (A)
                 (A) (A) (A) (A) (A) (A) (A) (A) (A) (A) (A) (A)
                 (A) (A) (A) (A) (A) (A) (A) (A) (A) (A) (A) (A)
                 (A) (A) (A) (A) (A) (A) (A) (A) (A) (A) (A) (A)
                 (A) (A) (A) (A) (A) (A) (A) (A) (A) (A) (A) (A)
                 (A) (A) (A) (A) (A) (A) (A) (A) (A) (A) (A) (A)
                 (A) (A)
 The electronic state is 1-A.
 Alpha  occ. eigenvalues --  -19.16177 -14.52518 -14.46774 -14.36017 -14.35982
 Alpha  occ. eigenvalues --  -10.28209 -10.25828 -10.25695 -10.25450 -10.24039
 Alpha  occ. eigenvalues --  -10.23099 -10.23019 -10.22927 -10.22706 -10.22662
 Alpha  occ. eigenvalues --  -10.22322 -10.22224 -10.22145 -10.19906 -10.19785
 Alpha  occ. eigenvalues --  -10.19698 -10.19406 -10.18937 -10.18834  -1.17077
 Alpha  occ. eigenvalues --   -1.02866  -0.97024  -0.92472  -0.90944  -0.85847
 Alpha  occ. eigenvalues --   -0.84885  -0.82863  -0.81176  -0.77425  -0.75158
 Alpha  occ. eigenvalues --   -0.74690  -0.73376  -0.71884  -0.68398  -0.66330
 Alpha  occ. eigenvalues --   -0.65156  -0.64251  -0.62422  -0.58605  -0.58483
 Alpha  occ. eigenvalues --   -0.57301  -0.55229  -0.54200  -0.52551  -0.50627
 Alpha  occ. eigenvalues --   -0.50208  -0.49135  -0.48659  -0.47603  -0.46929
 Alpha  occ. eigenvalues --   -0.46725  -0.46368  -0.45644  -0.44222  -0.43968
 Alpha  occ. eigenvalues --   -0.43092  -0.41578  -0.41269  -0.40136  -0.39700
 Alpha  occ. eigenvalues --   -0.39419  -0.39141  -0.38645  -0.38421  -0.38012
 Alpha  occ. eigenvalues --   -0.37609  -0.37037  -0.36407  -0.35524  -0.34594
 Alpha  occ. eigenvalues --   -0.33884  -0.33066  -0.29507  -0.29448  -0.29073
 Alpha  occ. eigenvalues --   -0.28371  -0.25597  -0.21461  -0.20311
 Alpha virt. eigenvalues --   -0.08940  -0.03075  -0.01979  -0.01267  -0.01058
 Alpha virt. eigenvalues --   -0.00654  -0.00223   0.00392   0.01146   0.01328
 Alpha virt. eigenvalues --    0.01772   0.02133   0.02862   0.03255   0.03386
 Alpha virt. eigenvalues --    0.04083   0.04205   0.04822   0.05304   0.05471
 Alpha virt. eigenvalues --    0.06042   0.06228   0.06762   0.07048   0.07335
 Alpha virt. eigenvalues --    0.07598   0.07922   0.08223   0.08530   0.08911
 Alpha virt. eigenvalues --    0.09251   0.09855   0.10045   0.10548   0.11151
 Alpha virt. eigenvalues --    0.11232   0.11633   0.11741   0.12246   0.12354
 Alpha virt. eigenvalues --    0.12812   0.12952   0.13574   0.13764   0.13809
 Alpha virt. eigenvalues --    0.14183   0.14449   0.15083   0.15257   0.15427
 Alpha virt. eigenvalues --    0.15582   0.15998   0.16060   0.16416   0.16614
 Alpha virt. eigenvalues --    0.16927   0.17228   0.17390   0.17749   0.18396
 Alpha virt. eigenvalues --    0.18435   0.18737   0.18854   0.19123   0.19333
 Alpha virt. eigenvalues --    0.19624   0.19829   0.20053   0.20366   0.20873
 Alpha virt. eigenvalues --    0.21038   0.21359   0.21733   0.21927   0.22096
 Alpha virt. eigenvalues --    0.22261   0.22561   0.22747   0.23108   0.23532
 Alpha virt. eigenvalues --    0.23693   0.24003   0.24402   0.24675   0.24932
 Alpha virt. eigenvalues --    0.25043   0.25201   0.25874   0.26225   0.26507
 Alpha virt. eigenvalues --    0.26700   0.26931   0.27334   0.27435   0.27714
 Alpha virt. eigenvalues --    0.28003   0.28213   0.28407   0.28984   0.29145
 Alpha virt. eigenvalues --    0.29405   0.29667   0.30046   0.30226   0.30597
 Alpha virt. eigenvalues --    0.30797   0.31175   0.31403   0.32037   0.32072
 Alpha virt. eigenvalues --    0.32569   0.33334   0.33398   0.33709   0.33785
 Alpha virt. eigenvalues --    0.34165   0.35099   0.35375   0.35776   0.36335
 Alpha virt. eigenvalues --    0.36885   0.37162   0.37957   0.38655   0.39114
 Alpha virt. eigenvalues --    0.39245   0.39898   0.40374   0.41255   0.41900
 Alpha virt. eigenvalues --    0.42718   0.43613   0.44521   0.45363   0.46059
 Alpha virt. eigenvalues --    0.46399   0.46988   0.48839   0.49689   0.51436
 Alpha virt. eigenvalues --    0.54944   0.57173   0.58834   0.59749   0.61579
 Alpha virt. eigenvalues --    0.64813   0.65400   0.66776   0.67179   0.68017
 Alpha virt. eigenvalues --    0.68830   0.69107   0.69578   0.70397   0.70593
 Alpha virt. eigenvalues --    0.70737   0.71376   0.71655   0.72250   0.72724
 Alpha virt. eigenvalues --    0.73194   0.74256   0.74847   0.74978   0.75725
 Alpha virt. eigenvalues --    0.76031   0.76674   0.77328   0.77963   0.78630
 Alpha virt. eigenvalues --    0.79554   0.80415   0.81097   0.81427   0.82366
 Alpha virt. eigenvalues --    0.83190   0.83888   0.84185   0.84818   0.85652
 Alpha virt. eigenvalues --    0.86201   0.87118   0.87538   0.88718   0.89603
 Alpha virt. eigenvalues --    0.89721   0.90937   0.91608   0.91830   0.92152
 Alpha virt. eigenvalues --    0.92974   0.93477   0.94470   0.95100   0.95949
 Alpha virt. eigenvalues --    0.96277   0.96751   0.97814   0.98251   0.99303
 Alpha virt. eigenvalues --    0.99708   1.00371   1.00907   1.01515   1.03204
 Alpha virt. eigenvalues --    1.03859   1.04703   1.05390   1.05817   1.06556
 Alpha virt. eigenvalues --    1.06898   1.08761   1.09510   1.10120   1.11155
 Alpha virt. eigenvalues --    1.11363   1.12042   1.12399   1.14035   1.14734
 Alpha virt. eigenvalues --    1.16245   1.17334   1.18107   1.18301   1.19091
 Alpha virt. eigenvalues --    1.20341   1.21115   1.21497   1.22020   1.22741
 Alpha virt. eigenvalues --    1.23670   1.23845   1.25371   1.25705   1.26874
 Alpha virt. eigenvalues --    1.27613   1.28551   1.29728   1.30555   1.33114
 Alpha virt. eigenvalues --    1.33503   1.34225   1.34663   1.34961   1.36680
 Alpha virt. eigenvalues --    1.37726   1.37962   1.38136   1.38543   1.38704
 Alpha virt. eigenvalues --    1.39795   1.40326   1.40958   1.41424   1.42558
 Alpha virt. eigenvalues --    1.42935   1.44075   1.44985   1.46554   1.47490
 Alpha virt. eigenvalues --    1.49756   1.54074   1.54190   1.55496   1.56905
 Alpha virt. eigenvalues --    1.57987   1.59523   1.61674   1.63179   1.66151
 Alpha virt. eigenvalues --    1.68946   1.69831   1.71041   1.72899   1.75319
 Alpha virt. eigenvalues --    1.75395   1.76804   1.78505   1.78749   1.79898
 Alpha virt. eigenvalues --    1.80784   1.81227   1.81926   1.82349   1.84013
 Alpha virt. eigenvalues --    1.85102   1.86130   1.86468   1.87343   1.87701
 Alpha virt. eigenvalues --    1.89170   1.90297   1.90372   1.91004   1.91593
 Alpha virt. eigenvalues --    1.92496   1.93372   1.93670   1.95088   1.95934
 Alpha virt. eigenvalues --    1.97126   1.97269   1.97874   1.97939   1.99313
 Alpha virt. eigenvalues --    1.99829   2.00228   2.00640   2.00985   2.02483
 Alpha virt. eigenvalues --    2.02947   2.03122   2.04142   2.05387   2.05757
 Alpha virt. eigenvalues --    2.07272   2.07828   2.09183   2.10309   2.11218
 Alpha virt. eigenvalues --    2.11320   2.11843   2.13516   2.13671   2.14530
 Alpha virt. eigenvalues --    2.15742   2.16353   2.17278   2.18131   2.20810
 Alpha virt. eigenvalues --    2.20892   2.22282   2.23652   2.25474   2.25778
 Alpha virt. eigenvalues --    2.26293   2.27364   2.28082   2.29964   2.30961
 Alpha virt. eigenvalues --    2.31832   2.35321   2.36588   2.36693   2.37992
 Alpha virt. eigenvalues --    2.38574   2.38658   2.39861   2.40211   2.41694
 Alpha virt. eigenvalues --    2.42284   2.43271   2.43856   2.45817   2.47012
 Alpha virt. eigenvalues --    2.47843   2.48283   2.50116   2.51569   2.52969
 Alpha virt. eigenvalues --    2.53891   2.54147   2.54485   2.55491   2.55676
 Alpha virt. eigenvalues --    2.57212   2.57624   2.58981   2.60324   2.61083
 Alpha virt. eigenvalues --    2.61592   2.62021   2.63811   2.64144   2.65504
 Alpha virt. eigenvalues --    2.66279   2.67174   2.68128   2.70097   2.70545
 Alpha virt. eigenvalues --    2.72543   2.73270   2.73819   2.75057   2.75170
 Alpha virt. eigenvalues --    2.76556   2.78351   2.78995   2.80286   2.80758
 Alpha virt. eigenvalues --    2.83684   2.84817   2.85159   2.86884   2.88880
 Alpha virt. eigenvalues --    2.90735   2.91798   2.94081   2.95049   2.98244
 Alpha virt. eigenvalues --    2.99522   3.03390   3.03978   3.04500   3.07025
 Alpha virt. eigenvalues --    3.08609   3.10331   3.11079   3.14396   3.17882
 Alpha virt. eigenvalues --    3.23064   3.23864   3.25195   3.25298   3.26241
 Alpha virt. eigenvalues --    3.27716   3.30402   3.32795   3.34219   3.35367
 Alpha virt. eigenvalues --    3.36576   3.37776   3.43026   3.45238   3.46904
 Alpha virt. eigenvalues --    3.47853   3.49171   3.49541   3.51043   3.51207
 Alpha virt. eigenvalues --    3.53661   3.54387   3.83717   3.85638   4.23182
 Alpha virt. eigenvalues --    4.28507   4.31655   4.32154   4.34570   4.36065
 Alpha virt. eigenvalues --    4.38078   4.40543   4.42819   4.44879   4.46719
 Alpha virt. eigenvalues --    4.49422   4.51136   4.53228   4.56937   4.58653
 Alpha virt. eigenvalues --    4.59934   4.64533   4.74081   4.78819   4.84698
 Alpha virt. eigenvalues --    4.90384   4.95041   4.98274
          Condensed to atoms (all electrons):
               1          2          3          4          5          6
     1  C    5.191472   0.111411   0.045264  -0.155581  -0.001824   0.025358
     2  N    0.111411   7.521344  -0.092618  -0.694290  -0.382985   0.479224
     3  C    0.045264  -0.092618   8.943170  -2.792844   0.534074  -1.356103
     4  C   -0.155581  -0.694290  -2.792844  19.196246  -0.620594  -3.243219
     5  C   -0.001824  -0.382985   0.534074  -0.620594   8.402387  -2.480770
     6  C    0.025358   0.479224  -1.356103  -3.243219  -2.480770  12.564126
     7  N    0.001474  -0.025704   0.244668  -0.634225   0.283052   0.208362
     8  C   -0.006480   0.026126   0.024183   0.272363   0.302856  -1.232327
     9  C    0.010529   0.006051  -0.075119  -0.264788  -0.199418   0.309632
    10  N    0.000237   0.021583  -0.035365   0.015064   0.002793  -0.008110
    11  C   -0.006141  -0.026071   0.008243   0.336062   0.322732  -1.066700
    12  C   -0.001266  -0.001156  -0.053153   0.178730   0.042764  -0.100696
    13  C   -0.000080  -0.000185   0.018204   0.005412   0.017380  -0.154163
    14  C   -0.000049   0.000006  -0.008232   0.000108  -0.006726   0.055328
    15  C   -0.000112   0.000018  -0.026304   0.064385  -0.098955   0.187518
    16  C    0.001145   0.021298  -0.032580  -0.124033  -0.197824   0.789859
    17  N    0.000896   0.002949   0.128481   0.234761  -0.223076  -0.573475
    18  O   -0.000155  -0.001649   0.001599   0.110511  -0.009013  -0.038361
    19  C   -0.049653   0.574463  -0.024169  -5.540381  -1.478150   2.203210
    20  C   -0.014303  -0.617627  -1.159889   4.987956   0.969403  -1.519143
    21  C   -0.000213   0.010133  -0.070696  -0.027128   0.082454   0.023702
    22  C    0.000642  -0.064062  -0.083405   0.339546   0.131573  -0.113380
    23  C    0.191709   0.203201   0.545608  -3.467274  -0.474067   0.500113
    24  C   -0.376253   0.205193   0.773157  -2.132478   0.030574   0.494712
    25  H    0.406002  -0.055510   0.002213   0.002613  -0.002397   0.008033
    26  H    0.415843  -0.044639   0.025139  -0.041957  -0.001467   0.007092
    27  H    0.441774  -0.088971   0.008745   0.004324   0.006866  -0.010751
    28  H   -0.006711  -0.056639   0.437350  -0.078785  -0.007883   0.014539
    29  H    0.023696  -0.085034   0.585085  -0.104830   0.002183  -0.042317
    30  H    0.000131  -0.002252   0.068762  -0.096475   0.403022  -0.010140
    31  H    0.000451  -0.002430  -0.037647  -0.077229   0.543830  -0.028493
    32  H    0.000284  -0.002424   0.042556  -0.182300   0.513057  -0.055624
    33  H   -0.000824  -0.012121  -0.022550  -0.043996   0.045427   0.430352
    34  H    0.001380   0.043010  -0.043099  -0.209848  -0.045849   0.542913
    35  H   -0.000007  -0.000003   0.000056   0.000013  -0.000126   0.001741
    36  H    0.000000  -0.000000   0.000004  -0.000012   0.000005   0.000078
    37  H    0.000000   0.000000   0.000001  -0.000018   0.000010   0.000099
    38  H   -0.000000   0.000000  -0.000057   0.000655  -0.000897   0.000361
    39  H    0.000216  -0.000985  -0.003638  -0.071271   0.011820   0.004075
    40  H    0.000152   0.000263   0.001200  -0.008965   0.000603  -0.001802
    41  H   -0.000064  -0.000854   0.001008   0.000881   0.000156  -0.000742
    42  H   -0.010435  -0.020680  -0.007702   0.027222   0.001283  -0.002235
               7          8          9         10         11         12
     1  C    0.001474  -0.006480   0.010529   0.000237  -0.006141  -0.001266
     2  N   -0.025704   0.026126   0.006051   0.021583  -0.026071  -0.001156
     3  C    0.244668   0.024183  -0.075119  -0.035365   0.008243  -0.053153
     4  C   -0.634225   0.272363  -0.264788   0.015064   0.336062   0.178730
     5  C    0.283052   0.302856  -0.199418   0.002793   0.322732   0.042764
     6  C    0.208362  -1.232327   0.309632  -0.008110  -1.066700  -0.100696
     7  N    9.711724  -0.893726  -0.161923  -0.047081  -1.461427   0.581238
     8  C   -0.893726   9.753886  -3.517437   0.123269   2.950601  -1.008786
     9  C   -0.161923  -3.517437  11.728614  -0.050123  -1.505631  -0.331634
    10  N   -0.047081   0.123269  -0.050123   7.412076   0.076783   0.002247
    11  C   -1.461427   2.950601  -1.505631   0.076783  12.752031  -4.072067
    12  C    0.581238  -1.008786  -0.331634   0.002247  -4.072067  10.042017
    13  C   -0.203404   0.252799  -0.124667   0.002836   0.871239  -0.720750
    14  C    0.100372  -0.157562  -0.138024   0.003539  -1.018968   0.273124
    15  C   -0.202383  -0.778285   1.107578  -0.021875  -1.723840   0.508880
    16  C    1.614421  -1.479712  -1.027762   0.037530  -2.967127   1.955540
    17  N   -1.949543   0.431570   0.239468   0.034048   0.820578  -0.555898
    18  O   -0.358648   0.161453  -0.016809   0.000014   0.157296  -0.055547
    19  C    0.033561  -0.031625   0.107870  -0.005105  -0.220770  -0.045108
    20  C   -0.017272   0.135963  -0.211084   0.009387   0.183149   0.025449
    21  C   -0.007943   0.012545  -0.004143  -0.000255   0.008039   0.000099
    22  C    0.004165  -0.003260  -0.001857   0.000119   0.004728   0.000592
    23  C    0.048735  -0.031662   0.055275  -0.004942  -0.043163  -0.010425
    24  C    0.106223  -0.158457   0.144297  -0.006942  -0.085007  -0.038043
    25  H   -0.000095  -0.009659   0.009184  -0.001103  -0.001118  -0.000183
    26  H    0.000070  -0.000729   0.000285   0.000129  -0.000118  -0.000019
    27  H   -0.000041   0.002441  -0.002002   0.000087   0.000264   0.000035
    28  H    0.032247  -0.137855   0.099170  -0.006260  -0.021139  -0.006555
    29  H   -0.004057   0.023062  -0.015143   0.000763   0.002709   0.000738
    30  H    0.015967  -0.007836  -0.002502  -0.000001   0.005913  -0.001881
    31  H    0.001080  -0.001742   0.002564  -0.000024   0.000455   0.000060
    32  H   -0.008762   0.005251  -0.000801  -0.000009  -0.001596  -0.000198
    33  H   -0.027713   0.004757  -0.008397   0.000158   0.013129   0.000750
    34  H   -0.048600   0.028408  -0.030158   0.004476  -0.001038   0.001490
    35  H   -0.002454   0.017098   0.003750   0.001198  -0.026975   0.315994
    36  H    0.000564  -0.002308  -0.001474   0.000001  -0.008633   0.035991
    37  H    0.001179   0.000491   0.000685  -0.000002  -0.022497   0.021834
    38  H   -0.008701   0.001317  -0.003593   0.000009   0.094372  -0.033178
    39  H    0.000617   0.001076   0.000166  -0.000002   0.000032   0.000019
    40  H   -0.000026   0.000007   0.000011  -0.000000  -0.000003  -0.000000
    41  H    0.000001  -0.000003  -0.000004   0.000000   0.000000  -0.000000
    42  H   -0.000058   0.000330  -0.000323   0.000018   0.000017   0.000001
              13         14         15         16         17         18
     1  C   -0.000080  -0.000049  -0.000112   0.001145   0.000896  -0.000155
     2  N   -0.000185   0.000006   0.000018   0.021298   0.002949  -0.001649
     3  C    0.018204  -0.008232  -0.026304  -0.032580   0.128481   0.001599
     4  C    0.005412   0.000108   0.064385  -0.124033   0.234761   0.110511
     5  C    0.017380  -0.006726  -0.098955  -0.197824  -0.223076  -0.009013
     6  C   -0.154163   0.055328   0.187518   0.789859  -0.573475  -0.038361
     7  N   -0.203404   0.100372  -0.202383   1.614421  -1.949543  -0.358648
     8  C    0.252799  -0.157562  -0.778285  -1.479712   0.431570   0.161453
     9  C   -0.124667  -0.138024   1.107578  -1.027762   0.239468  -0.016809
    10  N    0.002836   0.003539  -0.021875   0.037530   0.034048   0.000014
    11  C    0.871239  -1.018968  -1.723840  -2.967127   0.820578   0.157296
    12  C   -0.720750   0.273124   0.508880   1.955540  -0.555898  -0.055547
    13  C    6.314467   0.301497  -0.159717  -0.681453   0.141351  -0.005129
    14  C    0.301497   5.966308   0.606522  -0.124259   0.066503   0.019064
    15  C   -0.159717   0.606522   8.818524  -2.528026   0.688021  -0.069687
    16  C   -0.681453  -0.124259  -2.528026  13.514566  -2.099560  -0.250603
    17  N    0.141351   0.066503   0.688021  -2.099560   9.327819   0.536075
    18  O   -0.005129   0.019064  -0.069687  -0.250603   0.536075   7.836844
    19  C    0.001958  -0.001482   0.001766   0.049206   0.003228  -0.113486
    20  C   -0.001027   0.001367  -0.013333  -0.060175  -0.038362   0.062116
    21  C    0.000167  -0.000164  -0.002548  -0.007559   0.002718   0.006427
    22  C   -0.000035   0.000031   0.000596  -0.001109  -0.001916   0.000232
    23  C    0.000076  -0.000102  -0.003460   0.003459   0.006925   0.002930
    24  C    0.000419  -0.000632   0.002795   0.002922   0.031860  -0.020502
    25  H   -0.000014  -0.000001   0.000021   0.000112   0.000009   0.000000
    26  H   -0.000000  -0.000000   0.000000   0.000023  -0.000004   0.000000
    27  H    0.000001   0.000000  -0.000003  -0.000037  -0.000005  -0.000000
    28  H   -0.001475  -0.000059   0.004216   0.013196  -0.003402   0.000157
    29  H    0.000117   0.000001  -0.000553  -0.001183   0.000583  -0.000084
    30  H    0.000670  -0.000322  -0.001758  -0.004250   0.005550  -0.000113
    31  H   -0.000014   0.000045   0.000788  -0.000842  -0.003247   0.001611
    32  H   -0.000018   0.000039   0.001137   0.000556   0.014375  -0.008187
    33  H   -0.000376  -0.000068  -0.001615  -0.008423  -0.026648   0.008234
    34  H    0.000733  -0.000162  -0.002079   0.005890   0.021378  -0.001190
    35  H    0.003189   0.004611  -0.007862  -0.004039   0.000674   0.000034
    36  H    0.252739   0.029012  -0.005500   0.015534  -0.000219  -0.000004
    37  H    0.005737   0.297888   0.002620   0.009182  -0.001191  -0.000103
    38  H    0.002626  -0.077188   0.228304   0.131966  -0.036032   0.013334
    39  H    0.000002  -0.000008  -0.000128   0.000264  -0.001441   0.000110
    40  H    0.000000  -0.000000   0.000000  -0.000001   0.000015  -0.000002
    41  H    0.000000   0.000000   0.000000  -0.000001   0.000001  -0.000000
    42  H    0.000000   0.000000  -0.000000  -0.000002  -0.000003  -0.000000
              19         20         21         22         23         24
     1  C   -0.049653  -0.014303  -0.000213   0.000642   0.191709  -0.376253
     2  N    0.574463  -0.617627   0.010133  -0.064062   0.203201   0.205193
     3  C   -0.024169  -1.159889  -0.070696  -0.083405   0.545608   0.773157
     4  C   -5.540381   4.987956  -0.027128   0.339546  -3.467274  -2.132478
     5  C   -1.478150   0.969403   0.082454   0.131573  -0.474067   0.030574
     6  C    2.203210  -1.519143   0.023702  -0.113380   0.500113   0.494712
     7  N    0.033561  -0.017272  -0.007943   0.004165   0.048735   0.106223
     8  C   -0.031625   0.135963   0.012545  -0.003260  -0.031662  -0.158457
     9  C    0.107870  -0.211084  -0.004143  -0.001857   0.055275   0.144297
    10  N   -0.005105   0.009387  -0.000255   0.000119  -0.004942  -0.006942
    11  C   -0.220770   0.183149   0.008039   0.004728  -0.043163  -0.085007
    12  C   -0.045108   0.025449   0.000099   0.000592  -0.010425  -0.038043
    13  C    0.001958  -0.001027   0.000167  -0.000035   0.000076   0.000419
    14  C   -0.001482   0.001367  -0.000164   0.000031  -0.000102  -0.000632
    15  C    0.001766  -0.013333  -0.002548   0.000596  -0.003460   0.002795
    16  C    0.049206  -0.060175  -0.007559  -0.001109   0.003459   0.002922
    17  N    0.003228  -0.038362   0.002718  -0.001916   0.006925   0.031860
    18  O   -0.113486   0.062116   0.006427   0.000232   0.002930  -0.020502
    19  C   20.380696 -10.639459  -0.459116  -1.327019   1.475126   0.876212
    20  C  -10.639459  17.274794  -0.234294   0.409085   1.332954  -4.940268
    21  C   -0.459116  -0.234294   6.204103   0.543836  -0.455193   0.202376
    22  C   -1.327019   0.409085   0.543836   5.905877  -0.301928   0.519810
    23  C    1.475126   1.332954  -0.455193  -0.301928  16.816984 -10.735701
    24  C    0.876212  -4.940268   0.202376   0.519810 -10.735701  21.671444
    25  H    0.004949  -0.001571  -0.000036  -0.007050  -0.025629   0.031786
    26  H   -0.035062  -0.010769   0.001585   0.011801   0.059160  -0.031751
    27  H    0.009889   0.008217   0.000567   0.005944   0.026828  -0.074175
    28  H    0.002212  -0.003998   0.000078   0.000737   0.014575   0.035115
    29  H    0.007371  -0.031499  -0.000846  -0.004616   0.001325  -0.058043
    30  H   -0.028716  -0.010091  -0.003607   0.000166   0.002769   0.011160
    31  H   -0.123880   0.099152   0.013958   0.002638  -0.000031  -0.043196
    32  H    0.077823  -0.060802  -0.004824  -0.001682   0.001163   0.022822
    33  H   -0.144908   0.125859   0.028050   0.005589  -0.016198  -0.021506
    34  H    0.118405  -0.082002  -0.003623  -0.006376   0.019435   0.005295
    35  H   -0.000016   0.000002   0.000000  -0.000000   0.000001   0.000012
    36  H    0.000002  -0.000000   0.000000  -0.000000   0.000000   0.000000
    37  H    0.000001  -0.000000  -0.000000   0.000000   0.000000   0.000000
    38  H   -0.000110   0.000067   0.000005  -0.000000   0.000000  -0.000018
    39  H    0.117450   0.218555  -0.034732   0.004139  -0.042674   0.095671
    40  H    0.022153   0.020671   0.287491  -0.032453   0.022835   0.001048
    41  H   -0.010856   0.014836   0.023844   0.260971   0.045925  -0.024633
    42  H    0.053056  -0.015364   0.003301   0.057873   0.133786   0.080519
              25         26         27         28         29         30
     1  C    0.406002   0.415843   0.441774  -0.006711   0.023696   0.000131
     2  N   -0.055510  -0.044639  -0.088971  -0.056639  -0.085034  -0.002252
     3  C    0.002213   0.025139   0.008745   0.437350   0.585085   0.068762
     4  C    0.002613  -0.041957   0.004324  -0.078785  -0.104830  -0.096475
     5  C   -0.002397  -0.001467   0.006866  -0.007883   0.002183   0.403022
     6  C    0.008033   0.007092  -0.010751   0.014539  -0.042317  -0.010140
     7  N   -0.000095   0.000070  -0.000041   0.032247  -0.004057   0.015967
     8  C   -0.009659  -0.000729   0.002441  -0.137855   0.023062  -0.007836
     9  C    0.009184   0.000285  -0.002002   0.099170  -0.015143  -0.002502
    10  N   -0.001103   0.000129   0.000087  -0.006260   0.000763  -0.000001
    11  C   -0.001118  -0.000118   0.000264  -0.021139   0.002709   0.005913
    12  C   -0.000183  -0.000019   0.000035  -0.006555   0.000738  -0.001881
    13  C   -0.000014  -0.000000   0.000001  -0.001475   0.000117   0.000670
    14  C   -0.000001  -0.000000   0.000000  -0.000059   0.000001  -0.000322
    15  C    0.000021   0.000000  -0.000003   0.004216  -0.000553  -0.001758
    16  C    0.000112   0.000023  -0.000037   0.013196  -0.001183  -0.004250
    17  N    0.000009  -0.000004  -0.000005  -0.003402   0.000583   0.005550
    18  O    0.000000   0.000000  -0.000000   0.000157  -0.000084  -0.000113
    19  C    0.004949  -0.035062   0.009889   0.002212   0.007371  -0.028716
    20  C   -0.001571  -0.010769   0.008217  -0.003998  -0.031499  -0.010091
    21  C   -0.000036   0.001585   0.000567   0.000078  -0.000846  -0.003607
    22  C   -0.007050   0.011801   0.005944   0.000737  -0.004616   0.000166
    23  C   -0.025629   0.059160   0.026828   0.014575   0.001325   0.002769
    24  C    0.031786  -0.031751  -0.074175   0.035115  -0.058043   0.011160
    25  H    0.536150  -0.019752  -0.037042   0.003285  -0.001404   0.000000
    26  H   -0.019752   0.557838  -0.037940   0.000114  -0.000212   0.000000
    27  H   -0.037042  -0.037940   0.588836  -0.001077   0.006838   0.000001
    28  H    0.003285   0.000114  -0.001077   0.574138  -0.046138   0.000981
    29  H   -0.001404  -0.000212   0.006838  -0.046138   0.600669  -0.000339
    30  H    0.000000   0.000000   0.000001   0.000981  -0.000339   0.562994
    31  H    0.000000   0.000000  -0.000000   0.000093   0.002404  -0.027817
    32  H    0.000000  -0.000000   0.000000  -0.000144   0.000197  -0.027264
    33  H   -0.000000  -0.000001   0.000000   0.000081  -0.000109   0.000253
    34  H   -0.000020   0.000017   0.000007  -0.000717   0.000264  -0.000032
    35  H    0.000000   0.000000  -0.000000   0.000000  -0.000000   0.000000
    36  H   -0.000000  -0.000000  -0.000000  -0.000000  -0.000000  -0.000000
    37  H    0.000000   0.000000  -0.000000   0.000000   0.000000   0.000000
    38  H   -0.000000  -0.000000  -0.000000  -0.000000  -0.000000   0.000000
    39  H   -0.000000   0.000000   0.000000  -0.000001  -0.000009  -0.000045
    40  H   -0.000000  -0.000000   0.000000  -0.000000   0.000000  -0.000000
    41  H   -0.000000   0.000003  -0.000000  -0.000000   0.000000  -0.000000
    42  H   -0.000007   0.000678  -0.000095  -0.000000  -0.000001  -0.000000
              31         32         33         34         35         36
     1  C    0.000451   0.000284  -0.000824   0.001380  -0.000007   0.000000
     2  N   -0.002430  -0.002424  -0.012121   0.043010  -0.000003  -0.000000
     3  C   -0.037647   0.042556  -0.022550  -0.043099   0.000056   0.000004
     4  C   -0.077229  -0.182300  -0.043996  -0.209848   0.000013  -0.000012
     5  C    0.543830   0.513057   0.045427  -0.045849  -0.000126   0.000005
     6  C   -0.028493  -0.055624   0.430352   0.542913   0.001741   0.000078
     7  N    0.001080  -0.008762  -0.027713  -0.048600  -0.002454   0.000564
     8  C   -0.001742   0.005251   0.004757   0.028408   0.017098  -0.002308
     9  C    0.002564  -0.000801  -0.008397  -0.030158   0.003750  -0.001474
    10  N   -0.000024  -0.000009   0.000158   0.004476   0.001198   0.000001
    11  C    0.000455  -0.001596   0.013129  -0.001038  -0.026975  -0.008633
    12  C    0.000060  -0.000198   0.000750   0.001490   0.315994   0.035991
    13  C   -0.000014  -0.000018  -0.000376   0.000733   0.003189   0.252739
    14  C    0.000045   0.000039  -0.000068  -0.000162   0.004611   0.029012
    15  C    0.000788   0.001137  -0.001615  -0.002079  -0.007862  -0.005500
    16  C   -0.000842   0.000556  -0.008423   0.005890  -0.004039   0.015534
    17  N   -0.003247   0.014375  -0.026648   0.021378   0.000674  -0.000219
    18  O    0.001611  -0.008187   0.008234  -0.001190   0.000034  -0.000004
    19  C   -0.123880   0.077823  -0.144908   0.118405  -0.000016   0.000002
    20  C    0.099152  -0.060802   0.125859  -0.082002   0.000002  -0.000000
    21  C    0.013958  -0.004824   0.028050  -0.003623   0.000000   0.000000
    22  C    0.002638  -0.001682   0.005589  -0.006376  -0.000000  -0.000000
    23  C   -0.000031   0.001163  -0.016198   0.019435   0.000001   0.000000
    24  C   -0.043196   0.022822  -0.021506   0.005295   0.000012   0.000000
    25  H    0.000000   0.000000  -0.000000  -0.000020   0.000000  -0.000000
    26  H    0.000000  -0.000000  -0.000001   0.000017   0.000000  -0.000000
    27  H   -0.000000   0.000000   0.000000   0.000007  -0.000000  -0.000000
    28  H    0.000093  -0.000144   0.000081  -0.000717   0.000000  -0.000000
    29  H    0.002404   0.000197  -0.000109   0.000264  -0.000000  -0.000000
    30  H   -0.027817  -0.027264   0.000253  -0.000032   0.000000  -0.000000
    31  H    0.548659  -0.024357   0.000068  -0.000141  -0.000000   0.000000
    32  H   -0.024357   0.509736   0.002799  -0.000078   0.000000   0.000000
    33  H    0.000068   0.002799   0.495271  -0.026807  -0.000000   0.000000
    34  H   -0.000141  -0.000078  -0.026807   0.525532  -0.000000  -0.000000
    35  H   -0.000000   0.000000  -0.000000  -0.000000   0.547419  -0.004794
    36  H    0.000000   0.000000   0.000000  -0.000000  -0.004794   0.560014
    37  H   -0.000000  -0.000000  -0.000000   0.000000  -0.000136  -0.005235
    38  H   -0.000000   0.000000   0.000000  -0.000000   0.000013  -0.000128
    39  H   -0.000040   0.000062   0.000010   0.000035  -0.000000  -0.000000
    40  H    0.000000   0.000001   0.000002  -0.000000   0.000000   0.000000
    41  H   -0.000000  -0.000000  -0.000000  -0.000000  -0.000000   0.000000
    42  H    0.000000   0.000000   0.000000   0.000007  -0.000000   0.000000
              37         38         39         40         41         42
     1  C    0.000000  -0.000000   0.000216   0.000152  -0.000064  -0.010435
     2  N    0.000000   0.000000  -0.000985   0.000263  -0.000854  -0.020680
     3  C    0.000001  -0.000057  -0.003638   0.001200   0.001008  -0.007702
     4  C   -0.000018   0.000655  -0.071271  -0.008965   0.000881   0.027222
     5  C    0.000010  -0.000897   0.011820   0.000603   0.000156   0.001283
     6  C    0.000099   0.000361   0.004075  -0.001802  -0.000742  -0.002235
     7  N    0.001179  -0.008701   0.000617  -0.000026   0.000001  -0.000058
     8  C    0.000491   0.001317   0.001076   0.000007  -0.000003   0.000330
     9  C    0.000685  -0.003593   0.000166   0.000011  -0.000004  -0.000323
    10  N   -0.000002   0.000009  -0.000002  -0.000000   0.000000   0.000018
    11  C   -0.022497   0.094372   0.000032  -0.000003   0.000000   0.000017
    12  C    0.021834  -0.033178   0.000019  -0.000000  -0.000000   0.000001
    13  C    0.005737   0.002626   0.000002   0.000000   0.000000   0.000000
    14  C    0.297888  -0.077188  -0.000008  -0.000000   0.000000   0.000000
    15  C    0.002620   0.228304  -0.000128   0.000000   0.000000  -0.000000
    16  C    0.009182   0.131966   0.000264  -0.000001  -0.000001  -0.000002
    17  N   -0.001191  -0.036032  -0.001441   0.000015   0.000001  -0.000003
    18  O   -0.000103   0.013334   0.000110  -0.000002  -0.000000  -0.000000
    19  C    0.000001  -0.000110   0.117450   0.022153  -0.010856   0.053056
    20  C   -0.000000   0.000067   0.218555   0.020671   0.014836  -0.015364
    21  C   -0.000000   0.000005  -0.034732   0.287491   0.023844   0.003301
    22  C    0.000000  -0.000000   0.004139  -0.032453   0.260971   0.057873
    23  C    0.000000   0.000000  -0.042674   0.022835   0.045925   0.133786
    24  C    0.000000  -0.000018   0.095671   0.001048  -0.024633   0.080519
    25  H    0.000000  -0.000000  -0.000000  -0.000000  -0.000000  -0.000007
    26  H    0.000000  -0.000000   0.000000  -0.000000   0.000003   0.000678
    27  H   -0.000000  -0.000000   0.000000   0.000000  -0.000000  -0.000095
    28  H    0.000000  -0.000000  -0.000001  -0.000000  -0.000000  -0.000000
    29  H    0.000000  -0.000000  -0.000009   0.000000   0.000000  -0.000001
    30  H    0.000000   0.000000  -0.000045  -0.000000  -0.000000  -0.000000
    31  H   -0.000000  -0.000000  -0.000040   0.000000  -0.000000   0.000000
    32  H   -0.000000   0.000000   0.000062   0.000001  -0.000000   0.000000
    33  H   -0.000000   0.000000   0.000010   0.000002  -0.000000   0.000000
    34  H    0.000000  -0.000000   0.000035  -0.000000  -0.000000   0.000007
    35  H   -0.000136   0.000013  -0.000000   0.000000  -0.000000  -0.000000
    36  H   -0.005235  -0.000128  -0.000000   0.000000   0.000000   0.000000
    37  H    0.558165  -0.004435  -0.000000   0.000000   0.000000   0.000000
    38  H   -0.004435   0.531624  -0.000000  -0.000000   0.000000  -0.000000
    39  H   -0.000000  -0.000000   0.581196  -0.005038  -0.000171   0.000018
    40  H    0.000000  -0.000000  -0.005038   0.574789  -0.005399  -0.000160
    41  H    0.000000   0.000000  -0.000171  -0.005399   0.578282  -0.005473
    42  H    0.000000  -0.000000   0.000018  -0.000160  -0.005473   0.587917
 Mulliken charges:
               1
     1  C   -0.239911
     2  N    0.052617
     3  C   -0.513600
     4  C    0.835671
     5  C   -0.418283
     6  C   -0.811877
     7  N    0.074067
     8  C    0.927600
     9  C   -0.130312
    10  N   -0.561164
    11  C    1.671655
    12  C   -0.951049
    13  C   -0.141113
    14  C   -0.191356
    15  C   -0.575668
    16  C   -0.566109
    17  N   -0.225812
    18  O    0.031230
    19  C    0.158463
    20  C   -0.196650
    21  C   -0.138557
    22  C   -0.260543
    23  C    0.101556
    24  C   -0.597816
    25  H    0.158236
    26  H    0.144642
    27  H    0.140473
    28  H    0.146553
    29  H    0.138411
    30  H    0.147101
    31  H    0.153273
    32  H    0.187212
    33  H    0.201472
    34  H    0.183143
    35  H    0.150607
    36  H    0.134361
    37  H    0.135727
    38  H    0.159686
    39  H    0.124651
    40  H    0.122611
    41  H    0.122292
    42  H    0.116511
 Sum of Mulliken charges =  -0.00000
 Mulliken charges with hydrogens summed into heavy atoms:
               1
     1  C    0.203440
     2  N    0.052617
     3  C   -0.228636
     4  C    0.835671
     5  C    0.069302
     6  C   -0.427263
     7  N    0.074067
     8  C    0.927600
     9  C   -0.130312
    10  N   -0.561164
    11  C    1.671655
    12  C   -0.800443
    13  C   -0.006752
    14  C   -0.055629
    15  C   -0.415982
    16  C   -0.566109
    17  N   -0.225812
    18  O    0.031230
    19  C    0.158463
    20  C   -0.071998
    21  C   -0.015946
    22  C   -0.138251
    23  C    0.218067
    24  C   -0.597816
 Electronic spatial extent (au):  <R**2>=           8580.5658
 Charge=             -0.0000 electrons
 Dipole moment (field-independent basis, Debye):
    X=              1.4472    Y=              0.0330    Z=              1.4360  Tot=              2.0391
 Quadrupole moment (field-independent basis, Debye-Ang):
   XX=           -118.6549   YY=           -153.3609   ZZ=           -145.0809
   XY=             -2.2258   XZ=              2.2177   YZ=              3.9333
 Traceless Quadrupole moment (field-independent basis, Debye-Ang):
   XX=             20.3773   YY=            -14.3287   ZZ=             -6.0487
   XY=             -2.2258   XZ=              2.2177   YZ=              3.9333
 Octapole moment (field-independent basis, Debye-Ang**2):
  XXX=            109.8572  YYY=            -38.0550  ZZZ=              5.6983  XYY=            -21.8904
  XXY=             15.6396  XXZ=             -7.8582  XZZ=             -4.9800  YZZ=             -3.6099
  YYZ=             18.7315  XYZ=             -7.4687
 Hexadecapole moment (field-independent basis, Debye-Ang**3):
 XXXX=          -8224.5552 YYYY=          -2457.6450 ZZZZ=           -582.4102 XXXY=           -105.9452
 XXXZ=            186.6079 YYYX=            -49.4023 YYYZ=             61.7301 ZZZX=            -27.8661
 ZZZY=              4.9667 XXYY=          -1750.0950 XXZZ=          -1758.0947 YYZZ=           -502.1007
 XXYZ=             10.8982 YYXZ=             22.7259 ZZXY=            -23.1308
 N-N= 1.986838500871D+03 E-N=-6.359503372274D+03  KE= 1.019322923179D+03
 Unable to Open any file for archive entry.
 1\1\GINC-N2\SP\RB3LYP TD-FC\6-31+G(d,p)\C19H18N4O1\HPCMGAC13\11-Aug-20
 25\0\\# td=(50-50,nstates=3) b3lyp/6-31+g(d,p) geom=connectivity\\Titl
 e Card Required\\0,1\C,0,-3.172506,2.809831,0.666734\N,0,-2.585308,1.5
 30045,0.321442\C,0,-1.491622,1.02346,1.15842\C,0,-1.2513,-0.423854,0.6
 48833\C,0,-0.715414,-1.346997,1.7499\C,0,-0.342184,-0.436472,-0.623624
 \N,0,1.087832,-0.213928,-0.395739\C,0,1.827406,0.957325,-0.402148\C,0,
 1.262973,2.225425,-0.627399\N,0,0.832751,3.295977,-0.811169\C,0,3.1761
 1,0.601751,-0.20895\C,0,4.394404,1.319213,-0.117941\C,0,5.55613,0.5994
 06,0.069773\C,0,5.555604,-0.82494,0.170934\C,0,4.386488,-1.551757,0.08
 4691\C,0,3.202411,-0.814198,-0.105101\N,0,1.922453,-1.28671,-0.235555\
 O,0,1.508631,-2.4866,-0.242053\C,0,-2.655772,-0.76617,0.155684\C,0,-3.
 226221,-1.989458,-0.167451\C,0,-4.544501,-2.024862,-0.651581\C,0,-5.26
 0022,-0.834574,-0.809644\C,0,-4.693085,0.407963,-0.494241\C,0,-3.37791
 ,0.431873,-0.01875\H,0,-2.376314,3.551296,0.771675\H,0,-3.835073,3.146
 394,-0.135027\H,0,-3.749927,2.771473,1.607117\H,0,-0.616226,1.673558,1
 .088332\H,0,-1.802031,0.983184,2.218095\H,0,0.242714,-0.983339,2.13833
 4\H,0,-1.424499,-1.384022,2.581885\H,0,-0.551837,-2.361156,1.379097\H,
 0,-0.408435,-1.413426,-1.105848\H,0,-0.675207,0.336222,-1.320636\H,0,4
 .405568,2.40139,-0.195597\H,0,6.502319,1.126827,0.142596\H,0,6.498606,
 -1.341684,0.318003\H,0,4.355598,-2.632805,0.155147\H,0,-2.667525,-2.91
 2903,-0.037546\H,0,-5.007686,-2.975422,-0.896446\H,0,-6.281874,-0.8686
 33,-1.17732\H,0,-5.267251,1.320367,-0.617127\\Version=ES64L-G16RevC.02
 \State=1-A\HF=-1029.0558407\RMSD=4.896e-09\PG=C01 [X(C19H18N4O1)]\\@
 The archive entry for this job was punched.


 NOT WHAT WE DID SHALL BE THE TEST
 WHEN ACT AND WILL ARE DONE,
 BUT WHAT OUR LORD INFERS WE WOULD-
 HAD WE DIVINER BEEN.
           EMILY DICKINSON  POEMS NO. CLXXV
 Job cpu time:       0 days  2 hours 52 minutes 16.3 seconds.
 Elapsed time:       0 days  0 hours 21 minutes 50.0 seconds.
 File lengths (MBytes):  RWF=   1561 Int=      0 D2E=      0 Chk=     77 Scr=      2
 Normal termination of Gaussian 16 at Mon Aug 11 15:19:23 2025.
