 Entering Gaussian System, Link 0=g16
 Input=M1436e.gjf
 Output=M1436e.log
 Initial command:
 /hpc/softwares/Gaussian/g16/l1.exe "/hpc/home/hpcmgac13/pbs.14209.admin1.x8z/Gau-4285.inp" -scrdir="/hpc/home/hpcmgac13/pbs.14209.admin1.x8z/"
 Default linda workers: n2
 Default is to use   8 SMP processors on each worker.
 Entering Link 1 = /hpc/softwares/Gaussian/g16/l1.exe PID=      4286.
  
 Copyright (c) 1988-2021, Gaussian, Inc.  All Rights Reserved.
  
 This is part of the Gaussian(R) 16 program.  It is based on
 the Gaussian(R) 09 system (copyright 2009, Gaussian, Inc.),
 the Gaussian(R) 03 system (copyright 2003, Gaussian, Inc.),
 the Gaussian(R) 98 system (copyright 1998, Gaussian, Inc.),
 the Gaussian(R) 94 system (copyright 1995, Gaussian, Inc.),
 the Gaussian 92(TM) system (copyright 1992, Gaussian, Inc.),
 the Gaussian 90(TM) system (copyright 1990, Gaussian, Inc.),
 the Gaussian 88(TM) system (copyright 1988, Gaussian, Inc.),
 the Gaussian 86(TM) system (copyright 1986, Carnegie Mellon
 University), and the Gaussian 82(TM) system (copyright 1983,
 Carnegie Mellon University). Gaussian is a federally registered
 trademark of Gaussian, Inc.
  
 This software contains proprietary and confidential information,
 including trade secrets, belonging to Gaussian, Inc.
  
 This software is provided under written license and may be
 used, copied, transmitted, or stored only in accord with that
 written license.
  
 The following legend is applicable only to US Government
 contracts under FAR:
  
                    RESTRICTED RIGHTS LEGEND
  
 Use, reproduction and disclosure by the US Government is
 subject to restrictions as set forth in subparagraphs (a)
 and (c) of the Commercial Computer Software - Restricted
 Rights clause in FAR 52.227-19.
  
 Gaussian, Inc.
 340 Quinnipiac St., Bldg. 40, Wallingford CT 06492
  
  
 ---------------------------------------------------------------
 Warning -- This program may not be used in any manner that
 competes with the business of Gaussian, Inc. or will provide
 assistance to any competitor of Gaussian, Inc.  The licensee
 of this program is prohibited from giving any competitor of
 Gaussian, Inc. access to this program.  By using this program,
 the user acknowledges that Gaussian, Inc. is engaged in the
 business of creating and licensing software in the field of
 computational chemistry and represents and warrants to the
 licensee that it is not a competitor of Gaussian, Inc. and that
 it will not use this program in any manner prohibited above.
 ---------------------------------------------------------------
  

 Cite this work as:
 Gaussian 16, Revision C.02,
 M. J. Frisch, G. W. Trucks, H. B. Schlegel, G. E. Scuseria, 
 M. A. Robb, J. R. Cheeseman, G. Scalmani, V. Barone, 
 G. A. Petersson, H. Nakatsuji, X. Li, M. Caricato, A. V. Marenich, 
 J. Bloino, B. G. Janesko, R. Gomperts, B. Mennucci, H. P. Hratchian, 
 J. V. Ortiz, A. F. Izmaylov, J. L. Sonnenberg, D. Williams-Young, 
 F. Ding, F. Lipparini, F. Egidi, J. Goings, B. Peng, A. Petrone, 
 T. Henderson, D. Ranasinghe, V. G. Zakrzewski, J. Gao, N. Rega, 
 G. Zheng, W. Liang, M. Hada, M. Ehara, K. Toyota, R. Fukuda, 
 J. Hasegawa, M. Ishida, T. Nakajima, Y. Honda, O. Kitao, H. Nakai, 
 T. Vreven, K. Throssell, J. A. Montgomery, Jr., J. E. Peralta, 
 F. Ogliaro, M. J. Bearpark, J. J. Heyd, E. N. Brothers, K. N. Kudin, 
 V. N. Staroverov, T. A. Keith, R. Kobayashi, J. Normand, 
 K. Raghavachari, A. P. Rendell, J. C. Burant, S. S. Iyengar, 
 J. Tomasi, M. Cossi, J. M. Millam, M. Klene, C. Adamo, R. Cammi, 
 J. W. Ochterski, R. L. Martin, K. Morokuma, O. Farkas, 
 J. B. Foresman, and D. J. Fox, Gaussian, Inc., Wallingford CT, 2019.
 
 ******************************************
 Gaussian 16:  ES64L-G16RevC.02  7-Dec-2021
                21-Sep-2025 
 ******************************************
 SetLPE:    new flags="-opt 'Tsnet.Node.lindarsharg: ssh'  -nodelist 'n2.head.cm.mguif.local' -env GAUSS_MDEF=1342177280 -env GAUSS_EXEDIR="/hpc/softwares/Gaussian/g16/bsd:/hpc/softwares/Gaussian/g16""
 Will use up to    1 processors via Linda.
 ----------------------------------------------------------
 # td=(50-50,nstates=3) b3lyp/6-31+g(d,p) geom=connectivity
 ----------------------------------------------------------
 1/38=1,57=2,172=1/1;
 2/12=2,17=6,18=5,40=1/2;
 3/5=1,6=6,7=111,11=9,25=1,30=1,74=-5/1,2,3,8;
 4//1;
 5/5=2,38=5/2;
 8/6=1,10=2,108=3/1;
 9/41=3,42=1,48=2,70=2/14;
 6/7=2,8=2,9=2,10=2/1;
 99/5=1,9=1/99;
 -------------------
 Title Card Required
 -------------------
 Symbolic Z-matrix:
 Charge =  0 Multiplicity = 1
 C                    -0.53872   3.23023  -0.39987 
 C                     0.30297   2.01842  -0.16464 
 C                    -0.19042   0.7924    0.32169 
 C                    -1.63635   0.66394   0.78572 
 O                    -1.94059   1.34539   1.78033 
 C                    -2.56136  -0.15535   0.04128 
 C                    -3.89138  -0.223     0.44483 
 N                    -4.42139   0.41373   1.49515 
 C                    -4.89256  -1.05811  -0.31986 
 O                    -6.06318  -1.08217   0.05964 
 C                    -4.40903  -1.79848  -1.47977 
 C                    -3.11667  -1.74549  -1.85503 
 C                    -2.07817  -0.95458  -1.14033 
 N                     0.61303  -0.28065   0.50974 
 O                     0.15567  -1.40163   0.95501 
 C                     1.97501  -0.15911   0.2128 
 C                     2.82953  -1.25804   0.41441 
 C                     4.16821  -1.11186   0.11123 
 Cl                    5.25985  -2.45888   0.34896 
 C                     4.68797   0.10382  -0.38821 
 C                     3.84791   1.18173  -0.58243 
 C                     2.47824   1.06065  -0.28184 
 N                     1.62061   2.14919  -0.47446 
 O                     2.08715   3.25269  -0.93813 
 H                    -1.58599   3.03899  -0.17539 
 H                    -0.18349   4.05504   0.22714 
 H                    -0.42468   3.56172  -1.43723 
 H                    -5.40771   0.26997   1.67331 
 H                    -3.82219   0.98529   2.07981 
 H                    -5.14482  -2.39193  -2.01312 
 H                    -2.78313  -2.31247  -2.72165 
 H                    -1.29273  -1.6514   -0.80184 
 H                    -1.58214  -0.30447  -1.87866 
 H                     2.41015  -2.17716   0.80201 
 H                     5.74532   0.18263  -0.61395 
 H                     4.2047    2.13156  -0.96061 
 
                          Input orientation:                          
 ---------------------------------------------------------------------
 Center     Atomic      Atomic             Coordinates (Angstroms)
 Number     Number       Type             X           Y           Z
 ---------------------------------------------------------------------
      1          6           0       -0.538720    3.230227   -0.399867
      2          6           0        0.302970    2.018424   -0.164640
      3          6           0       -0.190419    0.792404    0.321691
      4          6           0       -1.636349    0.663939    0.785720
      5          8           0       -1.940591    1.345386    1.780334
      6          6           0       -2.561361   -0.155350    0.041278
      7          6           0       -3.891381   -0.223002    0.444833
      8          7           0       -4.421393    0.413728    1.495154
      9          6           0       -4.892562   -1.058111   -0.319862
     10          8           0       -6.063179   -1.082166    0.059635
     11          6           0       -4.409029   -1.798476   -1.479773
     12          6           0       -3.116672   -1.745492   -1.855032
     13          6           0       -2.078175   -0.954583   -1.140332
     14          7           0        0.613033   -0.280649    0.509737
     15          8           0        0.155667   -1.401627    0.955014
     16          6           0        1.975012   -0.159111    0.212798
     17          6           0        2.829527   -1.258044    0.414406
     18          6           0        4.168208   -1.111855    0.111231
     19         17           0        5.259851   -2.458882    0.348963
     20          6           0        4.687974    0.103817   -0.388205
     21          6           0        3.847909    1.181731   -0.582428
     22          6           0        2.478244    1.060651   -0.281837
     23          7           0        1.620614    2.149194   -0.474455
     24          8           0        2.087154    3.252694   -0.938125
     25          1           0       -1.585991    3.038987   -0.175394
     26          1           0       -0.183488    4.055040    0.227142
     27          1           0       -0.424679    3.561716   -1.437233
     28          1           0       -5.407708    0.269971    1.673310
     29          1           0       -3.822193    0.985290    2.079813
     30          1           0       -5.144825   -2.391930   -2.013122
     31          1           0       -2.783130   -2.312470   -2.721653
     32          1           0       -1.292734   -1.651400   -0.801839
     33          1           0       -1.582136   -0.304469   -1.878660
     34          1           0        2.410152   -2.177160    0.802007
     35          1           0        5.745320    0.182627   -0.613951
     36          1           0        4.204698    2.131561   -0.960605
 ---------------------------------------------------------------------
                    Distance matrix (angstroms):
                    1          2          3          4          5
     1  C    0.000000
     2  C    1.494068   0.000000
     3  C    2.566114   1.408217   0.000000
     4  C    3.032530   2.549269   1.523988   0.000000
     5  O    3.204863   3.044580   2.344468   1.243459   0.000000
     6  C    3.968352   3.601678   2.568703   1.442593   2.379470
     7  C    4.886578   4.794583   3.839705   2.447047   2.837073
     8  N    5.157414   5.258286   4.406989   2.884852   2.665275
     9  C    6.111643   6.040092   5.093736   3.845867   4.347615
    10  O    7.023356   7.084618   6.170251   4.813824   5.084245
    11  C    6.436874   6.204936   5.268264   4.345538   5.158038
    12  C    5.789743   5.358959   4.443197   3.869145   4.914527
    13  C    4.520049   3.931997   2.958563   2.554310   3.720091
    14  N    3.805281   2.415918   1.353639   2.455226   3.283200
    15  O    4.875648   3.601676   2.309685   2.739807   3.552679
    16  C    4.264014   2.771253   2.367769   3.748010   4.478016
    17  C    5.670336   4.177802   3.651439   4.876058   5.603359
    18  C    6.424178   4.981447   4.761105   6.107476   6.792743
    19  Cl   8.157827   6.699308   6.346420   7.582898   8.268473
    20  C    6.090395   4.789986   4.977632   6.456694   7.083920
    21  C    4.844809   3.666223   4.156573   5.676004   6.254291
    22  C    3.717938   2.379681   2.749175   4.269301   4.884642
    23  N    2.415972   1.359879   2.398868   3.794974   4.290963
    24  O    2.680567   2.303262   3.581550   4.851574   5.220208
    25  H    1.087997   2.147053   2.691069   2.562641   2.611302
    26  H    1.095284   2.130244   3.264013   3.731271   3.583579
    27  H    1.094997   2.128548   3.289039   3.847957   4.190805
    28  H    6.063681   6.248759   5.414787   3.894377   3.631649
    29  H    4.687190   4.808524   4.039552   2.560441   1.939016
    30  H    7.444961   7.248902   6.335414   5.429664   6.214898
    31  H    6.414792   5.900760   5.062049   4.740863   5.861542
    32  H    4.955845   4.052148   2.906819   2.828287   4.008499
    33  H    3.971098   3.447799   2.825164   2.835432   4.029733
    34  H    6.275363   4.793490   3.976428   4.944318   5.682818
    35  H    6.987335   5.761181   6.039888   7.528597   8.133747
    36  H    4.901174   3.983697   4.770186   6.270677   6.774614
                    6          7          8          9         10
     6  C    0.000000
     7  C    1.391541   0.000000
     8  N    2.428441   1.337726   0.000000
     9  C    2.525846   1.511466   2.383819   0.000000
    10  O    3.622438   2.367118   2.644594   1.230829   0.000000
    11  C    2.902987   2.540509   3.707316   1.458540   2.370462
    12  C    2.536319   2.864879   4.193838   2.446022   3.576011
    13  C    1.506136   2.517077   3.782688   2.933371   4.163707
    14  N    3.211220   4.505250   5.176741   5.621766   6.739201
    15  O    3.125758   4.245944   4.953458   5.218039   6.291089
    16  C    4.539616   5.871328   6.548784   6.946618   8.092466
    17  C    5.515146   6.800209   7.519221   7.759496   8.901518
    18  C    6.797565   8.115314   8.833113   9.071179  10.231560
    19  Cl   8.159184   9.420902  10.163273  10.270393  11.410086
    20  C    7.266669   8.625897   9.307183   9.650980  10.825637
    21  C    6.576894   7.932537   8.560814   9.026720  10.186616
    22  C    5.194293   6.538191   7.154104   7.669379   8.812728
    23  N    4.802689   6.070790   6.587644   7.261692   8.352701
    24  O    5.846596   7.052370   7.506115   8.226890   9.285174
    25  H    3.346951   4.042286   4.209777   5.266925   6.089692
    26  H    4.839030   5.665466   5.729472   6.972726   7.809591
    27  H    4.535194   5.466652   5.872175   6.523289   7.456469
    28  H    3.308492   2.012815   1.012533   2.449880   2.204963
    29  H    2.654502   2.034187   1.013681   3.328606   3.657528
    30  H    3.987121   3.509546   4.550063   2.170216   2.618239
    31  H    3.512284   3.952307   5.281811   3.433907   4.473023
    32  H    2.135047   3.216750   4.396526   3.680089   4.880913
    33  H    2.160389   3.276869   4.467640   3.735873   4.943839
    34  H    5.420550   6.607240   7.339153   7.472650   8.575982
    35  H    8.339335   9.703173  10.385749  10.714031  11.895128
    36  H    7.212024   8.547849   9.131875   9.661506  10.807323
                   11         12         13         14         15
    11  C    0.000000
    12  C    1.346779   0.000000
    13  C    2.502050   1.488223   0.000000
    14  N    5.610976   4.652805   3.227927   0.000000
    15  O    5.188654   4.326986   3.095218   1.289979   0.000000
    16  C    6.805020   5.719945   4.346500   1.399261   2.324811
    17  C    7.501778   6.383200   5.157018   2.424301   2.731739
    18  C    8.750528   7.572131   6.372476   3.672735   4.110526
    19  Cl   9.862436   8.690953   7.637247   5.134536   5.247645
    20  C    9.357655   8.153774   6.889607   4.190377   4.961089
    21  C    8.824052   7.661171   6.324047   3.714270   4.761315
    22  C    7.552760   6.453872   5.055604   2.429956   3.603745
    23  N    7.276768   6.286211   4.874204   2.808557   4.098510
    24  O    8.246702   7.273403   5.923853   4.093147   5.383059
    25  H    5.750826   5.296736   4.137868   4.040432   4.902066
    26  H    7.418383   6.825334   5.527761   4.417296   5.515436
    27  H    6.678960   5.965554   4.818626   4.430723   5.540255
    28  H    3.900995   4.664776   4.527903   6.156818   5.853318
    29  H    4.556795   4.841274   4.144157   4.872265   4.773460
    30  H    1.085378   2.134544   3.497438   6.631384   6.155140
    31  H    2.109503   1.088001   2.200317   5.109217   4.794168
    32  H    3.192573   2.108274   1.103199   2.689077   2.290586
    33  H    3.222187   2.105209   1.101740   3.244037   3.500489
    34  H    7.200774   6.147518   5.041077   2.629033   2.389051
    35  H   10.381966   9.153842   7.923219   5.274246   6.017951
    36  H    9.482142   8.332707   7.002220   4.569543   5.705056
                   16         17         18         19         20
    16  C    0.000000
    17  C    1.406590   0.000000
    18  C    2.393354   1.380345   0.000000
    19  Cl   4.012188   2.711599   1.750052   0.000000
    20  C    2.791146   2.439810   1.413312   2.727249   0.000000
    21  C    2.436798   2.825470   2.417497   4.014366   1.380337
    22  C    1.409158   2.446324   2.780335   4.530161   2.410343
    23  N    2.434376   3.723012   4.179438   5.929286   3.687778
    24  O    3.602445   4.767307   4.947850   6.659182   4.120935
    25  H    4.802006   6.189438   7.100877   8.795855   6.929874
    26  H    4.734807   6.110826   6.756293   8.489756   6.302536
    27  H    4.725005   6.103156   6.733099   8.470654   6.260730
    28  H    7.538021   8.471819   9.800393  11.090417  10.305350
    29  H    6.197014   7.214673   8.492340   9.866189   8.904552
    30  H    7.786673   8.412424   9.637637  10.669640  10.273901
    31  H    5.990649   6.515259   7.601829   8.610439   8.191509
    32  H    3.732905   4.315903   5.562975   6.701697   6.246659
    33  H    4.128998   5.062630   6.138240   7.511098   6.457742
    34  H    2.146867   1.082074   2.168596   2.899207   3.436267
    35  H    3.874987   3.410997   2.165376   2.853148   1.084045
    36  H    3.405224   3.907835   3.416125   4.888812   2.161699
                   21         22         23         24         25
    21  C    0.000000
    22  C    1.407479   0.000000
    23  N    2.430738   1.399127   0.000000
    24  O    2.741472   2.321361   1.284664   0.000000
    25  H    5.756939   4.521410   3.341180   3.757582   0.000000
    26  H    5.016320   4.038594   2.716481   2.675336   1.778036
    27  H    4.964879   4.002153   2.665592   2.579517   1.792799
    28  H    9.570063   8.163088   7.585623   8.478749   5.068597
    29  H    8.121366   6.728936   6.123978   7.012093   3.782093
    30  H    9.781984   8.545692   8.292193   9.236824   6.748141
    31  H    7.794639   6.709151   6.659527   7.607344   6.046046
    32  H    5.873754   4.673960   4.799926   5.957546   4.741114
    33  H    5.777058   4.571661   4.271986   5.196316   3.752310
    34  H    3.907167   3.415080   4.579308   5.711016   6.643242
    35  H    2.144614   3.399266   4.571657   4.786709   7.880307
    36  H    1.082817   2.142013   2.629476   2.396130   5.913718
                   26         27         28         29         30
    26  H    0.000000
    27  H    1.752623   0.000000
    28  H    6.611401   6.733620   0.000000
    29  H    5.108417   5.527267   1.786277   0.000000
    30  H    8.437836   7.619536   4.554625   5.468737   0.000000
    31  H    7.483229   6.458954   5.733508   5.916836   2.466968
    32  H    5.903616   5.322953   5.172141   4.653409   4.105386
    33  H    5.039438   4.059797   5.251807   4.727668   4.131383
    34  H    6.774788   6.781236   8.238116   7.104647   8.065281
    35  H    7.131184   7.082720  11.385483   9.971857  11.277468
    36  H    4.936263   4.868639  10.139101   8.659622  10.439509
                   31         32         33         34         35
    31  H    0.000000
    32  H    2.518726   0.000000
    33  H    2.486984   1.748577   0.000000
    34  H    6.277314   4.069412   5.160553   0.000000
    35  H    9.132490   7.275518   7.451736   4.323989   0.000000
    36  H    8.466430   6.675160   6.345433   4.989216   2.508392
                   36
    36  H    0.000000
 Stoichiometry    C16H12ClN3O4
 Framework group  C1[X(C16H12ClN3O4)]
 Deg. of freedom   102
 Full point group                 C1      NOp   1
 Largest Abelian subgroup         C1      NOp   1
 Largest concise Abelian subgroup C1      NOp   1
                         Standard orientation:                         
 ---------------------------------------------------------------------
 Center     Atomic      Atomic             Coordinates (Angstroms)
 Number     Number       Type             X           Y           Z
 ---------------------------------------------------------------------
      1          6           0        0.538720    3.230227    0.399867
      2          6           0       -0.302970    2.018424    0.164640
      3          6           0        0.190419    0.792404   -0.321691
      4          6           0        1.636349    0.663939   -0.785720
      5          8           0        1.940591    1.345386   -1.780334
      6          6           0        2.561361   -0.155350   -0.041278
      7          6           0        3.891381   -0.223002   -0.444833
      8          7           0        4.421393    0.413728   -1.495154
      9          6           0        4.892562   -1.058111    0.319862
     10          8           0        6.063179   -1.082166   -0.059635
     11          6           0        4.409029   -1.798476    1.479773
     12          6           0        3.116672   -1.745492    1.855032
     13          6           0        2.078175   -0.954583    1.140332
     14          7           0       -0.613033   -0.280649   -0.509737
     15          8           0       -0.155667   -1.401627   -0.955014
     16          6           0       -1.975012   -0.159111   -0.212798
     17          6           0       -2.829527   -1.258044   -0.414406
     18          6           0       -4.168208   -1.111855   -0.111231
     19         17           0       -5.259851   -2.458882   -0.348963
     20          6           0       -4.687974    0.103817    0.388205
     21          6           0       -3.847909    1.181731    0.582428
     22          6           0       -2.478244    1.060651    0.281837
     23          7           0       -1.620614    2.149194    0.474455
     24          8           0       -2.087154    3.252694    0.938125
     25          1           0        1.585991    3.038987    0.175394
     26          1           0        0.183488    4.055040   -0.227142
     27          1           0        0.424679    3.561716    1.437233
     28          1           0        5.407708    0.269971   -1.673310
     29          1           0        3.822193    0.985290   -2.079813
     30          1           0        5.144825   -2.391930    2.013122
     31          1           0        2.783130   -2.312470    2.721653
     32          1           0        1.292734   -1.651400    0.801839
     33          1           0        1.582136   -0.304469    1.878660
     34          1           0       -2.410152   -2.177160   -0.802007
     35          1           0       -5.745320    0.182627    0.613951
     36          1           0       -4.204698    2.131561    0.960605
 ---------------------------------------------------------------------
 Rotational constants (GHZ):           0.4215984           0.1188405           0.1023144
 Standard basis: 6-31+G(d,p) (6D, 7F)
 There are   520 symmetry adapted cartesian basis functions of A   symmetry.
 There are   520 symmetry adapted basis functions of A   symmetry.
   520 basis functions,   876 primitive gaussians,   520 cartesian basis functions
    89 alpha electrons       89 beta electrons
       nuclear repulsion energy      2123.3746748659 Hartrees.
 NAtoms=   36 NActive=   36 NUniq=   36 SFac= 1.00D+00 NAtFMM=   60 NAOKFM=F Big=F
 Integral buffers will be    131072 words long.
 Regular integral format.
 Two-electron integral symmetry is turned on.
 One-electron integrals computed using PRISM.
 NBasis=   520 RedAO= T EigKep=  1.09D-06  NBF=   520
 NBsUse=   518 1.00D-06 EigRej=  2.52D-07 NBFU=   518
 ExpMin= 4.38D-02 ExpMax= 2.52D+04 ExpMxC= 3.78D+03 IAcc=3 IRadAn=         5 AccDes= 0.00D+00
 Harris functional with IExCor=  402 and IRadAn=       5 diagonalized for initial guess.
 HarFok:  IExCor=  402 AccDes= 0.00D+00 IRadAn=         5 IDoV= 1 UseB2=F ITyADJ=14
 ICtDFT=  3500011 ScaDFX=  1.000000  1.000000  1.000000  1.000000
 FoFCou: FMM=F IPFlag=           0 FMFlag=      100000 FMFlg1=           0
         NFxFlg=           0 DoJE=T BraDBF=F KetDBF=T FulRan=T
         wScrn=  0.000000 ICntrl=       500 IOpCl=  0 I1Cent=   200000004 NGrid=           0
         NMat0=    1 NMatS0=      1 NMatT0=    0 NMatD0=    1 NMtDS0=    0 NMtDT0=    0
 Petite list used in FoFCou.
 Requested convergence on RMS density matrix=1.00D-08 within 128 cycles.
 Requested convergence on MAX density matrix=1.00D-06.
 Requested convergence on             energy=1.00D-06.
 No special actions if energy rises.
 SCF Done:  E(RB3LYP) =  -1542.22165518     A.U. after   19 cycles
            NFock= 19  Conv=0.23D-08     -V/T= 2.0074
 DoSCS=F DFT=T ScalE2(SS,OS)=  1.000000  1.000000
 ExpMin= 4.38D-02 ExpMax= 2.52D+04 ExpMxC= 3.78D+03 IAcc=3 IRadAn=         5 AccDes= 0.00D+00
 HarFok:  IExCor=  205 AccDes= 0.00D+00 IRadAn=         5 IDoV=-2 UseB2=F ITyADJ=14
 ICtDFT= 12500011 ScaDFX=  1.000000  1.000000  1.000000  1.000000
 GSVD:  LWork=       -1008 too small for GESVD, short by        4340 words or        4340 for optimal perf.
 Range of M.O.s used for correlation:    29   518
 NBasis=   520 NAE=    89 NBE=    89 NFC=    28 NFV=     0
 NROrb=    490 NOA=    61 NOB=    61 NVA=   429 NVB=   429

 **** Warning!!: The largest alpha MO coefficient is  0.23369810D+03

 Orbital symmetries:
       Occupied  (A) (A) (A) (A) (A) (A) (A) (A) (A) (A) (A) (A)
                 (A) (A) (A) (A) (A) (A) (A) (A) (A) (A) (A) (A)
                 (A) (A) (A) (A) (A) (A) (A) (A) (A) (A) (A) (A)
                 (A) (A) (A) (A) (A) (A) (A) (A) (A) (A) (A) (A)
                 (A) (A) (A) (A) (A) (A) (A) (A) (A) (A) (A) (A)
                 (A) (A) (A) (A) (A) (A) (A) (A) (A) (A) (A) (A)
                 (A) (A) (A) (A) (A) (A) (A) (A) (A) (A) (A) (A)
                 (A) (A) (A) (A) (A)
       Virtual   (A) (A) (A) (A) (A) (A) (A) (A) (A) (A) (A) (A)
                 (A) (A) (A) (A) (A) (A) (A) (A) (A) (A) (A) (A)
                 (A) (A) (A) (A) (A) (A) (A) (A) (A) (A) (A) (A)
                 (A) (A) (A) (A) (A) (A) (A) (A) (A) (A) (A) (A)
                 (A) (A) (A) (A) (A) (A) (A) (A) (A) (A) (A) (A)
                 (A) (A) (A) (A) (A) (A) (A) (A) (A) (A) (A) (A)
                 (A) (A) (A) (A) (A) (A) (A) (A) (A) (A) (A) (A)
                 (A) (A) (A) (A) (A) (A) (A) (A) (A) (A) (A) (A)
                 (A) (A) (A) (A) (A) (A) (A) (A) (A) (A) (A) (A)
                 (A) (A) (A) (A) (A) (A) (A) (A) (A) (A) (A) (A)
                 (A) (A) (A) (A) (A) (A) (A) (A) (A) (A) (A) (A)
                 (A) (A) (A) (A) (A) (A) (A) (A) (A) (A) (A) (A)
                 (A) (A) (A) (A) (A) (A) (A) (A) (A) (A) (A) (A)
                 (A) (A) (A) (A) (A) (A) (A) (A) (A) (A) (A) (A)
                 (A) (A) (A) (A) (A) (A) (A) (A) (A) (A) (A) (A)
                 (A) (A) (A) (A) (A) (A) (A) (A) (A) (A) (A) (A)
                 (A) (A) (A) (A) (A) (A) (A) (A) (A) (A) (A) (A)
                 (A) (A) (A) (A) (A) (A) (A) (A) (A) (A) (A) (A)
                 (A) (A) (A) (A) (A) (A) (A) (A) (A) (A) (A) (A)
                 (A) (A) (A) (A) (A) (A) (A) (A) (A) (A) (A) (A)
                 (A) (A) (A) (A) (A) (A) (A) (A) (A) (A) (A) (A)
                 (A) (A) (A) (A) (A) (A) (A) (A) (A) (A) (A) (A)
                 (A) (A) (A) (A) (A) (A) (A) (A) (A) (A) (A) (A)
                 (A) (A) (A) (A) (A) (A) (A) (A) (A) (A) (A) (A)
                 (A) (A) (A) (A) (A) (A) (A) (A) (A) (A) (A) (A)
                 (A) (A) (A) (A) (A) (A) (A) (A) (A) (A) (A) (A)
                 (A) (A) (A) (A) (A) (A) (A) (A) (A) (A) (A) (A)
                 (A) (A) (A) (A) (A) (A) (A) (A) (A) (A) (A) (A)
                 (A) (A) (A) (A) (A) (A) (A) (A) (A) (A) (A) (A)
                 (A) (A) (A) (A) (A) (A) (A) (A) (A) (A) (A) (A)
                 (A) (A) (A) (A) (A) (A) (A) (A) (A) (A) (A) (A)
                 (A) (A) (A) (A) (A) (A) (A) (A) (A) (A) (A) (A)
                 (A) (A) (A) (A) (A) (A) (A) (A) (A) (A) (A) (A)
                 (A) (A) (A) (A) (A) (A) (A) (A) (A) (A) (A) (A)
                 (A) (A) (A) (A) (A) (A) (A) (A) (A) (A) (A) (A)
                 (A) (A) (A) (A) (A) (A) (A) (A) (A)
    24 initial guesses have been made.
 Convergence on wavefunction:    0.001000000000000
 Iteration     1 Dimension    24 NMult     0 NNew     24
 CISAX will form    24 AO SS matrices at one time.
 New state      1 was old state      2
 New state      2 was old state      6
 New state      3 was old state      4
 New state      4 was old state      3
 New state      5 was old state      8
 New state      6 was old state      5
 New state      7 was old state     10
 New state      8 was old state     12
 New state      9 was old state     16
 New state     10 was old state     11
 New state     11 was old state     18
 New state     12 was old state     19
 Vector   5 SDiff=5.86D+00 TDiff=7.83D+00 assumed to be singlet.
 Vector  11 SDiff=5.74D+00 TDiff=7.35D+00 assumed to be singlet.
 Iteration     2 Dimension    36 NMult    24 NNew     12
 New state      3 was old state      4
 New state      4 was old state      3
 New state      5 was old state      6
 New state      6 was old state     10
 Iteration     3 Dimension    48 NMult    36 NNew     12
 No map to state      6
 Iteration     4 Dimension    60 NMult    48 NNew     12
 Iteration     5 Dimension    72 NMult    60 NNew     12
 Iteration     6 Dimension    82 NMult    72 NNew     10
 Iteration     7 Dimension    86 NMult    82 NNew      4
 Iteration     8 Dimension    88 NMult    86 NNew      2
 ***********************************************************************
 Excited states from <AA,BB:AA,BB> singles matrix:
 ***********************************************************************
 
 Ground to excited state transition densities written to RWF  633
 Ground to excited state transition electric dipole moments (Au):
       state          X           Y           Z        Dip. S.      Osc.
         1         0.0000      0.0000      0.0000      0.0000      0.0000
         2        -0.0000     -0.0000     -0.0000      0.0000      0.0000
         3        -0.1423      0.4253      0.1250      0.2168      0.0143
         4        -0.0000      0.0000      0.0000      0.0000      0.0000
         5        -0.8689      0.2929      0.0286      0.8416      0.0616
         6         0.3767     -0.8680     -0.3865      1.0447      0.0812
 Ground to excited state transition velocity dipole moments (Au):
       state          X           Y           Z        Dip. S.      Osc.
         1        -0.0000     -0.0000     -0.0000      0.0000      0.0000
         2         0.0000     -0.0000      0.0000      0.0000      0.0000
         3         0.0135     -0.0433     -0.0136      0.0022      0.0151
         4         0.0000     -0.0000     -0.0000      0.0000      0.0000
         5         0.0900     -0.0339     -0.0044      0.0093      0.0562
         6        -0.0444      0.1059      0.0465      0.0153      0.0878
 Ground to excited state transition magnetic dipole moments (Au):
       state          X           Y           Z
         1         0.0000      0.0000      0.0000
         2         0.0000      0.0000     -0.0000
         3        -0.0891      0.1281      0.2104
         4        -0.0000      0.0000      0.0000
         5        -0.1585      0.0318     -0.0677
         6         0.0556      0.0872     -0.0701
 Ground to excited state transition velocity quadrupole moments (Au):
       state          XX          YY          ZZ          XY          XZ          YZ
         1         0.0000     -0.0000     -0.0000      0.0000      0.0000      0.0000
         2         0.0000     -0.0000     -0.0000     -0.0000     -0.0000      0.0000
         3         0.0740     -0.1358     -0.0107      0.0783      0.0544     -0.0172
         4         0.0000     -0.0000     -0.0000      0.0000      0.0000     -0.0000
         5         0.3702     -0.1419      0.0505     -0.0505     -0.0297     -0.0403
         6         0.3082      0.3602     -0.0150     -0.3783     -0.1396      0.0744
 <0|del|b> * <b|rxdel|0> + <0|del|b> * <b|delr+rdel|0>
 Rotatory Strengths (R) in cgs (10**-40 erg-esu-cm/Gauss)
       state          XX          YY          ZZ    R(velocity)    E-M Angle
         1        -0.0000      0.0000     -0.0000     -0.0000       90.00
         2        -0.0000      0.0000     -0.0000     -0.0000       90.00
         3       -25.4369    -11.5430    -31.7528    -22.9109      140.73
         4        -0.0000     -0.0000     -0.0000     -0.0000       90.00
         5        -5.0410    -57.3679    -34.4815    -32.2968      153.09
         6         9.5778     25.9648    -14.2802      7.0875       76.91
 1/2[<0|r|b>*<b|rxdel|0> + (<0|rxdel|b>*<b|r|0>)*]
 Rotatory Strengths (R) in cgs (10**-40 erg-esu-cm/Gauss)
       state          XX          YY          ZZ     R(length)
         1        -0.0000     -0.0000     -0.0000     -0.0000
         2         0.0000      0.0000     -0.0000      0.0000
         3        -8.9712    -38.5279    -18.5930    -22.0307
         4        -0.0000     -0.0000     -0.0000     -0.0000
         5       -97.3973     -6.5911      1.3693    -34.2064
         6       -14.8115     53.5285    -19.1599      6.5190
  1/2[<0|del|b>*<b|r|0> + (<0|r|b>*<b|del|0>)*] (Au)
       state          X           Y           Z        Dip. S.   Osc.(frdel)
         1        -0.0000     -0.0000     -0.0000      0.0000      0.0000
         2        -0.0000      0.0000     -0.0000      0.0000      0.0000
         3        -0.0019     -0.0184     -0.0017      0.0220      0.0147
         4        -0.0000     -0.0000     -0.0000      0.0000      0.0000
         5        -0.0782     -0.0099     -0.0001      0.0882      0.0588
         6        -0.0167     -0.0919     -0.0180      0.1266      0.0844

 Excitation energies and oscillator strengths:
 
 Excited State   1:      Triplet-A      1.0583 eV 1171.51 nm  f=0.0000  <S**2>=2.000
      89 -> 90         0.65733
      89 -> 91        -0.32316
      89 -> 94        -0.16039
      89 <- 90         0.22906
      89 <- 91        -0.12766
 This state for optimization and/or second-order correction.
 Total Energy, E(TD-HF/TD-DFT) =  -1542.18276234    
 Copying the excited state density for this state as the 1-particle RhoCI density.
 
 Excited State   2:      Triplet-A      2.0799 eV  596.11 nm  f=0.0000  <S**2>=2.000
      88 -> 90         0.47701
      88 -> 91         0.49607
      88 -> 93        -0.14755
 
 Excited State   3:      Singlet-A      2.6891 eV  461.06 nm  f=0.0143  <S**2>=0.000
      89 -> 90         0.54011
      89 -> 91         0.44576
 
 Excited State   4:      Triplet-A      2.7017 eV  458.92 nm  f=0.0000  <S**2>=2.000
      89 -> 90         0.30110
      89 -> 91         0.59986
      89 -> 92        -0.14944
 
 Excited State   5:      Singlet-A      2.9868 eV  415.10 nm  f=0.0616  <S**2>=0.000
      88 -> 90         0.66113
      88 -> 91        -0.18475
      89 -> 91        -0.10027
 
 Excited State   6:      Singlet-A      3.1708 eV  391.02 nm  f=0.0812  <S**2>=0.000
      88 -> 90         0.11737
      89 -> 90        -0.41667
      89 -> 91         0.52147
      89 -> 94        -0.16902
 SavETr:  write IOETrn=   770 NScale= 10 NData=  16 NLR=1 NState=    6 LETran=     118.

 **********************************************************************

            Population analysis using the SCF Density.

 **********************************************************************

 Orbital symmetries:
       Occupied  (A) (A) (A) (A) (A) (A) (A) (A) (A) (A) (A) (A)
                 (A) (A) (A) (A) (A) (A) (A) (A) (A) (A) (A) (A)
                 (A) (A) (A) (A) (A) (A) (A) (A) (A) (A) (A) (A)
                 (A) (A) (A) (A) (A) (A) (A) (A) (A) (A) (A) (A)
                 (A) (A) (A) (A) (A) (A) (A) (A) (A) (A) (A) (A)
                 (A) (A) (A) (A) (A) (A) (A) (A) (A) (A) (A) (A)
                 (A) (A) (A) (A) (A) (A) (A) (A) (A) (A) (A) (A)
                 (A) (A) (A) (A) (A)
       Virtual   (A) (A) (A) (A) (A) (A) (A) (A) (A) (A) (A) (A)
                 (A) (A) (A) (A) (A) (A) (A) (A) (A) (A) (A) (A)
                 (A) (A) (A) (A) (A) (A) (A) (A) (A) (A) (A) (A)
                 (A) (A) (A) (A) (A) (A) (A) (A) (A) (A) (A) (A)
                 (A) (A) (A) (A) (A) (A) (A) (A) (A) (A) (A) (A)
                 (A) (A) (A) (A) (A) (A) (A) (A) (A) (A) (A) (A)
                 (A) (A) (A) (A) (A) (A) (A) (A) (A) (A) (A) (A)
                 (A) (A) (A) (A) (A) (A) (A) (A) (A) (A) (A) (A)
                 (A) (A) (A) (A) (A) (A) (A) (A) (A) (A) (A) (A)
                 (A) (A) (A) (A) (A) (A) (A) (A) (A) (A) (A) (A)
                 (A) (A) (A) (A) (A) (A) (A) (A) (A) (A) (A) (A)
                 (A) (A) (A) (A) (A) (A) (A) (A) (A) (A) (A) (A)
                 (A) (A) (A) (A) (A) (A) (A) (A) (A) (A) (A) (A)
                 (A) (A) (A) (A) (A) (A) (A) (A) (A) (A) (A) (A)
                 (A) (A) (A) (A) (A) (A) (A) (A) (A) (A) (A) (A)
                 (A) (A) (A) (A) (A) (A) (A) (A) (A) (A) (A) (A)
                 (A) (A) (A) (A) (A) (A) (A) (A) (A) (A) (A) (A)
                 (A) (A) (A) (A) (A) (A) (A) (A) (A) (A) (A) (A)
                 (A) (A) (A) (A) (A) (A) (A) (A) (A) (A) (A) (A)
                 (A) (A) (A) (A) (A) (A) (A) (A) (A) (A) (A) (A)
                 (A) (A) (A) (A) (A) (A) (A) (A) (A) (A) (A) (A)
                 (A) (A) (A) (A) (A) (A) (A) (A) (A) (A) (A) (A)
                 (A) (A) (A) (A) (A) (A) (A) (A) (A) (A) (A) (A)
                 (A) (A) (A) (A) (A) (A) (A) (A) (A) (A) (A) (A)
                 (A) (A) (A) (A) (A) (A) (A) (A) (A) (A) (A) (A)
                 (A) (A) (A) (A) (A) (A) (A) (A) (A) (A) (A) (A)
                 (A) (A) (A) (A) (A) (A) (A) (A) (A) (A) (A) (A)
                 (A) (A) (A) (A) (A) (A) (A) (A) (A) (A) (A) (A)
                 (A) (A) (A) (A) (A) (A) (A) (A) (A) (A) (A) (A)
                 (A) (A) (A) (A) (A) (A) (A) (A) (A) (A) (A) (A)
                 (A) (A) (A) (A) (A) (A) (A) (A) (A) (A) (A) (A)
                 (A) (A) (A) (A) (A) (A) (A) (A) (A) (A) (A) (A)
                 (A) (A) (A) (A) (A) (A) (A) (A) (A) (A) (A) (A)
                 (A) (A) (A) (A) (A) (A) (A) (A) (A) (A) (A) (A)
                 (A) (A) (A) (A) (A) (A) (A) (A) (A) (A) (A) (A)
                 (A) (A) (A) (A) (A) (A) (A) (A) (A)
 The electronic state is 1-A.
 Alpha  occ. eigenvalues -- -101.57939 -19.16632 -19.16501 -19.16030 -19.15914
 Alpha  occ. eigenvalues --  -14.51315 -14.50937 -14.38159 -10.30593 -10.30179
 Alpha  occ. eigenvalues --  -10.29390 -10.28651 -10.28526 -10.28358 -10.28250
 Alpha  occ. eigenvalues --  -10.27646 -10.24510 -10.24406 -10.24199 -10.24163
 Alpha  occ. eigenvalues --  -10.22719 -10.22211 -10.22140 -10.21211  -9.49434
 Alpha  occ. eigenvalues --   -7.25856  -7.24871  -7.24824  -1.14563  -1.13343
 Alpha  occ. eigenvalues --   -1.06525  -1.05957  -0.95663  -0.95506  -0.92372
 Alpha  occ. eigenvalues --   -0.88023  -0.86972  -0.86686  -0.82029  -0.80860
 Alpha  occ. eigenvalues --   -0.79010  -0.74876  -0.74557  -0.72921  -0.67472
 Alpha  occ. eigenvalues --   -0.66797  -0.64679  -0.63250  -0.62599  -0.60963
 Alpha  occ. eigenvalues --   -0.56929  -0.55821  -0.54740  -0.53099  -0.52833
 Alpha  occ. eigenvalues --   -0.50874  -0.50518  -0.49517  -0.49026  -0.48792
 Alpha  occ. eigenvalues --   -0.48134  -0.48026  -0.47617  -0.47222  -0.45122
 Alpha  occ. eigenvalues --   -0.44593  -0.44473  -0.43448  -0.43130  -0.42487
 Alpha  occ. eigenvalues --   -0.42450  -0.41753  -0.40367  -0.40225  -0.39770
 Alpha  occ. eigenvalues --   -0.39546  -0.36175  -0.35943  -0.34080  -0.31335
 Alpha  occ. eigenvalues --   -0.30499  -0.29711  -0.29185  -0.28740  -0.28611
 Alpha  occ. eigenvalues --   -0.28450  -0.27560  -0.24508  -0.22819
 Alpha virt. eigenvalues --   -0.11483  -0.10239  -0.06994  -0.05183  -0.03486
 Alpha virt. eigenvalues --   -0.01331  -0.00863   0.00076   0.00343   0.00965
 Alpha virt. eigenvalues --    0.01164   0.01980   0.02317   0.02697   0.02896
 Alpha virt. eigenvalues --    0.03529   0.04014   0.04259   0.05152   0.05492
 Alpha virt. eigenvalues --    0.05552   0.06340   0.06347   0.07015   0.07380
 Alpha virt. eigenvalues --    0.08033   0.08281   0.08467   0.09135   0.09387
 Alpha virt. eigenvalues --    0.09760   0.09985   0.10211   0.10492   0.11106
 Alpha virt. eigenvalues --    0.11356   0.11481   0.12124   0.12379   0.12601
 Alpha virt. eigenvalues --    0.12732   0.12979   0.13325   0.13525   0.13789
 Alpha virt. eigenvalues --    0.14408   0.14551   0.15348   0.15585   0.16040
 Alpha virt. eigenvalues --    0.16143   0.16355   0.16614   0.16959   0.17297
 Alpha virt. eigenvalues --    0.17739   0.17900   0.18185   0.18576   0.18809
 Alpha virt. eigenvalues --    0.18999   0.19298   0.19538   0.19805   0.19942
 Alpha virt. eigenvalues --    0.20166   0.20564   0.20804   0.21406   0.21695
 Alpha virt. eigenvalues --    0.21790   0.22219   0.22377   0.22502   0.22773
 Alpha virt. eigenvalues --    0.23185   0.23492   0.23705   0.24328   0.24384
 Alpha virt. eigenvalues --    0.24500   0.24705   0.25037   0.25533   0.25821
 Alpha virt. eigenvalues --    0.26379   0.26505   0.26755   0.26882   0.27436
 Alpha virt. eigenvalues --    0.27468   0.27942   0.28310   0.28686   0.29758
 Alpha virt. eigenvalues --    0.29865   0.30590   0.30757   0.30950   0.31171
 Alpha virt. eigenvalues --    0.31424   0.31722   0.31991   0.33483   0.33497
 Alpha virt. eigenvalues --    0.33661   0.34172   0.34943   0.35276   0.35948
 Alpha virt. eigenvalues --    0.36060   0.36434   0.36626   0.37388   0.38108
 Alpha virt. eigenvalues --    0.38271   0.38981   0.39368   0.39642   0.40327
 Alpha virt. eigenvalues --    0.40641   0.40868   0.41933   0.42397   0.42815
 Alpha virt. eigenvalues --    0.43166   0.43837   0.44955   0.45813   0.47001
 Alpha virt. eigenvalues --    0.47555   0.48765   0.49497   0.50770   0.51444
 Alpha virt. eigenvalues --    0.52488   0.54838   0.55283   0.55604   0.57987
 Alpha virt. eigenvalues --    0.60239   0.60499   0.61439   0.61951   0.64209
 Alpha virt. eigenvalues --    0.64507   0.65681   0.66076   0.66741   0.67492
 Alpha virt. eigenvalues --    0.68099   0.68625   0.69450   0.69592   0.69904
 Alpha virt. eigenvalues --    0.70648   0.71750   0.72144   0.72564   0.73767
 Alpha virt. eigenvalues --    0.74761   0.75698   0.76079   0.76954   0.77384
 Alpha virt. eigenvalues --    0.78432   0.79137   0.79930   0.80515   0.80872
 Alpha virt. eigenvalues --    0.81074   0.83099   0.83514   0.84263   0.84965
 Alpha virt. eigenvalues --    0.86270   0.88045   0.88461   0.88745   0.89467
 Alpha virt. eigenvalues --    0.90229   0.91452   0.91679   0.92219   0.92736
 Alpha virt. eigenvalues --    0.93763   0.94515   0.95574   0.96044   0.96279
 Alpha virt. eigenvalues --    0.96660   0.98826   0.99421   0.99884   1.01392
 Alpha virt. eigenvalues --    1.02887   1.03413   1.03609   1.04581   1.05689
 Alpha virt. eigenvalues --    1.06837   1.08085   1.08557   1.09432   1.11472
 Alpha virt. eigenvalues --    1.11906   1.12815   1.14206   1.14815   1.16452
 Alpha virt. eigenvalues --    1.16969   1.18288   1.18390   1.19726   1.20298
 Alpha virt. eigenvalues --    1.21257   1.22282   1.23140   1.23252   1.24905
 Alpha virt. eigenvalues --    1.25145   1.26699   1.26832   1.27402   1.27697
 Alpha virt. eigenvalues --    1.28321   1.29849   1.30372   1.30955   1.31617
 Alpha virt. eigenvalues --    1.33163   1.33572   1.33834   1.34047   1.34968
 Alpha virt. eigenvalues --    1.35279   1.35359   1.35800   1.37133   1.37307
 Alpha virt. eigenvalues --    1.38683   1.39542   1.40860   1.40932   1.41314
 Alpha virt. eigenvalues --    1.42290   1.44048   1.44322   1.45265   1.45971
 Alpha virt. eigenvalues --    1.46735   1.47179   1.48560   1.49289   1.50187
 Alpha virt. eigenvalues --    1.50729   1.53649   1.56674   1.58612   1.61539
 Alpha virt. eigenvalues --    1.62606   1.63910   1.65453   1.67326   1.69724
 Alpha virt. eigenvalues --    1.71801   1.72346   1.72582   1.73693   1.75192
 Alpha virt. eigenvalues --    1.75468   1.77533   1.78361   1.79188   1.79446
 Alpha virt. eigenvalues --    1.80023   1.81303   1.82338   1.83487   1.84776
 Alpha virt. eigenvalues --    1.85860   1.85881   1.86426   1.88081   1.89091
 Alpha virt. eigenvalues --    1.89446   1.89825   1.90666   1.91798   1.92188
 Alpha virt. eigenvalues --    1.94105   1.95303   1.96591   1.97797   1.98678
 Alpha virt. eigenvalues --    1.99706   1.99870   2.01157   2.01575   2.02503
 Alpha virt. eigenvalues --    2.03016   2.03276   2.03849   2.04482   2.05218
 Alpha virt. eigenvalues --    2.07045   2.08469   2.09716   2.10463   2.11359
 Alpha virt. eigenvalues --    2.11544   2.13036   2.14793   2.15901   2.16689
 Alpha virt. eigenvalues --    2.17698   2.18738   2.19387   2.20165   2.21536
 Alpha virt. eigenvalues --    2.22616   2.24381   2.26946   2.28146   2.28889
 Alpha virt. eigenvalues --    2.30516   2.31030   2.32772   2.34571   2.37077
 Alpha virt. eigenvalues --    2.37723   2.38396   2.39167   2.39331   2.40409
 Alpha virt. eigenvalues --    2.41682   2.43306   2.43733   2.44698   2.46240
 Alpha virt. eigenvalues --    2.46551   2.49177   2.49956   2.50384   2.51749
 Alpha virt. eigenvalues --    2.52102   2.53332   2.54337   2.55440   2.55770
 Alpha virt. eigenvalues --    2.57441   2.59308   2.60460   2.60951   2.63114
 Alpha virt. eigenvalues --    2.65123   2.66887   2.68236   2.68447   2.69246
 Alpha virt. eigenvalues --    2.70090   2.70369   2.70753   2.71613   2.72122
 Alpha virt. eigenvalues --    2.75164   2.76225   2.78379   2.80512   2.81282
 Alpha virt. eigenvalues --    2.81781   2.84746   2.86057   2.88240   2.88640
 Alpha virt. eigenvalues --    2.91301   2.93621   2.94702   2.98348   3.00355
 Alpha virt. eigenvalues --    3.02466   3.08046   3.10525   3.11642   3.13768
 Alpha virt. eigenvalues --    3.15166   3.17383   3.18828   3.19856   3.23928
 Alpha virt. eigenvalues --    3.26121   3.28520   3.29295   3.30622   3.33827
 Alpha virt. eigenvalues --    3.36193   3.44285   3.46254   3.46776   3.47261
 Alpha virt. eigenvalues --    3.53277   3.54002   3.62743   3.67093   3.73349
 Alpha virt. eigenvalues --    4.16739   4.18742   4.25861   4.26293   4.31308
 Alpha virt. eigenvalues --    4.32502   4.35089   4.36403   4.39504   4.42338
 Alpha virt. eigenvalues --    4.46305   4.49283   4.51445   4.53792   4.55303
 Alpha virt. eigenvalues --    4.56793   4.64377   4.69335   4.70607   4.75679
 Alpha virt. eigenvalues --    4.80471   4.88223   4.94071   5.06471
          Condensed to atoms (all electrons):
               1          2          3          4          5          6
     1  C    9.303288  -3.504772   0.528175   0.025255  -0.189158  -1.343289
     2  C   -3.504772  20.858434  -9.590620  -2.126203   0.194721  -0.522945
     3  C    0.528175  -9.590620  27.372362  -0.751686  -0.383414  -3.519405
     4  C    0.025255  -2.126203  -0.751686  15.116091   0.646059  -2.827658
     5  O   -0.189158   0.194721  -0.383414   0.646059   8.252988   0.268710
     6  C   -1.343289  -0.522945  -3.519405  -2.827658   0.268710  37.840748
     7  C    0.084687   0.397723   1.425747  -7.778843  -0.242598  -6.831762
     8  N   -0.009337  -0.014841  -0.088152  -0.020167   0.008333  -0.087943
     9  C    0.125312  -0.042937   0.412721   0.353839  -0.056716  -1.407337
    10  O   -0.000172  -0.000190   0.008531   0.010956  -0.000774  -0.117714
    11  C   -0.037112  -0.006432  -0.119640  -0.586136   0.002309  -1.371441
    12  C    0.195567   0.859563  -0.411403   4.146829   0.001504  -8.452891
    13  C    0.029447  -0.609104  -1.639694  -1.367444  -0.055392  -2.838070
    14  N    0.207621   0.169170  -2.558885   0.822592   0.010039  -0.683772
    15  O   -0.048273   0.469647  -0.343548  -0.321558   0.005511  -0.031164
    16  C    0.053797  -5.804395   4.314346   0.901790  -0.013834  -1.053098
    17  C   -0.425041  -2.086373   2.606074   0.305098   0.007784   0.580072
    18  C    0.028860  -0.229539   0.298869  -0.063505   0.000430  -0.047055
    19  Cl  -0.001081  -0.001578  -0.010651  -0.000503   0.000014  -0.000428
    20  C    0.029878   0.095629   0.425846   0.002383   0.000339   0.046587
    21  C    0.505372   2.051094  -4.925598  -0.000390  -0.018587  -0.618670
    22  C   -0.157186   5.808904  -7.559246  -0.568974  -0.041953  -1.792827
    23  N   -0.276288  -0.120250   0.056285   0.008517   0.006991  -0.204940
    24  O    0.110345  -0.457686   0.222759   0.027373  -0.000231  -0.009158
    25  H    0.461242  -0.127397  -0.054633  -0.003473   0.001964   0.063927
    26  H    0.542013  -0.181827   0.029018   0.019794  -0.000556   0.021301
    27  H    0.453232  -0.034342  -0.025959  -0.014131   0.000399  -0.049077
    28  H   -0.000461   0.000427  -0.009255  -0.008193   0.003690   0.146099
    29  H    0.000021   0.004869   0.057447   0.062492   0.023675  -0.252321
    30  H    0.000000  -0.000075  -0.000896  -0.002430  -0.000002   0.010678
    31  H    0.000155   0.001182   0.000618  -0.003025   0.000016   0.009829
    32  H    0.003433   0.010384  -0.024855   0.049769  -0.000613  -0.089364
    33  H   -0.018910   0.004731  -0.005328   0.075694  -0.000771  -0.092824
    34  H    0.000823   0.026679  -0.044670  -0.005300   0.000011  -0.007488
    35  H   -0.000207  -0.000314   0.001679   0.000043  -0.000000   0.000022
    36  H   -0.001237  -0.032444   0.010536  -0.001485   0.000001  -0.000211
               7          8          9         10         11         12
     1  C    0.084687  -0.009337   0.125312  -0.000172  -0.037112   0.195567
     2  C    0.397723  -0.014841  -0.042937  -0.000190  -0.006432   0.859563
     3  C    1.425747  -0.088152   0.412721   0.008531  -0.119640  -0.411403
     4  C   -7.778843  -0.020167   0.353839   0.010956  -0.586136   4.146829
     5  O   -0.242598   0.008333  -0.056716  -0.000774   0.002309   0.001504
     6  C   -6.831762  -0.087943  -1.407337  -0.117714  -1.371441  -8.452891
     7  C   29.260201   0.268162  -5.236878  -0.521389   0.660818  -5.268364
     8  N    0.268162   7.002176  -0.031677  -0.020299   0.030232  -0.018938
     9  C   -5.236878  -0.031677  13.882000   0.694467  -1.868992   4.152559
    10  O   -0.521389  -0.020299   0.694467   8.429886  -0.018892   0.048407
    11  C    0.660818   0.030232  -1.868992  -0.018892   8.939075  -0.396916
    12  C   -5.268364  -0.018938   4.152559   0.048407  -0.396916  27.275439
    13  C    0.477129   0.017684  -5.322688  -0.040920   0.743587 -17.509207
    14  N   -0.550400   0.010904   0.005728   0.000125  -0.034067   0.307626
    15  O    0.046987  -0.003361   0.001534   0.000002   0.000528   0.110645
    16  C   -0.295547   0.007084  -0.008122  -0.000054   0.036385   0.192990
    17  C    0.031201  -0.001752  -0.017598   0.000053   0.005196  -0.319934
    18  C    0.007587  -0.000381   0.001495   0.000002   0.000027  -0.014777
    19  Cl   0.000094  -0.000000   0.000016  -0.000000  -0.000041   0.000315
    20  C   -0.009597   0.000016  -0.001480   0.000001   0.001000  -0.010046
    21  C    0.055960  -0.000528   0.019283  -0.000008  -0.011297   0.180716
    22  C    0.062997  -0.005770   0.075781  -0.000059  -0.024850   0.664562
    23  N   -0.016963  -0.000551   0.004534   0.000002   0.000876   0.099130
    24  O   -0.001837   0.000021   0.000046   0.000000   0.000052   0.003542
    25  H    0.024687   0.000825   0.005608  -0.000002  -0.001133   0.001791
    26  H    0.003647  -0.000024   0.000075   0.000000   0.000082  -0.001977
    27  H   -0.010723  -0.000010  -0.000436  -0.000000   0.000044   0.008927
    28  H   -0.146428   0.297625  -0.028427   0.023693   0.022386  -0.005258
    29  H    0.174853   0.303017  -0.033651   0.002114   0.001848   0.002644
    30  H    0.010167   0.000048   0.088302  -0.010642   0.189807  -0.038279
    31  H   -0.008233   0.000365  -0.008167  -0.000861   0.032237   0.268465
    32  H   -0.076198  -0.000306   0.014185   0.000187  -0.014323   0.228469
    33  H   -0.072870   0.000052  -0.010464   0.000195   0.010280   0.041940
    34  H   -0.001247   0.000000  -0.000033   0.000000   0.000145   0.001982
    35  H   -0.000000   0.000000  -0.000000  -0.000000  -0.000000  -0.000004
    36  H   -0.000011  -0.000000  -0.000000   0.000000   0.000001   0.000039
              13         14         15         16         17         18
     1  C    0.029447   0.207621  -0.048273   0.053797  -0.425041   0.028860
     2  C   -0.609104   0.169170   0.469647  -5.804395  -2.086373  -0.229539
     3  C   -1.639694  -2.558885  -0.343548   4.314346   2.606074   0.298869
     4  C   -1.367444   0.822592  -0.321558   0.901790   0.305098  -0.063505
     5  O   -0.055392   0.010039   0.005511  -0.013834   0.007784   0.000430
     6  C   -2.838070  -0.683772  -0.031164  -1.053098   0.580072  -0.047055
     7  C    0.477129  -0.550400   0.046987  -0.295547   0.031201   0.007587
     8  N    0.017684   0.010904  -0.003361   0.007084  -0.001752  -0.000381
     9  C   -5.322688   0.005728   0.001534  -0.008122  -0.017598   0.001495
    10  O   -0.040920   0.000125   0.000002  -0.000054   0.000053   0.000002
    11  C    0.743587  -0.034067   0.000528   0.036385   0.005196   0.000027
    12  C  -17.509207   0.307626   0.110645   0.192990  -0.319934  -0.014777
    13  C   33.094376   0.431388   0.039457   0.612175  -0.126670   0.031122
    14  N    0.431388   8.697657   0.100660  -1.025296   0.126487  -0.237847
    15  O    0.039457   0.100660   7.965785  -0.446199  -0.079588   0.172410
    16  C    0.612175  -1.025296  -0.446199  26.148198  -7.778371  -0.163176
    17  C   -0.126670   0.126487  -0.079588  -7.778371  18.877083  -2.098902
    18  C    0.031122  -0.237847   0.172410  -0.163176  -2.098902   9.557146
    19  Cl  -0.000060  -0.005083   0.000571   0.009640  -0.072657  -0.125291
    20  C   -0.000361  -0.048589  -0.005874   0.756692  -2.862198   0.411130
    21  C    0.093087   0.668766  -0.031447  -2.311059  -0.759150   0.980119
    22  C    0.301437   1.092467   0.354671  -9.182437   0.508262  -2.916646
    23  N    0.113365  -0.012857  -0.032711   0.308156   0.039565   0.052566
    24  O    0.006794  -0.046501  -0.008404   0.413949  -0.103824   0.003153
    25  H   -0.028576   0.002016  -0.000174  -0.002592  -0.001257   0.000067
    26  H   -0.009372  -0.005756  -0.000088  -0.000312  -0.002918  -0.000017
    27  H    0.023422   0.002078   0.000060  -0.001064  -0.003314   0.000242
    28  H    0.014766   0.000049   0.000001  -0.000041   0.000006   0.000001
    29  H   -0.026360  -0.000723  -0.000014   0.000191   0.000024   0.000006
    30  H    0.066524  -0.000007   0.000008   0.000053  -0.000006   0.000000
    31  H    0.020468  -0.000278   0.000019  -0.000413  -0.000368  -0.000006
    32  H    0.217497   0.038240  -0.007555  -0.043903   0.007878  -0.002267
    33  H    0.339870   0.005900  -0.001537   0.014662   0.001565   0.000244
    34  H    0.006556  -0.054334   0.015986   0.203709   0.024353   0.011176
    35  H   -0.000034   0.000351   0.000014  -0.044156   0.126431   0.060497
    36  H    0.000354  -0.001514   0.000050   0.169322  -0.061639  -0.020459
              19         20         21         22         23         24
     1  C   -0.001081   0.029878   0.505372  -0.157186  -0.276288   0.110345
     2  C   -0.001578   0.095629   2.051094   5.808904  -0.120250  -0.457686
     3  C   -0.010651   0.425846  -4.925598  -7.559246   0.056285   0.222759
     4  C   -0.000503   0.002383  -0.000390  -0.568974   0.008517   0.027373
     5  O    0.000014   0.000339  -0.018587  -0.041953   0.006991  -0.000231
     6  C   -0.000428   0.046587  -0.618670  -1.792827  -0.204940  -0.009158
     7  C    0.000094  -0.009597   0.055960   0.062997  -0.016963  -0.001837
     8  N   -0.000000   0.000016  -0.000528  -0.005770  -0.000551   0.000021
     9  C    0.000016  -0.001480   0.019283   0.075781   0.004534   0.000046
    10  O   -0.000000   0.000001  -0.000008  -0.000059   0.000002   0.000000
    11  C   -0.000041   0.001000  -0.011297  -0.024850   0.000876   0.000052
    12  C    0.000315  -0.010046   0.180716   0.664562   0.099130   0.003542
    13  C   -0.000060  -0.000361   0.093087   0.301437   0.113365   0.006794
    14  N   -0.005083  -0.048589   0.668766   1.092467  -0.012857  -0.046501
    15  O    0.000571  -0.005874  -0.031447   0.354671  -0.032711  -0.008404
    16  C    0.009640   0.756692  -2.311059  -9.182437   0.308156   0.413949
    17  C   -0.072657  -2.862198  -0.759150   0.508262   0.039565  -0.103824
    18  C   -0.125291   0.411130   0.980119  -2.916646   0.052566   0.003153
    19  Cl  16.963702  -0.110921   0.115665  -0.033387  -0.000335  -0.000250
    20  C   -0.110921   9.038470  -1.112859  -0.886081   0.039030   0.082004
    21  C    0.115665  -1.112859  15.892472  -4.404371  -0.039618   0.028765
    22  C   -0.033387  -0.886081  -4.404371  25.247804  -0.492770  -0.566262
    23  N   -0.000335   0.039030  -0.039618  -0.492770   7.633351   0.377989
    24  O   -0.000250   0.082004   0.028765  -0.566262   0.377989   7.829144
    25  H    0.000000  -0.000233   0.001346  -0.005249   0.008397   0.003426
    26  H   -0.000000   0.000051  -0.008259  -0.028124  -0.028399   0.003987
    27  H    0.000000  -0.000916  -0.003076   0.016876  -0.015753   0.003428
    28  H   -0.000000   0.000000  -0.000003  -0.000062  -0.000000   0.000000
    29  H    0.000000  -0.000003   0.000065   0.000422  -0.000002   0.000000
    30  H   -0.000000  -0.000000   0.000000  -0.000012  -0.000000   0.000000
    31  H   -0.000000   0.000006  -0.000005   0.000288  -0.000007  -0.000000
    32  H   -0.000015   0.001420  -0.001236   0.001026  -0.000814  -0.000015
    33  H    0.000006  -0.000673   0.000787   0.000192   0.002705   0.000025
    34  H    0.001477   0.049913  -0.044870   0.132374  -0.001589   0.000019
    35  H   -0.008850   0.235145  -0.055013   0.004026  -0.000163  -0.000039
    36  H    0.001366  -0.087772   0.233640   0.139299  -0.041033   0.010161
              25         26         27         28         29         30
     1  C    0.461242   0.542013   0.453232  -0.000461   0.000021   0.000000
     2  C   -0.127397  -0.181827  -0.034342   0.000427   0.004869  -0.000075
     3  C   -0.054633   0.029018  -0.025959  -0.009255   0.057447  -0.000896
     4  C   -0.003473   0.019794  -0.014131  -0.008193   0.062492  -0.002430
     5  O    0.001964  -0.000556   0.000399   0.003690   0.023675  -0.000002
     6  C    0.063927   0.021301  -0.049077   0.146099  -0.252321   0.010678
     7  C    0.024687   0.003647  -0.010723  -0.146428   0.174853   0.010167
     8  N    0.000825  -0.000024  -0.000010   0.297625   0.303017   0.000048
     9  C    0.005608   0.000075  -0.000436  -0.028427  -0.033651   0.088302
    10  O   -0.000002   0.000000  -0.000000   0.023693   0.002114  -0.010642
    11  C   -0.001133   0.000082   0.000044   0.022386   0.001848   0.189807
    12  C    0.001791  -0.001977   0.008927  -0.005258   0.002644  -0.038279
    13  C   -0.028576  -0.009372   0.023422   0.014766  -0.026360   0.066524
    14  N    0.002016  -0.005756   0.002078   0.000049  -0.000723  -0.000007
    15  O   -0.000174  -0.000088   0.000060   0.000001  -0.000014   0.000008
    16  C   -0.002592  -0.000312  -0.001064  -0.000041   0.000191   0.000053
    17  C   -0.001257  -0.002918  -0.003314   0.000006   0.000024  -0.000006
    18  C    0.000067  -0.000017   0.000242   0.000001   0.000006   0.000000
    19  Cl   0.000000  -0.000000   0.000000  -0.000000   0.000000  -0.000000
    20  C   -0.000233   0.000051  -0.000916   0.000000  -0.000003  -0.000000
    21  C    0.001346  -0.008259  -0.003076  -0.000003   0.000065   0.000000
    22  C   -0.005249  -0.028124   0.016876  -0.000062   0.000422  -0.000012
    23  N    0.008397  -0.028399  -0.015753  -0.000000  -0.000002  -0.000000
    24  O    0.003426   0.003987   0.003428   0.000000   0.000000   0.000000
    25  H    0.538163  -0.023631  -0.026900   0.000001  -0.000008  -0.000000
    26  H   -0.023631   0.502954  -0.022365   0.000000   0.000000   0.000000
    27  H   -0.026900  -0.022365   0.514699  -0.000000   0.000000  -0.000000
    28  H    0.000001   0.000000  -0.000000   0.362543  -0.019148  -0.000016
    29  H   -0.000008   0.000000   0.000000  -0.019148   0.335343   0.000002
    30  H   -0.000000   0.000000  -0.000000  -0.000016   0.000002   0.547532
    31  H    0.000000   0.000000  -0.000000   0.000000   0.000000  -0.005835
    32  H    0.000004   0.000000  -0.000000   0.000003  -0.000004  -0.000112
    33  H   -0.000062  -0.000002  -0.000025   0.000003  -0.000004  -0.000112
    34  H   -0.000000   0.000000   0.000000   0.000000  -0.000000  -0.000000
    35  H    0.000000  -0.000000  -0.000000  -0.000000   0.000000   0.000000
    36  H   -0.000000   0.000000   0.000001   0.000000  -0.000000  -0.000000
              31         32         33         34         35         36
     1  C    0.000155   0.003433  -0.018910   0.000823  -0.000207  -0.001237
     2  C    0.001182   0.010384   0.004731   0.026679  -0.000314  -0.032444
     3  C    0.000618  -0.024855  -0.005328  -0.044670   0.001679   0.010536
     4  C   -0.003025   0.049769   0.075694  -0.005300   0.000043  -0.001485
     5  O    0.000016  -0.000613  -0.000771   0.000011  -0.000000   0.000001
     6  C    0.009829  -0.089364  -0.092824  -0.007488   0.000022  -0.000211
     7  C   -0.008233  -0.076198  -0.072870  -0.001247  -0.000000  -0.000011
     8  N    0.000365  -0.000306   0.000052   0.000000   0.000000  -0.000000
     9  C   -0.008167   0.014185  -0.010464  -0.000033  -0.000000  -0.000000
    10  O   -0.000861   0.000187   0.000195   0.000000  -0.000000   0.000000
    11  C    0.032237  -0.014323   0.010280   0.000145  -0.000000   0.000001
    12  C    0.268465   0.228469   0.041940   0.001982  -0.000004   0.000039
    13  C    0.020468   0.217497   0.339870   0.006556  -0.000034   0.000354
    14  N   -0.000278   0.038240   0.005900  -0.054334   0.000351  -0.001514
    15  O    0.000019  -0.007555  -0.001537   0.015986   0.000014   0.000050
    16  C   -0.000413  -0.043903   0.014662   0.203709  -0.044156   0.169322
    17  C   -0.000368   0.007878   0.001565   0.024353   0.126431  -0.061639
    18  C   -0.000006  -0.002267   0.000244   0.011176   0.060497  -0.020459
    19  Cl  -0.000000  -0.000015   0.000006   0.001477  -0.008850   0.001366
    20  C    0.000006   0.001420  -0.000673   0.049913   0.235145  -0.087772
    21  C   -0.000005  -0.001236   0.000787  -0.044870  -0.055013   0.233640
    22  C    0.000288   0.001026   0.000192   0.132374   0.004026   0.139299
    23  N   -0.000007  -0.000814   0.002705  -0.001589  -0.000163  -0.041033
    24  O   -0.000000  -0.000015   0.000025   0.000019  -0.000039   0.010161
    25  H    0.000000   0.000004  -0.000062  -0.000000   0.000000  -0.000000
    26  H    0.000000   0.000000  -0.000002   0.000000  -0.000000   0.000000
    27  H   -0.000000  -0.000000  -0.000025   0.000000  -0.000000   0.000001
    28  H    0.000000   0.000003   0.000003   0.000000  -0.000000   0.000000
    29  H    0.000000  -0.000004  -0.000004  -0.000000   0.000000  -0.000000
    30  H   -0.005835  -0.000112  -0.000112  -0.000000   0.000000  -0.000000
    31  H    0.550893  -0.002076  -0.002727   0.000000  -0.000000   0.000000
    32  H   -0.002076   0.502914  -0.039257  -0.000013  -0.000000  -0.000000
    33  H   -0.002727  -0.039257   0.575778  -0.000000   0.000000  -0.000000
    34  H    0.000000  -0.000013  -0.000000   0.493163  -0.000135   0.000009
    35  H   -0.000000  -0.000000   0.000000  -0.000135   0.526231  -0.004671
    36  H    0.000000  -0.000000  -0.000000   0.000009  -0.004671   0.502295
 Mulliken charges:
               1
     1  C   -0.675999
     2  C    0.541112
     3  C    0.296525
     4  C   -0.123473
     5  O   -0.430887
     6  C    1.264879
     7  C    0.077241
     8  N   -0.642506
     9  C    0.238118
    10  O   -0.486644
    11  C   -0.185646
    12  C   -0.345656
    13  C   -1.106555
    14  N   -0.433956
    15  O    0.076947
    16  C    0.030928
    17  C   -0.445576
    18  C    0.302718
    19  Cl   0.278265
    20  C   -0.077938
    21  C   -0.481094
    22  C    0.254880
    23  N   -0.466417
    24  O    0.067224
    25  H    0.161857
    26  H    0.190704
    27  H    0.184680
    28  H    0.345998
    29  H    0.363206
    30  H    0.145303
    31  H    0.147457
    32  H    0.227519
    33  H    0.170937
    34  H    0.191305
    35  H    0.159145
    36  H    0.185401
 Sum of Mulliken charges =  -0.00000
 Mulliken charges with hydrogens summed into heavy atoms:
               1
     1  C   -0.138757
     2  C    0.541112
     3  C    0.296525
     4  C   -0.123473
     5  O   -0.430887
     6  C    1.264879
     7  C    0.077241
     8  N    0.066697
     9  C    0.238118
    10  O   -0.486644
    11  C   -0.040343
    12  C   -0.198199
    13  C   -0.708100
    14  N   -0.433956
    15  O    0.076947
    16  C    0.030928
    17  C   -0.254272
    18  C    0.302718
    19  Cl   0.278265
    20  C    0.081208
    21  C   -0.295693
    22  C    0.254880
    23  N   -0.466417
    24  O    0.067224
 Electronic spatial extent (au):  <R**2>=           9964.2989
 Charge=             -0.0000 electrons
 Dipole moment (field-independent basis, Debye):
    X=             -1.4470    Y=             -0.2925    Z=              2.8049  Tot=              3.1697
 Quadrupole moment (field-independent basis, Debye-Ang):
   XX=           -152.3632   YY=           -153.9843   ZZ=           -144.3847
   XY=              5.6601   XZ=              2.2964   YZ=             -7.3480
 Traceless Quadrupole moment (field-independent basis, Debye-Ang):
   XX=             -2.1191   YY=             -3.7402   ZZ=              5.8594
   XY=              5.6601   XZ=              2.2964   YZ=             -7.3480
 Octapole moment (field-independent basis, Debye-Ang**2):
  XXX=           -185.0354  YYY=            -31.8772  ZZZ=             -0.6216  XYY=             36.5415
  XXY=             42.7457  XXZ=             -5.8537  XZZ=             29.3561  YZZ=            -13.3988
  YYZ=             -1.7097  XYZ=            -11.2235
 Hexadecapole moment (field-independent basis, Debye-Ang**3):
 XXXX=         -10795.7768 YYYY=          -2577.5010 ZZZZ=           -800.5070 XXXY=            194.0635
 XXXZ=           -218.2110 YYYX=            142.7646 YYYZ=            -51.9578 ZZZX=            -23.8445
 ZZZY=            -18.8577 XXYY=          -2145.6726 XXZZ=          -1691.2310 YYZZ=           -549.0856
 XXYZ=            -79.0366 YYXZ=             71.4020 ZZXY=            -13.3187
 N-N= 2.123374674866D+03 E-N=-7.857861182408D+03  KE= 1.530831361971D+03
 Unable to Open any file for archive entry.
 1\1\GINC-N2\SP\RB3LYP TD-FC\6-31+G(d,p)\C16H12Cl1N3O4\HPCMGAC13\21-Sep
 -2025\0\\# td=(50-50,nstates=3) b3lyp/6-31+g(d,p) geom=connectivity\\T
 itle Card Required\\0,1\C,0,-0.53872,3.230227,-0.399867\C,0,0.30297,2.
 018424,-0.16464\C,0,-0.190419,0.792404,0.321691\C,0,-1.636349,0.663939
 ,0.78572\O,0,-1.940591,1.345386,1.780334\C,0,-2.561361,-0.15535,0.0412
 78\C,0,-3.891381,-0.223002,0.444833\N,0,-4.421393,0.413728,1.495154\C,
 0,-4.892562,-1.058111,-0.319862\O,0,-6.063179,-1.082166,0.059635\C,0,-
 4.409029,-1.798476,-1.479773\C,0,-3.116672,-1.745492,-1.855032\C,0,-2.
 078175,-0.954583,-1.140332\N,0,0.613033,-0.280649,0.509737\O,0,0.15566
 7,-1.401627,0.955014\C,0,1.975012,-0.159111,0.212798\C,0,2.829527,-1.2
 58044,0.414406\C,0,4.168208,-1.111855,0.111231\Cl,0,5.259851,-2.458882
 ,0.348963\C,0,4.687974,0.103817,-0.388205\C,0,3.847909,1.181731,-0.582
 428\C,0,2.478244,1.060651,-0.281837\N,0,1.620614,2.149194,-0.474455\O,
 0,2.087154,3.252694,-0.938125\H,0,-1.585991,3.038987,-0.175394\H,0,-0.
 183488,4.05504,0.227142\H,0,-0.424679,3.561716,-1.437233\H,0,-5.407708
 ,0.269971,1.67331\H,0,-3.822193,0.98529,2.079813\H,0,-5.144825,-2.3919
 3,-2.013122\H,0,-2.78313,-2.31247,-2.721653\H,0,-1.292734,-1.6514,-0.8
 01839\H,0,-1.582136,-0.304469,-1.87866\H,0,2.410152,-2.17716,0.802007\
 H,0,5.74532,0.182627,-0.613951\H,0,4.204698,2.131561,-0.960605\\Versio
 n=ES64L-G16RevC.02\State=1-A\HF=-1542.2216552\RMSD=2.314e-09\PG=C01 [X
 (C16H12Cl1N3O4)]\\@
 The archive entry for this job was punched.


 POCKETA-POCKETA
 BARON VON RICHTOFEN
 SLAUGHTERED THE ALLIES WITH
 HARDLY A CARE.
 KILLED EIGHTY-ONE WITH HIS
 BLOOD-COLORED TRIPLANE, THEN
 UN-AEROBATICALLY
 PLUNGED FROM THE AIR.
   -- TONY HOFFMAN
 Job cpu time:       0 days  1 hours 37 minutes  6.6 seconds.
 Elapsed time:       0 days  0 hours 12 minutes 18.7 seconds.
 File lengths (MBytes):  RWF=   1488 Int=      0 D2E=      0 Chk=     71 Scr=      2
 Normal termination of Gaussian 16 at Sun Sep 21 20:01:42 2025.
