 Entering Gaussian System, Link 0=g16
 Input=M1437.gjf
 Output=M1437.log
 Initial command:
 /hpc/softwares/Gaussian/g16/l1.exe "/hpc/home/hpcmgac13/pbs.12994.admin1.x8z/Gau-2584400.inp" -scrdir="/hpc/home/hpcmgac13/pbs.12994.admin1.x8z/"
 Default linda workers: n2
 Default is to use  16 SMP processors on each worker.
 Entering Link 1 = /hpc/softwares/Gaussian/g16/l1.exe PID=   2584401.
  
 Copyright (c) 1988-2021, Gaussian, Inc.  All Rights Reserved.
  
 This is part of the Gaussian(R) 16 program.  It is based on
 the Gaussian(R) 09 system (copyright 2009, Gaussian, Inc.),
 the Gaussian(R) 03 system (copyright 2003, Gaussian, Inc.),
 the Gaussian(R) 98 system (copyright 1998, Gaussian, Inc.),
 the Gaussian(R) 94 system (copyright 1995, Gaussian, Inc.),
 the Gaussian 92(TM) system (copyright 1992, Gaussian, Inc.),
 the Gaussian 90(TM) system (copyright 1990, Gaussian, Inc.),
 the Gaussian 88(TM) system (copyright 1988, Gaussian, Inc.),
 the Gaussian 86(TM) system (copyright 1986, Carnegie Mellon
 University), and the Gaussian 82(TM) system (copyright 1983,
 Carnegie Mellon University). Gaussian is a federally registered
 trademark of Gaussian, Inc.
  
 This software contains proprietary and confidential information,
 including trade secrets, belonging to Gaussian, Inc.
  
 This software is provided under written license and may be
 used, copied, transmitted, or stored only in accord with that
 written license.
  
 The following legend is applicable only to US Government
 contracts under FAR:
  
                    RESTRICTED RIGHTS LEGEND
  
 Use, reproduction and disclosure by the US Government is
 subject to restrictions as set forth in subparagraphs (a)
 and (c) of the Commercial Computer Software - Restricted
 Rights clause in FAR 52.227-19.
  
 Gaussian, Inc.
 340 Quinnipiac St., Bldg. 40, Wallingford CT 06492
  
  
 ---------------------------------------------------------------
 Warning -- This program may not be used in any manner that
 competes with the business of Gaussian, Inc. or will provide
 assistance to any competitor of Gaussian, Inc.  The licensee
 of this program is prohibited from giving any competitor of
 Gaussian, Inc. access to this program.  By using this program,
 the user acknowledges that Gaussian, Inc. is engaged in the
 business of creating and licensing software in the field of
 computational chemistry and represents and warrants to the
 licensee that it is not a competitor of Gaussian, Inc. and that
 it will not use this program in any manner prohibited above.
 ---------------------------------------------------------------
  

 Cite this work as:
 Gaussian 16, Revision C.02,
 M. J. Frisch, G. W. Trucks, H. B. Schlegel, G. E. Scuseria, 
 M. A. Robb, J. R. Cheeseman, G. Scalmani, V. Barone, 
 G. A. Petersson, H. Nakatsuji, X. Li, M. Caricato, A. V. Marenich, 
 J. Bloino, B. G. Janesko, R. Gomperts, B. Mennucci, H. P. Hratchian, 
 J. V. Ortiz, A. F. Izmaylov, J. L. Sonnenberg, D. Williams-Young, 
 F. Ding, F. Lipparini, F. Egidi, J. Goings, B. Peng, A. Petrone, 
 T. Henderson, D. Ranasinghe, V. G. Zakrzewski, J. Gao, N. Rega, 
 G. Zheng, W. Liang, M. Hada, M. Ehara, K. Toyota, R. Fukuda, 
 J. Hasegawa, M. Ishida, T. Nakajima, Y. Honda, O. Kitao, H. Nakai, 
 T. Vreven, K. Throssell, J. A. Montgomery, Jr., J. E. Peralta, 
 F. Ogliaro, M. J. Bearpark, J. J. Heyd, E. N. Brothers, K. N. Kudin, 
 V. N. Staroverov, T. A. Keith, R. Kobayashi, J. Normand, 
 K. Raghavachari, A. P. Rendell, J. C. Burant, S. S. Iyengar, 
 J. Tomasi, M. Cossi, J. M. Millam, M. Klene, C. Adamo, R. Cammi, 
 J. W. Ochterski, R. L. Martin, K. Morokuma, O. Farkas, 
 J. B. Foresman, and D. J. Fox, Gaussian, Inc., Wallingford CT, 2019.
 
 ******************************************
 Gaussian 16:  ES64L-G16RevC.02  7-Dec-2021
                 9-Aug-2025 
 ******************************************
 SetLPE:    new flags="-opt 'Tsnet.Node.lindarsharg: ssh'  -nodelist 'n2.head.cm.mguif.local' -env GAUSS_MDEF=2147483648 -env GAUSS_EXEDIR="/hpc/softwares/Gaussian/g16/bsd:/hpc/softwares/Gaussian/g16""
 Will use up to    1 processors via Linda.
 -----------------------------------------
 # opt b3lyp/6-31+g(d,p) geom=connectivity
 -----------------------------------------
 1/18=20,19=15,26=3,38=1,57=2/1,3;
 2/9=110,12=2,17=6,18=5,40=1/2;
 3/5=1,6=6,7=111,11=2,25=1,30=1,71=1,74=-5/1,2,3;
 4//1;
 5/5=2,38=5/2;
 6/7=2,8=2,9=2,10=2,28=1/1;
 7//1,2,3,16;
 1/18=20,19=15,26=3/3(2);
 2/9=110/2;
 99//99;
 2/9=110/2;
 3/5=1,6=6,7=111,11=2,25=1,30=1,71=1,74=-5/1,2,3;
 4/5=5,16=3,69=1/1;
 5/5=2,38=5/2;
 7//1,2,3,16;
 1/18=20,19=15,26=3/3(-5);
 2/9=110/2;
 6/7=2,8=2,9=2,10=2,19=2,28=1/1;
 99/9=1/99;
 -------------------
 Title Card Required
 -------------------
 Symbolic Z-matrix:
 Charge =  0 Multiplicity = 1
 C                     5.6972    3.2454   -1.5033 
 C                     4.2484    3.6986   -1.6263 
 C                     3.3221    2.5301   -1.3163 
 C                     1.8733    2.9834   -1.4393 
 C                     0.9629    1.8348   -1.1346 
 C                     1.4976    0.5902   -0.8021 
 C                     0.6492   -0.48     -0.5183 
 C                    -0.7338   -0.3055   -0.5669 
 C                    -1.547    -1.3313   -0.2948 
 C                    -2.6931   -1.4383   -0.9868 
 C                    -3.6861   -2.5464   -0.7707 
 C                    -4.827    -2.653    -1.4597 
 C                    -5.6491   -3.6479   -1.2185 
 N                    -6.3741   -4.5254   -1.0058 
 C                    -5.1252   -1.7626   -2.3775 
 N                    -5.3883   -0.9774   -3.1869 
 C                    -3.2724   -3.5233    0.2949 
 C                    -2.1262   -3.4163    0.9869 
 C                    -1.1332   -2.3081    0.7708 
 C                     0.0077   -2.2016    1.4597 
 C                     0.8298   -1.2067    1.2185 
 N                     1.5548   -0.3291    1.0058 
 C                     0.306    -3.092     2.3775 
 N                     0.5691   -3.8772    3.1869 
 C                    -1.2685    0.9391   -0.8993 
 C                    -0.4201    2.0093   -1.1832 
 H                     6.3741    4.0993   -1.7299 
 H                     5.8867    2.8874   -0.4666 
 H                     5.8895    2.4186   -2.2232 
 H                     4.059     4.0566   -2.663 
 H                     4.0561    4.5254   -0.9064 
 H                     3.5116    2.1721   -0.2796 
 H                     3.5144    1.7034   -2.0362 
 H                     1.6839    3.3414   -2.476 
 H                     1.681     3.8101   -0.7194 
 H                     2.5882    0.4527   -0.7636 
 H                     1.0708   -1.4616   -0.2561 
 H                    -2.9163   -0.6776   -1.7494 
 H                    -3.9414   -4.3672    0.5188 
 H                    -1.903    -4.177     1.7495 
 H                    -2.3592    1.0767   -0.9375 
 H                    -0.8418    2.9909   -1.4454 
 

 GradGradGradGradGradGradGradGradGradGradGradGradGradGradGradGradGradGrad
 Berny optimization.
 Initialization pass.
                           ----------------------------
                           !    Initial Parameters    !
                           ! (Angstroms and Degrees)  !
 --------------------------                            --------------------------
 ! Name  Definition              Value          Derivative Info.                !
 --------------------------------------------------------------------------------
 ! R1    R(1,2)                  1.523          estimate D2E/DX2                !
 ! R2    R(1,27)                 1.113          estimate D2E/DX2                !
 ! R3    R(1,28)                 1.113          estimate D2E/DX2                !
 ! R4    R(1,29)                 1.113          estimate D2E/DX2                !
 ! R5    R(2,3)                  1.523          estimate D2E/DX2                !
 ! R6    R(2,30)                 1.113          estimate D2E/DX2                !
 ! R7    R(2,31)                 1.113          estimate D2E/DX2                !
 ! R8    R(3,4)                  1.523          estimate D2E/DX2                !
 ! R9    R(3,32)                 1.113          estimate D2E/DX2                !
 ! R10   R(3,33)                 1.113          estimate D2E/DX2                !
 ! R11   R(4,5)                  1.497          estimate D2E/DX2                !
 ! R12   R(4,34)                 1.113          estimate D2E/DX2                !
 ! R13   R(4,35)                 1.113          estimate D2E/DX2                !
 ! R14   R(5,6)                  1.3948         estimate D2E/DX2                !
 ! R15   R(5,26)                 1.3948         estimate D2E/DX2                !
 ! R16   R(6,7)                  1.3949         estimate D2E/DX2                !
 ! R17   R(6,36)                 1.0999         estimate D2E/DX2                !
 ! R18   R(7,8)                  1.3948         estimate D2E/DX2                !
 ! R19   R(7,37)                 1.1            estimate D2E/DX2                !
 ! R20   R(8,9)                  1.337          estimate D2E/DX2                !
 ! R21   R(8,25)                 1.3948         estimate D2E/DX2                !
 ! R22   R(9,10)                 1.3431         estimate D2E/DX2                !
 ! R23   R(9,19)                 1.5036         estimate D2E/DX2                !
 ! R24   R(10,11)                1.5035         estimate D2E/DX2                !
 ! R25   R(10,38)                1.1            estimate D2E/DX2                !
 ! R26   R(11,12)                1.3371         estimate D2E/DX2                !
 ! R27   R(11,17)                1.5037         estimate D2E/DX2                !
 ! R28   R(12,13)                1.313          estimate D2E/DX2                !
 ! R29   R(12,15)                1.313          estimate D2E/DX2                !
 ! R30   R(13,14)                1.158          estimate D2E/DX2                !
 ! R31   R(15,16)                1.158          estimate D2E/DX2                !
 ! R32   R(17,18)                1.3432         estimate D2E/DX2                !
 ! R33   R(17,39)                1.0999         estimate D2E/DX2                !
 ! R34   R(18,19)                1.5036         estimate D2E/DX2                !
 ! R35   R(18,40)                1.1            estimate D2E/DX2                !
 ! R36   R(19,20)                1.337          estimate D2E/DX2                !
 ! R37   R(20,21)                1.313          estimate D2E/DX2                !
 ! R38   R(20,23)                1.3131         estimate D2E/DX2                !
 ! R39   R(21,22)                1.158          estimate D2E/DX2                !
 ! R40   R(23,24)                1.158          estimate D2E/DX2                !
 ! R41   R(25,26)                1.3949         estimate D2E/DX2                !
 ! R42   R(25,41)                1.1            estimate D2E/DX2                !
 ! R43   R(26,42)                1.1001         estimate D2E/DX2                !
 ! A1    A(2,1,27)             109.5005         estimate D2E/DX2                !
 ! A2    A(2,1,28)             109.4447         estimate D2E/DX2                !
 ! A3    A(2,1,29)             109.4609         estimate D2E/DX2                !
 ! A4    A(27,1,28)            109.4429         estimate D2E/DX2                !
 ! A5    A(27,1,29)            109.4608         estimate D2E/DX2                !
 ! A6    A(28,1,29)            109.5175         estimate D2E/DX2                !
 ! A7    A(1,2,3)              109.5014         estimate D2E/DX2                !
 ! A8    A(1,2,30)             109.4398         estimate D2E/DX2                !
 ! A9    A(1,2,31)             109.4609         estimate D2E/DX2                !
 ! A10   A(3,2,30)             109.4434         estimate D2E/DX2                !
 ! A11   A(3,2,31)             109.4631         estimate D2E/DX2                !
 ! A12   A(30,2,31)            109.5187         estimate D2E/DX2                !
 ! A13   A(2,3,4)              109.4979         estimate D2E/DX2                !
 ! A14   A(2,3,32)             109.4397         estimate D2E/DX2                !
 ! A15   A(2,3,33)             109.4602         estimate D2E/DX2                !
 ! A16   A(4,3,32)             109.4456         estimate D2E/DX2                !
 ! A17   A(4,3,33)             109.4632         estimate D2E/DX2                !
 ! A18   A(32,3,33)            109.5206         estimate D2E/DX2                !
 ! A19   A(3,4,5)              109.4943         estimate D2E/DX2                !
 ! A20   A(3,4,34)             109.4407         estimate D2E/DX2                !
 ! A21   A(3,4,35)             109.4632         estimate D2E/DX2                !
 ! A22   A(5,4,34)             109.4445         estimate D2E/DX2                !
 ! A23   A(5,4,35)             109.4627         estimate D2E/DX2                !
 ! A24   A(34,4,35)            109.5218         estimate D2E/DX2                !
 ! A25   A(4,5,6)              120.0022         estimate D2E/DX2                !
 ! A26   A(4,5,26)             119.9949         estimate D2E/DX2                !
 ! A27   A(6,5,26)             120.0029         estimate D2E/DX2                !
 ! A28   A(5,6,7)              119.9969         estimate D2E/DX2                !
 ! A29   A(5,6,36)             119.9999         estimate D2E/DX2                !
 ! A30   A(7,6,36)             120.0032         estimate D2E/DX2                !
 ! A31   A(6,7,8)              120.0002         estimate D2E/DX2                !
 ! A32   A(6,7,37)             120.0021         estimate D2E/DX2                !
 ! A33   A(8,7,37)             119.9977         estimate D2E/DX2                !
 ! A34   A(7,8,9)              119.9996         estimate D2E/DX2                !
 ! A35   A(7,8,25)             120.0033         estimate D2E/DX2                !
 ! A36   A(9,8,25)             119.9971         estimate D2E/DX2                !
 ! A37   A(8,9,10)             118.378          estimate D2E/DX2                !
 ! A38   A(8,9,19)             118.3765         estimate D2E/DX2                !
 ! A39   A(10,9,19)            123.2455         estimate D2E/DX2                !
 ! A40   A(9,10,11)            123.2464         estimate D2E/DX2                !
 ! A41   A(9,10,38)            118.3754         estimate D2E/DX2                !
 ! A42   A(11,10,38)           118.3782         estimate D2E/DX2                !
 ! A43   A(10,11,12)           123.2464         estimate D2E/DX2                !
 ! A44   A(10,11,17)           113.5132         estimate D2E/DX2                !
 ! A45   A(12,11,17)           123.2403         estimate D2E/DX2                !
 ! A46   A(11,12,13)           120.0019         estimate D2E/DX2                !
 ! A47   A(11,12,15)           119.9944         estimate D2E/DX2                !
 ! A48   A(13,12,15)           120.0037         estimate D2E/DX2                !
 ! A49   A(11,17,18)           123.2393         estimate D2E/DX2                !
 ! A50   A(11,17,39)           118.3835         estimate D2E/DX2                !
 ! A51   A(18,17,39)           118.3772         estimate D2E/DX2                !
 ! A52   A(17,18,19)           123.2459         estimate D2E/DX2                !
 ! A53   A(17,18,40)           118.3744         estimate D2E/DX2                !
 ! A54   A(19,18,40)           118.3797         estimate D2E/DX2                !
 ! A55   A(9,19,18)            113.5095         estimate D2E/DX2                !
 ! A56   A(9,19,20)            123.2469         estimate D2E/DX2                !
 ! A57   A(18,19,20)           123.2436         estimate D2E/DX2                !
 ! A58   A(19,20,21)           120.0006         estimate D2E/DX2                !
 ! A59   A(19,20,23)           119.9995         estimate D2E/DX2                !
 ! A60   A(21,20,23)           120.0            estimate D2E/DX2                !
 ! A61   A(8,25,26)            119.9972         estimate D2E/DX2                !
 ! A62   A(8,25,41)            120.0006         estimate D2E/DX2                !
 ! A63   A(26,25,41)           120.0022         estimate D2E/DX2                !
 ! A64   A(5,26,25)            119.9996         estimate D2E/DX2                !
 ! A65   A(5,26,42)            120.0025         estimate D2E/DX2                !
 ! A66   A(25,26,42)           119.9979         estimate D2E/DX2                !
 ! A67   L(12,13,14,24,-1)     179.9985         estimate D2E/DX2                !
 ! A68   L(12,15,16,1,-1)      180.0061         estimate D2E/DX2                !
 ! A69   L(20,21,22,8,-1)      179.9968         estimate D2E/DX2                !
 ! A70   L(20,23,24,14,-1)     180.0022         estimate D2E/DX2                !
 ! A71   L(12,13,14,24,-2)     180.0037         estimate D2E/DX2                !
 ! A72   L(12,15,16,1,-2)      180.0009         estimate D2E/DX2                !
 ! A73   L(20,21,22,8,-2)      179.9939         estimate D2E/DX2                !
 ! A74   L(20,23,24,14,-2)     180.0003         estimate D2E/DX2                !
 ! D1    D(27,1,2,3)           179.9967         estimate D2E/DX2                !
 ! D2    D(27,1,2,30)           60.0315         estimate D2E/DX2                !
 ! D3    D(27,1,2,31)          -60.0011         estimate D2E/DX2                !
 ! D4    D(28,1,2,3)           -60.0363         estimate D2E/DX2                !
 ! D5    D(28,1,2,30)          179.9985         estimate D2E/DX2                !
 ! D6    D(28,1,2,31)           59.9659         estimate D2E/DX2                !
 ! D7    D(29,1,2,3)            59.9978         estimate D2E/DX2                !
 ! D8    D(29,1,2,30)          -59.9673         estimate D2E/DX2                !
 ! D9    D(29,1,2,31)          180.0            estimate D2E/DX2                !
 ! D10   D(1,2,3,4)            179.999          estimate D2E/DX2                !
 ! D11   D(1,2,3,32)            60.0332         estimate D2E/DX2                !
 ! D12   D(1,2,3,33)           -60.0012         estimate D2E/DX2                !
 ! D13   D(30,2,3,4)           -60.038          estimate D2E/DX2                !
 ! D14   D(30,2,3,32)          179.9962         estimate D2E/DX2                !
 ! D15   D(30,2,3,33)           59.9618         estimate D2E/DX2                !
 ! D16   D(31,2,3,4)            59.9981         estimate D2E/DX2                !
 ! D17   D(31,2,3,32)          -59.9676         estimate D2E/DX2                !
 ! D18   D(31,2,3,33)          179.9979         estimate D2E/DX2                !
 ! D19   D(2,3,4,5)            179.9992         estimate D2E/DX2                !
 ! D20   D(2,3,4,34)            60.0364         estimate D2E/DX2                !
 ! D21   D(2,3,4,35)           -60.002          estimate D2E/DX2                !
 ! D22   D(32,3,4,5)           -60.0387         estimate D2E/DX2                !
 ! D23   D(32,3,4,34)          179.9985         estimate D2E/DX2                !
 ! D24   D(32,3,4,35)           59.9601         estimate D2E/DX2                !
 ! D25   D(33,3,4,5)            60.0012         estimate D2E/DX2                !
 ! D26   D(33,3,4,34)          -59.9616         estimate D2E/DX2                !
 ! D27   D(33,3,4,35)          180.0            estimate D2E/DX2                !
 ! D28   D(3,4,5,6)              0.0009         estimate D2E/DX2                !
 ! D29   D(3,4,5,26)           179.9998         estimate D2E/DX2                !
 ! D30   D(34,4,5,6)           119.9614         estimate D2E/DX2                !
 ! D31   D(34,4,5,26)          -60.0398         estimate D2E/DX2                !
 ! D32   D(35,4,5,6)          -119.9982         estimate D2E/DX2                !
 ! D33   D(35,4,5,26)           60.0007         estimate D2E/DX2                !
 ! D34   D(4,5,6,7)           -179.9953         estimate D2E/DX2                !
 ! D35   D(4,5,6,36)             0.0107         estimate D2E/DX2                !
 ! D36   D(26,5,6,7)             0.0058         estimate D2E/DX2                !
 ! D37   D(26,5,6,36)         -179.9882         estimate D2E/DX2                !
 ! D38   D(4,5,26,25)          179.9999         estimate D2E/DX2                !
 ! D39   D(4,5,26,42)           -0.0011         estimate D2E/DX2                !
 ! D40   D(6,5,26,25)           -0.0012         estimate D2E/DX2                !
 ! D41   D(6,5,26,42)          179.9978         estimate D2E/DX2                !
 ! D42   D(5,6,7,8)             -0.0058         estimate D2E/DX2                !
 ! D43   D(5,6,7,37)           179.9978         estimate D2E/DX2                !
 ! D44   D(36,6,7,8)           179.9882         estimate D2E/DX2                !
 ! D45   D(36,6,7,37)           -0.0083         estimate D2E/DX2                !
 ! D46   D(6,7,8,9)           -179.9965         estimate D2E/DX2                !
 ! D47   D(6,7,8,25)             0.0012         estimate D2E/DX2                !
 ! D48   D(37,7,8,9)             0.0            estimate D2E/DX2                !
 ! D49   D(37,7,8,25)          179.9976         estimate D2E/DX2                !
 ! D50   D(7,8,9,10)          -144.0024         estimate D2E/DX2                !
 ! D51   D(7,8,9,19)            35.9973         estimate D2E/DX2                !
 ! D52   D(25,8,9,10)           35.9999         estimate D2E/DX2                !
 ! D53   D(25,8,9,19)         -144.0004         estimate D2E/DX2                !
 ! D54   D(7,8,25,26)            0.0034         estimate D2E/DX2                !
 ! D55   D(7,8,25,41)         -179.9928         estimate D2E/DX2                !
 ! D56   D(9,8,25,26)         -179.999          estimate D2E/DX2                !
 ! D57   D(9,8,25,41)            0.0048         estimate D2E/DX2                !
 ! D58   D(8,9,10,11)          179.9978         estimate D2E/DX2                !
 ! D59   D(8,9,10,38)           -0.001          estimate D2E/DX2                !
 ! D60   D(19,9,10,11)          -0.0019         estimate D2E/DX2                !
 ! D61   D(19,9,10,38)         179.9993         estimate D2E/DX2                !
 ! D62   D(8,9,19,18)         -179.9957         estimate D2E/DX2                !
 ! D63   D(8,9,19,20)            0.0013         estimate D2E/DX2                !
 ! D64   D(10,9,19,18)           0.0041         estimate D2E/DX2                !
 ! D65   D(10,9,19,20)        -179.999          estimate D2E/DX2                !
 ! D66   D(9,10,11,12)        -179.9926         estimate D2E/DX2                !
 ! D67   D(9,10,11,17)           0.0014         estimate D2E/DX2                !
 ! D68   D(38,10,11,12)          0.0062         estimate D2E/DX2                !
 ! D69   D(38,10,11,17)       -179.9998         estimate D2E/DX2                !
 ! D70   D(10,11,12,13)       -179.9995         estimate D2E/DX2                !
 ! D71   D(10,11,12,15)         -0.003          estimate D2E/DX2                !
 ! D72   D(17,11,12,13)          0.0071         estimate D2E/DX2                !
 ! D73   D(17,11,12,15)       -179.9964         estimate D2E/DX2                !
 ! D74   D(10,11,17,18)         -0.0038         estimate D2E/DX2                !
 ! D75   D(10,11,17,39)        179.9959         estimate D2E/DX2                !
 ! D76   D(12,11,17,18)        179.9903         estimate D2E/DX2                !
 ! D77   D(12,11,17,39)         -0.0101         estimate D2E/DX2                !
 ! D78   D(11,17,18,19)          0.0067         estimate D2E/DX2                !
 ! D79   D(11,17,18,40)       -179.9994         estimate D2E/DX2                !
 ! D80   D(39,17,18,19)       -179.993          estimate D2E/DX2                !
 ! D81   D(39,17,18,40)          0.0009         estimate D2E/DX2                !
 ! D82   D(17,18,19,9)          -0.0064         estimate D2E/DX2                !
 ! D83   D(17,18,19,20)        179.9966         estimate D2E/DX2                !
 ! D84   D(40,18,19,9)         179.9997         estimate D2E/DX2                !
 ! D85   D(40,18,19,20)          0.0027         estimate D2E/DX2                !
 ! D86   D(9,19,20,21)          -0.0001         estimate D2E/DX2                !
 ! D87   D(9,19,20,23)         179.9996         estimate D2E/DX2                !
 ! D88   D(18,19,20,21)        179.9965         estimate D2E/DX2                !
 ! D89   D(18,19,20,23)         -0.0038         estimate D2E/DX2                !
 ! D90   D(8,25,26,5)           -0.0034         estimate D2E/DX2                !
 ! D91   D(8,25,26,42)         179.9977         estimate D2E/DX2                !
 ! D92   D(41,25,26,5)         179.9928         estimate D2E/DX2                !
 ! D93   D(41,25,26,42)         -0.0061         estimate D2E/DX2                !
 --------------------------------------------------------------------------------
 Trust Radius=3.00D-01 FncErr=1.00D-07 GrdErr=1.00D-06 EigMax=2.50D+02 EigMin=1.00D-04
 Number of steps in this run=    220 maximum allowed number of steps=    252.
 GradGradGradGradGradGradGradGradGradGradGradGradGradGradGradGradGradGrad

                          Input orientation:                          
 ---------------------------------------------------------------------
 Center     Atomic      Atomic             Coordinates (Angstroms)
 Number     Number       Type             X           Y           Z
 ---------------------------------------------------------------------
      1          6           0        5.697200    3.245400   -1.503300
      2          6           0        4.248400    3.698600   -1.626300
      3          6           0        3.322100    2.530100   -1.316300
      4          6           0        1.873300    2.983400   -1.439300
      5          6           0        0.962900    1.834800   -1.134600
      6          6           0        1.497600    0.590200   -0.802100
      7          6           0        0.649200   -0.480000   -0.518300
      8          6           0       -0.733800   -0.305500   -0.566900
      9          6           0       -1.547000   -1.331300   -0.294800
     10          6           0       -2.693100   -1.438300   -0.986800
     11          6           0       -3.686100   -2.546400   -0.770700
     12          6           0       -4.827000   -2.653000   -1.459700
     13          6           0       -5.649100   -3.647900   -1.218500
     14          7           0       -6.374100   -4.525400   -1.005800
     15          6           0       -5.125200   -1.762600   -2.377500
     16          7           0       -5.388300   -0.977400   -3.186900
     17          6           0       -3.272400   -3.523300    0.294900
     18          6           0       -2.126200   -3.416300    0.986900
     19          6           0       -1.133200   -2.308100    0.770800
     20          6           0        0.007700   -2.201600    1.459700
     21          6           0        0.829800   -1.206700    1.218500
     22          7           0        1.554800   -0.329100    1.005800
     23          6           0        0.306000   -3.092000    2.377500
     24          7           0        0.569100   -3.877200    3.186900
     25          6           0       -1.268500    0.939100   -0.899300
     26          6           0       -0.420100    2.009300   -1.183200
     27          1           0        6.374100    4.099300   -1.729900
     28          1           0        5.886700    2.887400   -0.466600
     29          1           0        5.889500    2.418600   -2.223200
     30          1           0        4.059000    4.056600   -2.663000
     31          1           0        4.056100    4.525400   -0.906400
     32          1           0        3.511600    2.172100   -0.279600
     33          1           0        3.514400    1.703400   -2.036200
     34          1           0        1.683900    3.341400   -2.476000
     35          1           0        1.681000    3.810100   -0.719400
     36          1           0        2.588200    0.452700   -0.763600
     37          1           0        1.070800   -1.461600   -0.256100
     38          1           0       -2.916300   -0.677600   -1.749400
     39          1           0       -3.941400   -4.367200    0.518800
     40          1           0       -1.903000   -4.177000    1.749500
     41          1           0       -2.359200    1.076700   -0.937500
     42          1           0       -0.841800    2.990900   -1.445400
 ---------------------------------------------------------------------
                    Distance matrix (angstroms):
                    1          2          3          4          5
     1  C    0.000000
     2  C    1.523004   0.000000
     3  C    2.487513   1.522998   0.000000
     4  C    3.833399   2.487485   1.523034   0.000000
     5  C    4.953719   3.809203   2.466228   1.496981   0.000000
     6  C    5.017809   4.231827   2.712271   2.504911   1.394808
     7  C    6.350680   5.625176   4.103888   3.787057   2.415892
     8  C    7.405640   6.479002   5.005252   4.286597   2.789616
     9  C    8.653617   7.788418   6.297778   5.623608   4.126627
    10  C    9.622939   8.659164   7.213834   6.372456   4.909314
    11  C   11.051152  10.133527   8.670836   7.869729   6.398479
    12  C   12.064485  11.078514   9.658826   8.755766   7.332734
    13  C   13.279203  12.332796  10.893102  10.030423   8.589853
    14  N   14.364857  13.448297  11.995532  11.161971   9.710834
    15  C   11.956949  10.874437   9.534689   8.507863   7.179906
    16  N   11.981438  10.824345   9.574590   8.454163   7.242800
    17  C   11.379919  10.602324   9.095441   8.474835   6.977856
    18  C   10.572839   9.903845   8.387394   7.927081   6.451151
    19  C    9.092154   8.413570   6.900280   6.474840   5.018745
    20  C    8.415437   7.894257   6.409400   6.226467   4.892374
    21  C    7.135893   6.621305   5.157562   5.070476   3.847794
    22  N    6.019311   5.514145   4.085404   4.129481   3.100665
    23  C    9.180865   8.813920   7.372179   7.344037   6.086027
    24  N    9.951222   9.700355   8.301284   8.376783   7.173380
    25  C    7.362392   6.211244   4.876349   3.787040   2.415945
    26  C    6.249141   4.984472   3.780610   2.504824   1.394812
    27  H    1.112963   2.165616   3.456611   4.646169   5.896052
    28  H    1.113023   2.164943   2.725220   4.130707   5.079173
    29  H    1.113029   2.165156   2.725150   4.130782   5.079100
    30  H    2.164867   1.113006   2.164908   2.725158   4.105878
    31  H    2.165156   1.113029   2.165178   2.725135   4.106007
    32  H    2.725117   2.164874   1.113023   2.164980   2.709367
    33  H    2.725135   2.165086   1.112955   2.165156   2.709299
    34  H    4.130610   2.725113   2.164904   1.113006   2.142204
    35  H    4.130768   2.725150   2.165156   1.112955   2.142398
    36  H    4.244079   3.746516   2.271492   2.715160   2.165512
    37  H    6.716765   6.213071   4.703833   4.669260   3.413159
    38  H    9.467992   8.396381   7.028126   6.036502   4.662438
    39  H   12.447617  11.693221  10.183259   9.574770   8.077790
    40  H   11.110165  10.548025   9.038030   8.700587   7.257627
    41  H    8.362354   7.142071   5.876481   4.669193   3.413197
    42  H    6.544207   5.142344   4.191308   2.715117   2.165665
                    6          7          8          9         10
     6  C    0.000000
     7  C    1.394867   0.000000
     8  C    2.415935   1.394812   0.000000
     9  C    3.635809   2.366001   1.337011   0.000000
    10  C    4.659495   3.508390   2.301827   1.343078   0.000000
    11  C    6.058877   4.809214   3.712040   2.505733   1.503540
    12  C    7.138021   5.966316   4.802305   3.723209   2.500532
    13  C    8.319267   7.084804   5.979665   4.800738   3.697831
    14  N    9.390129   8.119708   7.057845   5.831697   4.804197
    15  C    7.202710   6.200434   4.968481   4.162592   2.820342
    16  N    7.453875   6.619686   5.383328   4.821314   3.509554
    17  C    6.393527   5.030101   4.188249   2.851248   2.515068
    18  C    5.690737   4.311650   3.745684   2.515045   2.851202
    19  C    4.218444   2.860188   2.441182   1.503620   2.505793
    20  C    3.889690   2.699613   2.872651   2.500557   3.723212
    21  C    2.785252   1.891344   2.538633   2.820422   4.162669
    22  N    2.029011   1.779259   2.776983   3.509577   4.821352
    23  C    5.008829   3.914842   4.185123   3.697954   4.800816
    24  N    6.060684   5.027513   5.342809   4.804344   5.831805
    25  C    2.789711   2.415901   1.394784   2.365946   2.772936
    26  C    2.415917   2.789643   2.415892   3.635762   4.134132
    27  H    6.079050   7.430508   8.442575   9.710549  10.650414
    28  H    4.965268   6.226834   7.350897   8.549084   9.622643
    29  H    4.965013   6.226501   7.350657   8.548802   9.490278
    30  H    4.694640   6.066895   6.811203   8.128042   8.865350
    31  H    4.694955   6.067258   6.811461   8.128328   9.006880
    32  H    2.613735   3.909469   4.923867   6.153331   7.213420
    33  H    2.613369   3.909044   4.923589   6.153019   7.035949
    34  H    3.225795   4.416593   4.773868   6.085267   6.649916
    35  H    3.226179   4.417014   4.774168   6.085578   6.837394
    36  H    1.099908   2.165600   3.413099   4.527947   5.614074
    37  H    2.165677   1.100015   2.165582   2.621327   3.834242
    38  H    4.689052   3.777227   2.509994   2.101944   1.100019
    39  H    7.476852   6.104057   5.288180   3.951175   3.521866
    40  H    6.387561   5.032340   4.660606   3.521918   3.951212
    41  H    3.889720   3.413138   2.165582   2.621297   2.537547
    42  H    3.413208   3.889697   3.413163   4.527980   4.822389
                   11         12         13         14         15
    11  C    0.000000
    12  C    1.337063   0.000000
    13  C    2.295037   1.312955   0.000000
    14  N    3.346200   2.470916   1.157961   0.000000
    15  C    2.295029   1.313047   2.274227   3.327818   0.000000
    16  N    3.346232   2.471015   3.327790   4.279872   1.157968
    17  C    1.503657   2.500565   2.820391   3.509497   3.697926
    18  C    2.505828   3.723278   4.162722   4.821370   4.800824
    19  C    2.991706   4.328769   5.113290   5.961523   5.113260
    20  C    4.328710   5.665773   6.423700   7.225379   6.423666
    21  C    5.113225   6.423700   7.339930   8.237564   6.978701
    22  N    5.961493   7.225412   8.237604   9.193635   7.623912
    23  C    5.113287   6.423746   6.978786   7.623981   7.339977
    24  N    5.961573   7.225472   7.624050   8.136764   8.237666
    25  C    4.243824   5.087254   6.350757   7.479255   4.935422
    26  C    5.620615   6.421391   7.703739   8.842166   6.147483
    27  H   12.095165  13.081713  14.312162  15.408646  12.923434
    28  H   11.011683  12.102299  13.279691  14.337627  12.105205
    29  H   10.883616  11.880548  13.074828  14.145568  11.782608
    30  H   10.352149  11.199449  12.477704  13.610533  10.876310
    31  H   10.486679  11.434379  12.692169  13.809994  11.224943
    32  H    8.620459   9.706002  10.893684  11.962898   9.719947
    33  H    8.456328   9.428124  10.643062  11.732097   9.315167
    34  H    8.149303   8.908284  10.208061  11.356910   8.510250
    35  H    8.319464   9.201835  10.469061  11.595138   8.951460
    36  H    6.954243   8.069394   9.212761  10.254899   8.185888
    37  H    4.906088   6.136133   7.131843   8.085509   6.556017
    38  H    2.245631   2.763495   4.070962   5.226365   2.539877
    39  H    2.245729   2.763554   2.540048   2.875319   4.071103
    40  H    3.491377   4.601230   4.808559   5.263440   5.765764
    41  H    3.862038   4.502598   5.764048   6.892577   4.217343
    42  H    6.261546   6.909098   8.199712   9.343145   6.466227
                   16         17         18         19         20
    16  N    0.000000
    17  C    4.804328   0.000000
    18  C    5.831821   1.343163   0.000000
    19  C    5.961546   2.505867   1.503614   0.000000
    20  C    7.225398   3.723265   2.500513   1.337003   0.000000
    21  C    7.623968   4.800804   3.697825   2.294970   1.312955
    22  N    8.136686   5.831822   4.804261   3.346193   2.470992
    23  C    8.237666   4.162714   2.820379   2.295056   1.313070
    24  N    9.193736   4.821414   3.509568   3.346258   2.471037
    25  C    5.087125   5.035349   4.823164   3.654018   4.130080
    26  C    6.133368   6.397660   6.087466   4.792345   4.989951
    27  H   12.893789  12.460289  11.667062  10.181740   9.508204
    28  H   12.225479  11.205627  10.298343   8.820622   8.010692
    29  H   11.817373  11.206579  10.421240   8.979089   8.337000
    30  H   10.717607  10.952328  10.364492   8.902771   8.519082
    31  H   11.165938  10.951329  10.240899   8.742915   8.200031
    32  H    9.878257   8.876389   8.038596   6.538325   5.867856
    33  H    9.368504   8.877673   8.195537   6.750672   6.306131
    34  H    8.317056   8.908810   8.495590   7.098916   7.001730
    35  H    8.887278   8.907510   8.344285   6.897303   6.609761
    36  H    8.458258   7.160700   6.344996   4.881108   4.318258
    37  H    7.109431   4.839173   3.948001   2.574627   2.149826
    38  H    2.875251   3.521928   3.951212   3.491330   4.601160
    39  H    5.226517   1.099936   2.101970   3.491330   4.601142
    40  H    6.837602   2.102009   1.100019   2.245714   2.763506
    41  H    4.295879   4.848994   4.893327   3.984750   4.700642
    42  H    6.280994   7.167375   6.972659   5.751161   6.010267
                   21         22         23         24         25
    21  C    0.000000
    22  N    1.158036   0.000000
    23  C    2.274204   3.327864   0.000000
    24  N    3.327782   4.279932   1.157968   0.000000
    25  C    3.673200   3.634386   5.428281   6.578035   0.000000
    26  C    4.203935   3.762986   6.263311   7.397782   1.394887
    27  H    8.221068   7.093690  10.266809  11.022590   8.311805
    28  H    6.721120   5.592780   8.659465   9.347981   7.428323
    29  H    7.112571   6.063491   9.094428   9.859662   7.428230
    30  H    7.293566   6.242233   9.518095  10.456860   6.419634
    31  H    6.912393   5.786120   9.103408   9.975869   6.419732
    32  H    4.566470   3.425977   6.711691   7.567626   4.975306
    33  H    5.125313   4.150283   7.264326   8.191377   4.975221
    34  H    5.921489   5.060847   8.175800   9.242262   4.119914
    35  H    5.445023   4.486114   7.688979   8.694256   4.120019
    36  H    3.126388   2.193149   5.257361   6.199294   3.889619
    37  H    1.515751   1.763293   3.190450   4.235691   3.413120
    38  H    4.808497   5.263394   5.765748   6.837581   2.460007
    39  H    5.765647   6.837517   4.808462   5.263408   6.108373
    40  H    4.070975   5.226452   2.539939   2.875287   5.795965
    41  H    4.475709   4.590434   5.955718   7.080024   1.100009
    42  H    5.245041   4.772261   7.275554   8.403549   2.165683
                   26         27         28         29         30
    26  C    0.000000
    27  H    7.129385   0.000000
    28  H    6.407831   1.817192   0.000000
    29  H    6.407822   1.817398   1.818083   0.000000
    30  H    5.142332   2.496435   3.087343   2.495435   0.000000
    31  H    5.142348   2.496565   2.495509   3.087705   1.818083
    32  H    4.037482   3.743177   2.487513   3.081031   3.087326
    33  H    4.037508   3.743266   3.081121   2.487485   2.495399
    34  H    2.805822   4.809267   4.680527   4.313066   2.487485
    35  H    2.805818   4.809359   4.313142   4.680722   3.081108
    36  H    3.413054   5.344574   4.110484   4.110204   4.331174
    37  H    3.889659   7.824365   6.492380   6.491941   6.721089
    38  H    3.710934  10.446563   9.583716   9.346286   8.479512
    39  H    7.480382  13.533212  12.255276  12.256110  12.045358
    40  H    7.005000  12.211214  10.746919  10.954786  11.081867
    41  H    2.165692   9.275480   8.455486   8.455458   7.283574
    42  H    1.100054   7.306073   6.800108   6.800213   5.161018
                   31         32         33         34         35
    31  H    0.000000
    32  H    2.495472   0.000000
    33  H    3.087648   1.818057   0.000000
    34  H    3.081044   3.087381   2.495435   0.000000
    35  H    2.487513   2.495509   3.087637   1.818057   0.000000
    36  H    4.331513   2.010786   2.010375   3.477738   3.478089
    37  H    6.721538   4.377423   4.376890   5.326599   5.327083
    38  H    8.740493   7.183244   6.863331   6.151597   6.506575
    39  H   12.044482   9.947215   9.948325  10.001767  10.000638
    40  H   10.876417   8.587561   8.846403   9.340612   9.095839
    41  H    7.283582   6.008247   6.008250   4.882879   4.882854
    42  H    5.160875   4.580569   4.580740   2.750299   2.750034
                   36         37         38         39         40
    36  H    0.000000
    37  H    2.494916   0.000000
    38  H    5.705164   4.329153   0.000000
    39  H    8.216548   5.845095   4.450698   0.000000
    40  H    6.922476   4.498813   5.051225   2.388697   0.000000
    41  H    4.989628   4.321131   2.011743   5.853223   5.918568
    42  H    4.321135   4.989712   4.225383   8.222362   7.919111
                   41         42
    41  H    0.000000
    42  H    2.494920   0.000000
 Stoichiometry    C22H16N4
 Framework group  C1[X(C22H16N4)]
 Deg. of freedom   120
 Full point group                 C1      NOp   1
 Largest Abelian subgroup         C1      NOp   1
 Largest concise Abelian subgroup C1      NOp   1
                         Standard orientation:                         
 ---------------------------------------------------------------------
 Center     Atomic      Atomic             Coordinates (Angstroms)
 Number     Number       Type             X           Y           Z
 ---------------------------------------------------------------------
      1          6           0       -7.484412   -0.151962   -0.932896
      2          6           0       -6.581136   -1.115601   -0.174587
      3          6           0       -5.135412   -0.648971   -0.282584
      4          6           0       -4.232194   -1.612666    0.475784
      5          6           0       -2.811194   -1.153943    0.369561
      6          6           0       -2.503141    0.001602   -0.348289
      7          6           0       -1.179023    0.428879   -0.447276
      8          6           0       -0.163094   -0.299329    0.171676
      9          6           0        1.106091    0.110276    0.076846
     10          6           0        2.071486   -0.818855   -0.015822
     11          6           0        3.532412   -0.481342   -0.127245
     12          6           0        4.493472   -1.406310   -0.219641
     13          6           0        5.750636   -1.039650   -0.314244
     14          7           0        6.859379   -0.716245   -0.397745
     15          6           0        4.179910   -2.681361   -0.215692
     16          7           0        3.903500   -3.805849   -0.212183
     17          6           0        3.808513    0.996747   -0.124897
     18          6           0        2.843037    1.925920   -0.032268
     19          6           0        1.382053    1.588353    0.079214
     20          6           0        0.421048    2.513304    0.171481
     21          6           0       -0.836117    2.146645    0.266083
     22          7           0       -1.944917    1.823184    0.349644
     23          6           0        0.734529    3.788398    0.167492
     24          7           0        1.010938    4.912887    0.163983
     25          6           0       -0.471143   -1.454803    0.889596
     26          6           0       -1.795264   -1.882152    0.988513
     27          1           0       -8.540893   -0.493008   -0.854015
     28          1           0       -7.390259    0.866792   -0.494607
     29          1           0       -7.182294   -0.125422   -2.003808
     30          1           0       -6.675369   -2.134312   -0.612915
     31          1           0       -6.883253   -1.142142    0.896326
     32          1           0       -5.041259    0.369783    0.155704
     33          1           0       -4.833353   -0.622486   -1.353438
     34          1           0       -4.326428   -2.631377    0.037456
     35          1           0       -4.534253   -1.639151    1.546637
     36          1           0       -3.304334    0.575915   -0.836193
     37          1           0       -0.935977    1.340168   -1.013418
     38          1           0        1.778828   -1.879212   -0.009927
     39          1           0        4.852642    1.333754   -0.202875
     40          1           0        3.135695    2.986278   -0.038163
     41          1           0        0.330084   -2.029001    1.377809
     42          1           0       -2.038229   -2.793483    1.554695
 ---------------------------------------------------------------------
 Rotational constants (GHZ):           0.3691344           0.1065660           0.0845562
 Standard basis: 6-31+G(d,p) (6D, 7F)
 There are   574 symmetry adapted cartesian basis functions of A   symmetry.
 There are   574 symmetry adapted basis functions of A   symmetry.
   574 basis functions,   944 primitive gaussians,   574 cartesian basis functions
    88 alpha electrons       88 beta electrons
       nuclear repulsion energy      2017.9177272334 Hartrees.
 NAtoms=   42 NActive=   42 NUniq=   42 SFac= 1.00D+00 NAtFMM=   60 NAOKFM=F Big=F
 Integral buffers will be    131072 words long.
 Raffenetti 2 integral format.
 Two-electron integral symmetry is turned on.
 One-electron integrals computed using PRISM.
 NBasis=   574 RedAO= T EigKep=  1.16D-06  NBF=   574
 NBsUse=   565 1.00D-06 EigRej=  9.38D-07 NBFU=   565
 ExpMin= 4.38D-02 ExpMax= 4.17D+03 ExpMxC= 6.27D+02 IAcc=3 IRadAn=         5 AccDes= 0.00D+00
 Harris functional with IExCor=  402 and IRadAn=       5 diagonalized for initial guess.
 HarFok:  IExCor=  402 AccDes= 0.00D+00 IRadAn=         5 IDoV= 1 UseB2=F ITyADJ=14
 ICtDFT=  3500011 ScaDFX=  1.000000  1.000000  1.000000  1.000000
 FoFCou: FMM=F IPFlag=           0 FMFlag=      100000 FMFlg1=           0
         NFxFlg=           0 DoJE=T BraDBF=F KetDBF=T FulRan=T
         wScrn=  0.000000 ICntrl=       500 IOpCl=  0 I1Cent=   200000004 NGrid=           0
         NMat0=    1 NMatS0=      1 NMatT0=    0 NMatD0=    1 NMtDS0=    0 NMtDT0=    0
 Petite list used in FoFCou.
 Requested convergence on RMS density matrix=1.00D-08 within 128 cycles.
 Requested convergence on MAX density matrix=1.00D-06.
 Requested convergence on             energy=1.00D-06.
 No special actions if energy rises.
 Restarting incremental Fock formation.
 SCF Done:  E(RB3LYP) =  -1066.64276607     A.U. after   22 cycles
            NFock= 22  Conv=0.65D-08     -V/T= 2.0069

 **********************************************************************

            Population analysis using the SCF Density.

 **********************************************************************

 Orbital symmetries:
       Occupied  (A) (A) (A) (A) (A) (A) (A) (A) (A) (A) (A) (A)
                 (A) (A) (A) (A) (A) (A) (A) (A) (A) (A) (A) (A)
                 (A) (A) (A) (A) (A) (A) (A) (A) (A) (A) (A) (A)
                 (A) (A) (A) (A) (A) (A) (A) (A) (A) (A) (A) (A)
                 (A) (A) (A) (A) (A) (A) (A) (A) (A) (A) (A) (A)
                 (A) (A) (A) (A) (A) (A) (A) (A) (A) (A) (A) (A)
                 (A) (A) (A) (A) (A) (A) (A) (A) (A) (A) (A) (A)
                 (A) (A) (A) (A)
       Virtual   (A) (A) (A) (A) (A) (A) (A) (A) (A) (A) (A) (A)
                 (A) (A) (A) (A) (A) (A) (A) (A) (A) (A) (A) (A)
                 (A) (A) (A) (A) (A) (A) (A) (A) (A) (A) (A) (A)
                 (A) (A) (A) (A) (A) (A) (A) (A) (A) (A) (A) (A)
                 (A) (A) (A) (A) (A) (A) (A) (A) (A) (A) (A) (A)
                 (A) (A) (A) (A) (A) (A) (A) (A) (A) (A) (A) (A)
                 (A) (A) (A) (A) (A) (A) (A) (A) (A) (A) (A) (A)
                 (A) (A) (A) (A) (A) (A) (A) (A) (A) (A) (A) (A)
                 (A) (A) (A) (A) (A) (A) (A) (A) (A) (A) (A) (A)
                 (A) (A) (A) (A) (A) (A) (A) (A) (A) (A) (A) (A)
                 (A) (A) (A) (A) (A) (A) (A) (A) (A) (A) (A) (A)
                 (A) (A) (A) (A) (A) (A) (A) (A) (A) (A) (A) (A)
                 (A) (A) (A) (A) (A) (A) (A) (A) (A) (A) (A) (A)
                 (A) (A) (A) (A) (A) (A) (A) (A) (A) (A) (A) (A)
                 (A) (A) (A) (A) (A) (A) (A) (A) (A) (A) (A) (A)
                 (A) (A) (A) (A) (A) (A) (A) (A) (A) (A) (A) (A)
                 (A) (A) (A) (A) (A) (A) (A) (A) (A) (A) (A) (A)
                 (A) (A) (A) (A) (A) (A) (A) (A) (A) (A) (A) (A)
                 (A) (A) (A) (A) (A) (A) (A) (A) (A) (A) (A) (A)
                 (A) (A) (A) (A) (A) (A) (A) (A) (A) (A) (A) (A)
                 (A) (A) (A) (A) (A) (A) (A) (A) (A) (A) (A) (A)
                 (A) (A) (A) (A) (A) (A) (A) (A) (A) (A) (A) (A)
                 (A) (A) (A) (A) (A) (A) (A) (A) (A) (A) (A) (A)
                 (A) (A) (A) (A) (A) (A) (A) (A) (A) (A) (A) (A)
                 (A) (A) (A) (A) (A) (A) (A) (A) (A) (A) (A) (A)
                 (A) (A) (A) (A) (A) (A) (A) (A) (A) (A) (A) (A)
                 (A) (A) (A) (A) (A) (A) (A) (A) (A) (A) (A) (A)
                 (A) (A) (A) (A) (A) (A) (A) (A) (A) (A) (A) (A)
                 (A) (A) (A) (A) (A) (A) (A) (A) (A) (A) (A) (A)
                 (A) (A) (A) (A) (A) (A) (A) (A) (A) (A) (A) (A)
                 (A) (A) (A) (A) (A) (A) (A) (A) (A) (A) (A) (A)
                 (A) (A) (A) (A) (A) (A) (A) (A) (A) (A) (A) (A)
                 (A) (A) (A) (A) (A) (A) (A) (A) (A) (A) (A) (A)
                 (A) (A) (A) (A) (A) (A) (A) (A) (A) (A) (A) (A)
                 (A) (A) (A) (A) (A) (A) (A) (A) (A) (A) (A) (A)
                 (A) (A) (A) (A) (A) (A) (A) (A) (A) (A) (A) (A)
                 (A) (A) (A) (A) (A) (A) (A) (A) (A) (A) (A) (A)
                 (A) (A) (A) (A) (A) (A) (A) (A) (A) (A) (A) (A)
                 (A) (A) (A) (A) (A) (A) (A) (A) (A) (A) (A) (A)
                 (A) (A) (A) (A) (A) (A) (A) (A) (A)
 The electronic state is 1-A.
 Alpha  occ. eigenvalues --  -14.39286 -14.38228 -14.37048 -14.36881 -10.30260
 Alpha  occ. eigenvalues --  -10.30238 -10.28662 -10.28128 -10.27230 -10.26861
 Alpha  occ. eigenvalues --  -10.26656 -10.26634 -10.26163 -10.25587 -10.25506
 Alpha  occ. eigenvalues --  -10.25096 -10.23836 -10.21988 -10.21931 -10.21838
 Alpha  occ. eigenvalues --  -10.21001 -10.20700 -10.20611 -10.19867 -10.19566
 Alpha  occ. eigenvalues --  -10.18960  -1.05359  -0.97151  -0.96734  -0.93691
 Alpha  occ. eigenvalues --   -0.93571  -0.90727  -0.89837  -0.86321  -0.84699
 Alpha  occ. eigenvalues --   -0.81731  -0.79283  -0.77546  -0.76874  -0.73816
 Alpha  occ. eigenvalues --   -0.71154  -0.69489  -0.67924  -0.66196  -0.64700
 Alpha  occ. eigenvalues --   -0.62558  -0.60714  -0.59623  -0.59122  -0.58298
 Alpha  occ. eigenvalues --   -0.55050  -0.51825  -0.51133  -0.49915  -0.49345
 Alpha  occ. eigenvalues --   -0.48811  -0.48571  -0.46994  -0.46663  -0.45894
 Alpha  occ. eigenvalues --   -0.45723  -0.44995  -0.43804  -0.43006  -0.42725
 Alpha  occ. eigenvalues --   -0.41074  -0.40406  -0.40033  -0.39716  -0.39312
 Alpha  occ. eigenvalues --   -0.39078  -0.38332  -0.38214  -0.37781  -0.37604
 Alpha  occ. eigenvalues --   -0.37300  -0.37107  -0.36001  -0.35728  -0.35044
 Alpha  occ. eigenvalues --   -0.34450  -0.34234  -0.33612  -0.32747  -0.32073
 Alpha  occ. eigenvalues --   -0.28472  -0.25326  -0.20762
 Alpha virt. eigenvalues --   -0.17514  -0.08032  -0.07195  -0.05088  -0.03067
 Alpha virt. eigenvalues --   -0.02333  -0.02091  -0.01750  -0.00602  -0.00253
 Alpha virt. eigenvalues --   -0.00110   0.00657   0.00967   0.01272   0.01679
 Alpha virt. eigenvalues --    0.01951   0.02252   0.02321   0.02608   0.03137
 Alpha virt. eigenvalues --    0.03319   0.03588   0.03932   0.04531   0.04817
 Alpha virt. eigenvalues --    0.05050   0.05264   0.05885   0.06131   0.06373
 Alpha virt. eigenvalues --    0.06860   0.06998   0.07158   0.07646   0.07898
 Alpha virt. eigenvalues --    0.08466   0.08820   0.08949   0.09387   0.09770
 Alpha virt. eigenvalues --    0.10011   0.10279   0.10399   0.10940   0.11158
 Alpha virt. eigenvalues --    0.11878   0.12149   0.12551   0.12769   0.12982
 Alpha virt. eigenvalues --    0.13205   0.13386   0.13969   0.14187   0.14644
 Alpha virt. eigenvalues --    0.14818   0.14924   0.15154   0.15524   0.15947
 Alpha virt. eigenvalues --    0.16005   0.16487   0.16590   0.16821   0.17204
 Alpha virt. eigenvalues --    0.17538   0.17644   0.18673   0.18687   0.18903
 Alpha virt. eigenvalues --    0.19119   0.19419   0.19875   0.20043   0.20432
 Alpha virt. eigenvalues --    0.20557   0.20833   0.20876   0.21405   0.21553
 Alpha virt. eigenvalues --    0.21817   0.22316   0.22339   0.22472   0.22684
 Alpha virt. eigenvalues --    0.22823   0.23044   0.23610   0.23813   0.23865
 Alpha virt. eigenvalues --    0.24433   0.24466   0.24579   0.25080   0.25305
 Alpha virt. eigenvalues --    0.25485   0.25837   0.26064   0.26112   0.26445
 Alpha virt. eigenvalues --    0.26745   0.26865   0.26987   0.27270   0.27784
 Alpha virt. eigenvalues --    0.27925   0.27966   0.28445   0.28707   0.28993
 Alpha virt. eigenvalues --    0.29337   0.29538   0.29846   0.30070   0.30847
 Alpha virt. eigenvalues --    0.31088   0.31309   0.31409   0.31680   0.32149
 Alpha virt. eigenvalues --    0.32574   0.32782   0.33065   0.33304   0.33857
 Alpha virt. eigenvalues --    0.34018   0.34569   0.34825   0.35122   0.35684
 Alpha virt. eigenvalues --    0.36634   0.36695   0.37711   0.38043   0.38460
 Alpha virt. eigenvalues --    0.39325   0.40216   0.40896   0.42023   0.42418
 Alpha virt. eigenvalues --    0.43100   0.43923   0.45259   0.48598   0.50334
 Alpha virt. eigenvalues --    0.52268   0.55382   0.58265   0.58844   0.60965
 Alpha virt. eigenvalues --    0.63109   0.64316   0.64520   0.65051   0.65814
 Alpha virt. eigenvalues --    0.66797   0.66938   0.67464   0.68160   0.68740
 Alpha virt. eigenvalues --    0.68988   0.69521   0.69934   0.70534   0.71111
 Alpha virt. eigenvalues --    0.71853   0.71899   0.72125   0.72759   0.73062
 Alpha virt. eigenvalues --    0.73476   0.73728   0.74387   0.74645   0.74932
 Alpha virt. eigenvalues --    0.75348   0.76090   0.76839   0.77572   0.77747
 Alpha virt. eigenvalues --    0.77962   0.78448   0.78806   0.79467   0.79645
 Alpha virt. eigenvalues --    0.80418   0.80785   0.81969   0.82795   0.83238
 Alpha virt. eigenvalues --    0.83781   0.84454   0.84769   0.85729   0.86252
 Alpha virt. eigenvalues --    0.87129   0.87369   0.88213   0.89310   0.89675
 Alpha virt. eigenvalues --    0.90251   0.91024   0.92473   0.92648   0.92958
 Alpha virt. eigenvalues --    0.93696   0.94373   0.95211   0.95409   0.96321
 Alpha virt. eigenvalues --    0.96947   0.98114   0.98683   0.99469   1.00230
 Alpha virt. eigenvalues --    1.00284   1.00690   1.01138   1.01423   1.02217
 Alpha virt. eigenvalues --    1.02349   1.03199   1.03581   1.04296   1.05403
 Alpha virt. eigenvalues --    1.05713   1.06176   1.07324   1.08583   1.09182
 Alpha virt. eigenvalues --    1.10560   1.10925   1.11518   1.12276   1.13148
 Alpha virt. eigenvalues --    1.13728   1.14322   1.15266   1.16030   1.16688
 Alpha virt. eigenvalues --    1.17226   1.18282   1.18887   1.19908   1.20357
 Alpha virt. eigenvalues --    1.21061   1.22134   1.23214   1.24492   1.24584
 Alpha virt. eigenvalues --    1.25412   1.26798   1.28106   1.29281   1.30202
 Alpha virt. eigenvalues --    1.31046   1.31513   1.32328   1.32829   1.34081
 Alpha virt. eigenvalues --    1.34339   1.35328   1.36527   1.37354   1.38292
 Alpha virt. eigenvalues --    1.39612   1.39750   1.40157   1.41323   1.43219
 Alpha virt. eigenvalues --    1.45179   1.45904   1.47631   1.48082   1.48706
 Alpha virt. eigenvalues --    1.49576   1.49965   1.50353   1.52189   1.54101
 Alpha virt. eigenvalues --    1.55355   1.57153   1.59640   1.60479   1.60958
 Alpha virt. eigenvalues --    1.62455   1.63114   1.65176   1.66250   1.67064
 Alpha virt. eigenvalues --    1.67923   1.69033   1.69443   1.71179   1.72594
 Alpha virt. eigenvalues --    1.73181   1.74406   1.75630   1.77309   1.77927
 Alpha virt. eigenvalues --    1.78303   1.81282   1.82076   1.82370   1.83020
 Alpha virt. eigenvalues --    1.84591   1.85457   1.86136   1.86354   1.87727
 Alpha virt. eigenvalues --    1.88912   1.90488   1.90583   1.90891   1.91032
 Alpha virt. eigenvalues --    1.91572   1.92745   1.92789   1.93626   1.94252
 Alpha virt. eigenvalues --    1.95507   1.95748   1.96423   1.97646   1.98738
 Alpha virt. eigenvalues --    1.99182   2.00581   2.00870   2.01534   2.02059
 Alpha virt. eigenvalues --    2.02418   2.02972   2.04138   2.04679   2.05583
 Alpha virt. eigenvalues --    2.06153   2.06841   2.08655   2.09448   2.09668
 Alpha virt. eigenvalues --    2.10769   2.11513   2.12023   2.13789   2.14587
 Alpha virt. eigenvalues --    2.15284   2.16343   2.19322   2.19411   2.23880
 Alpha virt. eigenvalues --    2.24765   2.24968   2.26009   2.26758   2.26931
 Alpha virt. eigenvalues --    2.28209   2.28745   2.30204   2.30676   2.31992
 Alpha virt. eigenvalues --    2.32561   2.33691   2.36604   2.36733   2.37265
 Alpha virt. eigenvalues --    2.39281   2.40554   2.41063   2.41537   2.42704
 Alpha virt. eigenvalues --    2.43848   2.44723   2.46190   2.46240   2.48631
 Alpha virt. eigenvalues --    2.49612   2.50142   2.51653   2.52704   2.53253
 Alpha virt. eigenvalues --    2.54879   2.55708   2.56838   2.58314   2.59832
 Alpha virt. eigenvalues --    2.60042   2.62095   2.63077   2.63965   2.65235
 Alpha virt. eigenvalues --    2.66701   2.68801   2.70054   2.70907   2.71192
 Alpha virt. eigenvalues --    2.73318   2.74026   2.75905   2.76849   2.78692
 Alpha virt. eigenvalues --    2.79331   2.80559   2.81675   2.82311   2.83827
 Alpha virt. eigenvalues --    2.85045   2.86281   2.86786   2.87079   2.87696
 Alpha virt. eigenvalues --    2.90237   2.91225   2.92807   2.94122   2.95535
 Alpha virt. eigenvalues --    2.96576   2.97661   2.99367   3.03686   3.05893
 Alpha virt. eigenvalues --    3.06509   3.07148   3.08946   3.11792   3.12735
 Alpha virt. eigenvalues --    3.15574   3.20146   3.20686   3.21200   3.22647
 Alpha virt. eigenvalues --    3.24957   3.25911   3.27553   3.28192   3.30620
 Alpha virt. eigenvalues --    3.30867   3.35461   3.36031   3.39130   3.41449
 Alpha virt. eigenvalues --    3.43585   3.46007   3.46593   3.48024   3.50646
 Alpha virt. eigenvalues --    3.51739   3.54704   3.56108   3.62715   3.66176
 Alpha virt. eigenvalues --    3.83661   4.22980   4.27224   4.29987   4.31248
 Alpha virt. eigenvalues --    4.32303   4.33193   4.35335   4.37306   4.38765
 Alpha virt. eigenvalues --    4.39131   4.41111   4.44457   4.46160   4.48196
 Alpha virt. eigenvalues --    4.48953   4.52093   4.55028   4.59756   4.64821
 Alpha virt. eigenvalues --    4.65993   4.71076   4.76929   4.78729   4.91019
 Alpha virt. eigenvalues --    4.93074   5.02328
          Condensed to atoms (all electrons):
               1          2          3          4          5          6
     1  C    6.063782  -0.985207   0.680270   0.027201  -0.508340   0.119269
     2  C   -0.985207   9.119275  -2.532716   0.696949   0.225328  -0.955938
     3  C    0.680270  -2.532716  10.692699  -2.139570   1.683592   0.514313
     4  C    0.027201   0.696949  -2.139570  15.908423 -10.463892   1.405394
     5  C   -0.508340   0.225328   1.683592 -10.463892  24.482407  -1.885871
     6  C    0.119269  -0.955938   0.514313   1.405394  -1.885871  14.588951
     7  C   -0.029846   0.021023   0.240604  -1.182543   0.696256   3.729921
     8  C   -0.036934  -0.160204  -1.049175  -0.890837  -1.423000  -3.302991
     9  C    0.001570   0.007083  -0.095323   0.639469  -1.010252  -0.414648
    10  C   -0.000299   0.004262  -0.061146   0.182872  -1.019646  -1.126301
    11  C    0.000022   0.001485   0.014062   0.029843  -0.004016  -0.033747
    12  C    0.000011   0.000172   0.004363  -0.002295   0.037859   0.018464
    13  C    0.000001   0.000020   0.000512   0.002455   0.016458  -0.001861
    14  N   -0.000000  -0.000000  -0.000001  -0.000004  -0.000086  -0.000017
    15  C   -0.000005  -0.000040  -0.000796  -0.005010  -0.021793  -0.005534
    16  N   -0.000000   0.000000   0.000024  -0.000209   0.000096  -0.000278
    17  C   -0.000003  -0.000122   0.001383  -0.018925   0.000976   0.090022
    18  C   -0.000105   0.001479   0.021468  -0.067927  -0.075479   0.200935
    19  C   -0.000595   0.016105   0.102556  -0.181950  -0.358307  -0.069697
    20  C   -0.000649   0.027669   0.135732  -0.154372  -0.317994   0.217428
    21  C    0.001219  -0.036207  -0.257607   0.376401   0.765223  -0.199950
    22  N    0.000635  -0.023626  -0.119739   0.030533  -0.122539  -0.382928
    23  C   -0.000247   0.000176  -0.008693   0.002948   0.193308   0.336245
    24  N    0.000002  -0.000023  -0.000350   0.000653  -0.001739  -0.014499
    25  C   -0.007514   0.069631  -0.820349   2.173550  -5.017074  -3.489468
    26  C   -0.096025   0.082133  -1.085083  -1.024919   0.197019  -3.016874
    27  H    0.496643  -0.130948   0.018977  -0.018578  -0.006373  -0.000977
    28  H    0.482798  -0.113582  -0.008126   0.011317  -0.022739   0.002410
    29  H    0.486912  -0.122367  -0.002294   0.008347  -0.021901   0.002422
    30  H    0.004169   0.517126  -0.202888   0.077936  -0.081133   0.000917
    31  H    0.007860   0.507862  -0.189638   0.064400  -0.078717   0.005266
    32  H   -0.017529   0.073591   0.273311   0.115474  -0.176707   0.017243
    33  H   -0.014387   0.039616   0.307202   0.058473  -0.190243   0.083224
    34  H   -0.002993   0.000479  -0.120358   0.642687  -0.327046   0.128919
    35  H   -0.002086  -0.009185  -0.079378   0.633002  -0.287292   0.154680
    36  H   -0.001767   0.050956   0.095716  -0.112691   0.215909   0.181970
    37  H    0.000172  -0.002757  -0.024687   0.028545  -0.066332  -0.291256
    38  H   -0.000000  -0.000030  -0.000699  -0.001762  -0.016629  -0.038019
    39  H   -0.000000  -0.000000  -0.000000   0.000001  -0.000001  -0.000029
    40  H    0.000000   0.000000   0.000001   0.000000   0.000016   0.000387
    41  H    0.000004   0.000191   0.004993  -0.013947   0.079564   0.024535
    42  H    0.000059  -0.001575  -0.004560   0.072483  -0.030886   0.082936
               7          8          9         10         11         12
     1  C   -0.029846  -0.036934   0.001570  -0.000299   0.000022   0.000011
     2  C    0.021023  -0.160204   0.007083   0.004262   0.001485   0.000172
     3  C    0.240604  -1.049175  -0.095323  -0.061146   0.014062   0.004363
     4  C   -1.182543  -0.890837   0.639469   0.182872   0.029843  -0.002295
     5  C    0.696256  -1.423000  -1.010252  -1.019646  -0.004016   0.037859
     6  C    3.729921  -3.302991  -0.414648  -1.126301  -0.033747   0.018464
     7  C   13.307856   0.065185  -1.029559  -2.097854  -0.842579   0.088265
     8  C    0.065185  16.932532   1.141324  -0.980434  -1.401816  -0.499101
     9  C   -1.029559   1.141324  11.234783   0.797775  -2.892812  -0.453899
    10  C   -2.097854  -0.980434   0.797775  11.269139   0.257544  -1.597176
    11  C   -0.842579  -1.401816  -2.892812   0.257544  11.993454   1.595694
    12  C    0.088265  -0.499101  -0.453899  -1.597176   1.595694  10.017310
    13  C   -0.073483  -0.333896  -1.112202  -3.162408  -1.306969  -1.139058
    14  N    0.000326   0.000786   0.033838   0.143304   0.230810   0.297073
    15  C    0.021604   0.123766   0.470273   1.124786  -2.219068  -1.981175
    16  N   -0.000750  -0.003415  -0.026158  -0.060287   0.178789   0.246576
    17  C    0.407855  -0.167895   1.840930  -0.618486  -1.266278   0.751425
    18  C    0.416045  -0.896285  -0.815904   0.404113   0.688239  -0.271247
    19  C   -0.242772  -0.155265  -2.450977   1.184144   1.632242  -1.294240
    20  C    1.257084  -0.619862  -0.034062   0.216159  -0.705920  -0.226334
    21  C   -1.568554   0.923466   2.153567  -1.407370  -1.623626  -0.201974
    22  N   -0.484388   0.304923   0.031729  -0.011636   0.021820  -0.001781
    23  C   -0.047828  -0.657555  -2.541287  -0.273827  -0.415325  -0.142559
    24  N   -0.012676   0.030325   0.154080   0.004089   0.008221   0.001643
    25  C   -4.608083  -1.269517   0.695160   2.207742   0.540878  -0.039629
    26  C   -1.547168  -0.627712  -0.511005   0.605652   0.037814  -0.010019
    27  H   -0.000328  -0.000071  -0.000001  -0.000000  -0.000000   0.000000
    28  H    0.000186  -0.000198   0.000019  -0.000001  -0.000000  -0.000000
    29  H    0.000848  -0.000078   0.000020   0.000004   0.000000   0.000000
    30  H    0.001058  -0.000690   0.000074  -0.000005  -0.000000  -0.000000
    31  H    0.001533  -0.000093   0.000063   0.000022   0.000000   0.000000
    32  H    0.027148   0.007337   0.001827   0.000542   0.000020   0.000001
    33  H    0.047896   0.010359   0.001761   0.000378   0.000018  -0.000001
    34  H    0.007663   0.012033   0.001931   0.003622   0.000157   0.000026
    35  H    0.009973  -0.008688   0.003426  -0.001083  -0.000042  -0.000013
    36  H   -0.097577  -0.040192  -0.008553   0.000687   0.000383   0.000061
    37  H    0.185827   0.309443   0.075767   0.099027   0.009083   0.003172
    38  H   -0.124451  -0.203603  -0.070620   0.459506   0.023747  -0.044747
    39  H    0.000011   0.001714  -0.010058   0.028426   0.000907  -0.015884
    40  H    0.003646  -0.003042   0.051743  -0.004907  -0.006701   0.003487
    41  H    0.047053   0.046065  -0.098628   0.029142   0.006350   0.017204
    42  H   -0.005440   0.006988  -0.000047   0.005691   0.000967   0.000181
              13         14         15         16         17         18
     1  C    0.000001  -0.000000  -0.000005  -0.000000  -0.000003  -0.000105
     2  C    0.000020  -0.000000  -0.000040   0.000000  -0.000122   0.001479
     3  C    0.000512  -0.000001  -0.000796   0.000024   0.001383   0.021468
     4  C    0.002455  -0.000004  -0.005010  -0.000209  -0.018925  -0.067927
     5  C    0.016458  -0.000086  -0.021793   0.000096   0.000976  -0.075479
     6  C   -0.001861  -0.000017  -0.005534  -0.000278   0.090022   0.200935
     7  C   -0.073483   0.000326   0.021604  -0.000750   0.407855   0.416045
     8  C   -0.333896   0.000786   0.123766  -0.003415  -0.167895  -0.896285
     9  C   -1.112202   0.033838   0.470273  -0.026158   1.840930  -0.815904
    10  C   -3.162408   0.143304   1.124786  -0.060287  -0.618486   0.404113
    11  C   -1.306969   0.230810  -2.219068   0.178789  -1.266278   0.688239
    12  C   -1.139058   0.297073  -1.981175   0.246576   0.751425  -0.271247
    13  C   15.095386  -0.688378  -1.488974   0.060626   0.254182  -0.212552
    14  N   -0.688378   7.459412   0.100816  -0.004470  -0.052107   0.018557
    15  C   -1.488974   0.100816  12.400902  -0.434503  -0.878559  -0.019148
    16  N    0.060626  -0.004470  -0.434503   7.442990   0.085638   0.003489
    17  C    0.254182  -0.052107  -0.878559   0.085638   9.452826   0.825847
    18  C   -0.212552   0.018557  -0.019148   0.003489   0.825847   9.715370
    19  C    0.236627  -0.012906  -0.582859   0.017284  -3.728735   0.557499
    20  C   -0.115976   0.000761  -0.113413   0.002450  -0.231246   0.297504
    21  C   -0.061990   0.000181  -0.047326   0.000184   0.501880  -3.485790
    22  N    0.000473  -0.000002   0.000247   0.000011  -0.026909  -0.010760
    23  C    0.020694  -0.000699  -0.061461   0.000641  -0.628273  -1.242455
    24  N   -0.000646   0.000013   0.000605  -0.000002   0.045185   0.028216
    25  C    0.099804  -0.000836  -0.050868   0.004605  -0.143404  -0.131263
    26  C    0.005783  -0.000148   0.004666   0.000957   0.007016   0.025677
    27  H    0.000000   0.000000  -0.000000   0.000000   0.000000  -0.000000
    28  H    0.000000  -0.000000   0.000000   0.000000  -0.000000  -0.000000
    29  H    0.000000   0.000000  -0.000000   0.000000  -0.000000  -0.000000
    30  H   -0.000000  -0.000000   0.000000  -0.000000  -0.000000   0.000000
    31  H    0.000000  -0.000000  -0.000000   0.000000  -0.000000  -0.000000
    32  H    0.000000   0.000000  -0.000000   0.000000  -0.000002   0.000017
    33  H    0.000000  -0.000000  -0.000000   0.000000  -0.000004  -0.000036
    34  H    0.000001  -0.000000  -0.000006   0.000000  -0.000005   0.000007
    35  H   -0.000000  -0.000000   0.000001  -0.000000  -0.000003  -0.000063
    36  H    0.000000   0.000000   0.000008  -0.000000   0.000186   0.002037
    37  H    0.000522  -0.000000  -0.000232   0.000004  -0.007873  -0.048838
    38  H   -0.006312  -0.000131   0.031531   0.004933   0.043042   0.017125
    39  H   -0.006202   0.001717   0.015147  -0.000141   0.290993  -0.035659
    40  H   -0.001907   0.000057   0.000136   0.000002   0.021906   0.320436
    41  H   -0.000073   0.000002  -0.000886   0.000213   0.009587   0.005859
    42  H    0.000019  -0.000000  -0.000151   0.000001   0.000096  -0.000197
              19         20         21         22         23         24
     1  C   -0.000595  -0.000649   0.001219   0.000635  -0.000247   0.000002
     2  C    0.016105   0.027669  -0.036207  -0.023626   0.000176  -0.000023
     3  C    0.102556   0.135732  -0.257607  -0.119739  -0.008693  -0.000350
     4  C   -0.181950  -0.154372   0.376401   0.030533   0.002948   0.000653
     5  C   -0.358307  -0.317994   0.765223  -0.122539   0.193308  -0.001739
     6  C   -0.069697   0.217428  -0.199950  -0.382928   0.336245  -0.014499
     7  C   -0.242772   1.257084  -1.568554  -0.484388  -0.047828  -0.012676
     8  C   -0.155265  -0.619862   0.923466   0.304923  -0.657555   0.030325
     9  C   -2.450977  -0.034062   2.153567   0.031729  -2.541287   0.154080
    10  C    1.184144   0.216159  -1.407370  -0.011636  -0.273827   0.004089
    11  C    1.632242  -0.705920  -1.623626   0.021820  -0.415325   0.008221
    12  C   -1.294240  -0.226334  -0.201974  -0.001781  -0.142559   0.001643
    13  C    0.236627  -0.115976  -0.061990   0.000473   0.020694  -0.000646
    14  N   -0.012906   0.000761   0.000181  -0.000002  -0.000699   0.000013
    15  C   -0.582859  -0.113413  -0.047326   0.000247  -0.061461   0.000605
    16  N    0.017284   0.002450   0.000184   0.000011   0.000641  -0.000002
    17  C   -3.728735  -0.231246   0.501880  -0.026909  -0.628273   0.045185
    18  C    0.557499   0.297504  -3.485790  -0.010760  -1.242455   0.028216
    19  C   15.427385   4.466582  -7.662317  -0.082241  -2.698168   0.233598
    20  C    4.466582  13.564414  -7.576866  -0.340017  -4.684459   0.715907
    21  C   -7.662317  -7.576866  22.521884   0.552401   2.981550  -0.178435
    22  N   -0.082241  -0.340017   0.552401   7.867509   0.208439  -0.002164
    23  C   -2.698168  -4.684459   2.981550   0.208439  16.669189  -0.974962
    24  N    0.233598   0.715907  -0.178435  -0.002164  -0.974962   7.487567
    25  C   -0.097107  -0.295818   0.436018   0.013492   0.035392   0.002259
    26  C    0.013894   0.200237  -0.233537   0.090410   0.156041  -0.001974
    27  H   -0.000000   0.000001  -0.000002  -0.000000   0.000000   0.000000
    28  H    0.000006   0.000041   0.000165  -0.000015  -0.000001  -0.000000
    29  H   -0.000001  -0.000003  -0.000073  -0.000000  -0.000000   0.000000
    30  H    0.000007   0.000009   0.000116  -0.000027   0.000000   0.000000
    31  H   -0.000000   0.000007  -0.000038  -0.000032  -0.000001  -0.000000
    32  H    0.000624   0.000644  -0.000011   0.000673  -0.000044   0.000000
    33  H   -0.000067  -0.000055   0.001938  -0.001536  -0.000007  -0.000000
    34  H    0.000277   0.000249  -0.001573   0.000258  -0.000025   0.000000
    35  H   -0.000849  -0.000823   0.003517  -0.000858  -0.000045   0.000000
    36  H    0.014301   0.013880  -0.005553  -0.030736  -0.010960   0.000035
    37  H    0.016153   0.015280  -0.061658  -0.096958  -0.059405   0.002332
    38  H   -0.024041  -0.017669  -0.001951   0.000272  -0.003893   0.000007
    39  H    0.044666   0.000275  -0.000307   0.000007  -0.001642   0.000013
    40  H   -0.124061   0.004431   0.039157  -0.000321   0.009198   0.002203
    41  H   -0.037224  -0.033921   0.009438  -0.000667  -0.005071   0.000002
    42  H   -0.000649  -0.002227   0.000425   0.000426  -0.000216  -0.000000
              25         26         27         28         29         30
     1  C   -0.007514  -0.096025   0.496643   0.482798   0.486912   0.004169
     2  C    0.069631   0.082133  -0.130948  -0.113582  -0.122367   0.517126
     3  C   -0.820349  -1.085083   0.018977  -0.008126  -0.002294  -0.202888
     4  C    2.173550  -1.024919  -0.018578   0.011317   0.008347   0.077936
     5  C   -5.017074   0.197019  -0.006373  -0.022739  -0.021901  -0.081133
     6  C   -3.489468  -3.016874  -0.000977   0.002410   0.002422   0.000917
     7  C   -4.608083  -1.547168  -0.000328   0.000186   0.000848   0.001058
     8  C   -1.269517  -0.627712  -0.000071  -0.000198  -0.000078  -0.000690
     9  C    0.695160  -0.511005  -0.000001   0.000019   0.000020   0.000074
    10  C    2.207742   0.605652  -0.000000  -0.000001   0.000004  -0.000005
    11  C    0.540878   0.037814  -0.000000  -0.000000   0.000000  -0.000000
    12  C   -0.039629  -0.010019   0.000000  -0.000000   0.000000  -0.000000
    13  C    0.099804   0.005783   0.000000   0.000000   0.000000  -0.000000
    14  N   -0.000836  -0.000148   0.000000  -0.000000   0.000000  -0.000000
    15  C   -0.050868   0.004666  -0.000000   0.000000  -0.000000   0.000000
    16  N    0.004605   0.000957   0.000000   0.000000   0.000000  -0.000000
    17  C   -0.143404   0.007016   0.000000  -0.000000  -0.000000  -0.000000
    18  C   -0.131263   0.025677  -0.000000  -0.000000  -0.000000   0.000000
    19  C   -0.097107   0.013894  -0.000000   0.000006  -0.000001   0.000007
    20  C   -0.295818   0.200237   0.000001   0.000041  -0.000003   0.000009
    21  C    0.436018  -0.233537  -0.000002   0.000165  -0.000073   0.000116
    22  N    0.013492   0.090410  -0.000000  -0.000015  -0.000000  -0.000027
    23  C    0.035392   0.156041   0.000000  -0.000001  -0.000000   0.000000
    24  N    0.002259  -0.001974   0.000000  -0.000000   0.000000   0.000000
    25  C   13.941425   1.954884  -0.000017  -0.000009   0.000125   0.000772
    26  C    1.954884  10.681520  -0.000495  -0.000822  -0.000592  -0.001373
    27  H   -0.000017  -0.000495   0.558578  -0.026617  -0.026695  -0.003349
    28  H   -0.000009  -0.000822  -0.026617   0.558125  -0.029510   0.004879
    29  H    0.000125  -0.000592  -0.026695  -0.029510   0.559899  -0.005352
    30  H    0.000772  -0.001373  -0.003349   0.004879  -0.005352   0.580477
    31  H    0.000663  -0.002815  -0.003344  -0.005291   0.004875  -0.031147
    32  H    0.004595  -0.020735   0.000029   0.003612  -0.000630   0.004733
    33  H   -0.005374  -0.030676   0.000032  -0.000585   0.003478  -0.006212
    34  H    0.007536  -0.043512   0.000001  -0.000006   0.000001   0.002470
    35  H   -0.017868  -0.087107   0.000001   0.000002  -0.000007  -0.000446
    36  H   -0.005004   0.023287  -0.000000   0.000011  -0.000001   0.000009
    37  H    0.058670   0.003900   0.000000  -0.000000   0.000000  -0.000000
    38  H    0.178014   0.095521   0.000000   0.000000  -0.000000   0.000000
    39  H   -0.000841  -0.000109   0.000000   0.000000   0.000000   0.000000
    40  H   -0.000838  -0.000110   0.000000  -0.000000   0.000000  -0.000000
    41  H    0.249934  -0.047372  -0.000000   0.000000   0.000000   0.000000
    42  H   -0.134996   0.311966  -0.000000   0.000000  -0.000000   0.000000
              31         32         33         34         35         36
     1  C    0.007860  -0.017529  -0.014387  -0.002993  -0.002086  -0.001767
     2  C    0.507862   0.073591   0.039616   0.000479  -0.009185   0.050956
     3  C   -0.189638   0.273311   0.307202  -0.120358  -0.079378   0.095716
     4  C    0.064400   0.115474   0.058473   0.642687   0.633002  -0.112691
     5  C   -0.078717  -0.176707  -0.190243  -0.327046  -0.287292   0.215909
     6  C    0.005266   0.017243   0.083224   0.128919   0.154680   0.181970
     7  C    0.001533   0.027148   0.047896   0.007663   0.009973  -0.097577
     8  C   -0.000093   0.007337   0.010359   0.012033  -0.008688  -0.040192
     9  C    0.000063   0.001827   0.001761   0.001931   0.003426  -0.008553
    10  C    0.000022   0.000542   0.000378   0.003622  -0.001083   0.000687
    11  C    0.000000   0.000020   0.000018   0.000157  -0.000042   0.000383
    12  C    0.000000   0.000001  -0.000001   0.000026  -0.000013   0.000061
    13  C    0.000000   0.000000   0.000000   0.000001  -0.000000   0.000000
    14  N   -0.000000   0.000000  -0.000000  -0.000000  -0.000000   0.000000
    15  C   -0.000000  -0.000000  -0.000000  -0.000006   0.000001   0.000008
    16  N    0.000000   0.000000   0.000000   0.000000  -0.000000  -0.000000
    17  C   -0.000000  -0.000002  -0.000004  -0.000005  -0.000003   0.000186
    18  C   -0.000000   0.000017  -0.000036   0.000007  -0.000063   0.002037
    19  C   -0.000000   0.000624  -0.000067   0.000277  -0.000849   0.014301
    20  C    0.000007   0.000644  -0.000055   0.000249  -0.000823   0.013880
    21  C   -0.000038  -0.000011   0.001938  -0.001573   0.003517  -0.005553
    22  N   -0.000032   0.000673  -0.001536   0.000258  -0.000858  -0.030736
    23  C   -0.000001  -0.000044  -0.000007  -0.000025  -0.000045  -0.010960
    24  N   -0.000000   0.000000  -0.000000   0.000000   0.000000   0.000035
    25  C    0.000663   0.004595  -0.005374   0.007536  -0.017868  -0.005004
    26  C   -0.002815  -0.020735  -0.030676  -0.043512  -0.087107   0.023287
    27  H   -0.003344   0.000029   0.000032   0.000001   0.000001  -0.000000
    28  H   -0.005291   0.003612  -0.000585  -0.000006   0.000002   0.000011
    29  H    0.004875  -0.000630   0.003478   0.000001  -0.000007  -0.000001
    30  H   -0.031147   0.004733  -0.006212   0.002470  -0.000446   0.000009
    31  H    0.579887  -0.006218   0.004714  -0.000481   0.002440   0.000006
    32  H   -0.006218   0.578134  -0.036603   0.004652  -0.006016   0.000253
    33  H    0.004714  -0.036603   0.583562  -0.006341   0.004816  -0.001284
    34  H   -0.000481   0.004652  -0.006341   0.558288  -0.031104   0.000375
    35  H    0.002440  -0.006016   0.004816  -0.031104   0.558623   0.000133
    36  H    0.000006   0.000253  -0.001284   0.000375   0.000133   0.579037
    37  H    0.000000   0.000010   0.000008   0.000006   0.000000  -0.004996
    38  H    0.000000  -0.000000  -0.000000   0.000000  -0.000000   0.000000
    39  H    0.000000   0.000000   0.000000   0.000000   0.000000  -0.000000
    40  H   -0.000000  -0.000000  -0.000000   0.000000  -0.000000  -0.000000
    41  H   -0.000000   0.000000  -0.000000  -0.000001  -0.000001   0.000016
    42  H   -0.000000   0.000001  -0.000000   0.000996   0.000956  -0.000159
              37         38         39         40         41         42
     1  C    0.000172  -0.000000  -0.000000   0.000000   0.000004   0.000059
     2  C   -0.002757  -0.000030  -0.000000   0.000000   0.000191  -0.001575
     3  C   -0.024687  -0.000699  -0.000000   0.000001   0.004993  -0.004560
     4  C    0.028545  -0.001762   0.000001   0.000000  -0.013947   0.072483
     5  C   -0.066332  -0.016629  -0.000001   0.000016   0.079564  -0.030886
     6  C   -0.291256  -0.038019  -0.000029   0.000387   0.024535   0.082936
     7  C    0.185827  -0.124451   0.000011   0.003646   0.047053  -0.005440
     8  C    0.309443  -0.203603   0.001714  -0.003042   0.046065   0.006988
     9  C    0.075767  -0.070620  -0.010058   0.051743  -0.098628  -0.000047
    10  C    0.099027   0.459506   0.028426  -0.004907   0.029142   0.005691
    11  C    0.009083   0.023747   0.000907  -0.006701   0.006350   0.000967
    12  C    0.003172  -0.044747  -0.015884   0.003487   0.017204   0.000181
    13  C    0.000522  -0.006312  -0.006202  -0.001907  -0.000073   0.000019
    14  N   -0.000000  -0.000131   0.001717   0.000057   0.000002  -0.000000
[...]
    32  H    0.000000  -0.000000  -0.000000   0.000000  -0.000001  -0.000004
    33  H    0.000000  -0.000000  -0.000000   0.000000   0.000000  -0.000000
    34  H    0.000000  -0.000000  -0.000010   0.000000  -0.000006  -0.000022
    35  H   -0.000000   0.000000   0.000001  -0.000000  -0.000001   0.000024
    36  H   -0.000001   0.000000   0.000014  -0.000000   0.000038  -0.000366
    37  H    0.000358  -0.000000  -0.001294   0.000006  -0.006221  -0.014748
    38  H    0.002143  -0.000058   0.005518   0.004612   0.001417  -0.009432
    39  H   -0.008000   0.001834   0.015384  -0.000078   0.256111   0.095262
    40  H    0.000173   0.000072  -0.000045   0.000002   0.181363   0.240001
    41  H    0.000045  -0.000000   0.004977  -0.000124  -0.000558   0.003866
    42  H    0.000016  -0.000000  -0.000113   0.000001  -0.000117  -0.000099
              19         20         21         22         23         24
     1  C   -0.000703   0.000541  -0.000561   0.000075   0.000044  -0.000000
     2  C   -0.002687  -0.000091  -0.000616   0.000903  -0.000343   0.000001
     3  C   -0.016287   0.031726  -0.048361   0.003206  -0.002008   0.000010
     4  C   -0.366949   0.072572   0.185752   0.009538  -0.001557   0.000144
     5  C    0.118572   0.012661  -0.099495  -0.015807   0.038973  -0.000154
     6  C   -0.328512   0.213381  -0.244651   0.039770  -0.094345  -0.000434
     7  C   -0.095611   0.172634  -0.881045   0.041465  -0.005884  -0.004798
     8  C   -2.126304   2.570998   0.121494   0.037289  -0.179996   0.002492
     9  C   -5.259288   3.764064   1.903366  -0.039996  -2.216750   0.097746
    10  C    2.669289  -4.274009   0.160171  -0.049785   0.012093   0.002454
    11  C   -1.634359  -0.463849   0.189485  -0.001931  -0.384576   0.015841
    12  C   -0.980870   0.152487  -0.177726   0.001078  -0.054976   0.002658
    13  C    0.305987  -0.017509  -0.003719  -0.000262   0.029947  -0.000267
    14  N   -0.007542   0.000082   0.000021   0.000000  -0.000090   0.000002
    15  C   -0.570735  -0.237111  -0.001394   0.000084  -0.030742   0.000397
    16  N    0.025919   0.001713  -0.000494  -0.000000   0.000455  -0.000001
    17  C    0.074969  -4.070875  -0.965125   0.015128   0.497686   0.045336
    18  C   -3.657094   2.621631  -1.606288   0.084793  -0.939901   0.101501
    19  C   33.176805 -16.041510  -4.337320   0.184939   2.654137  -0.056383
    20  C  -16.041510  26.642497  -2.324078   0.350162  -3.561413   0.270187
    21  C   -4.337320  -2.324078  16.013603  -0.266247  -1.419089  -0.000765
    22  N    0.184939   0.350162  -0.266247   7.157342  -0.112453   0.000341
    23  C    2.654137  -3.561413  -1.419089  -0.112453  11.891117  -0.284712
    24  N   -0.056383   0.270187  -0.000765   0.000341  -0.284712   7.261629
    25  C    2.168631  -1.993589   0.237112  -0.076931   0.359436   0.001349
    26  C   -0.628793   0.907910  -0.119429   0.025180  -0.105503   0.000580
    27  H   -0.000000   0.000000  -0.000000   0.000000   0.000000  -0.000000
    28  H   -0.000000   0.000001   0.000002  -0.000000   0.000000  -0.000000
    29  H   -0.000000   0.000001  -0.000001   0.000000   0.000000   0.000000
    30  H   -0.000001   0.000002   0.000002  -0.000000   0.000000  -0.000000
    31  H   -0.000000   0.000002  -0.000004   0.000001  -0.000000   0.000000
    32  H    0.000057  -0.000078   0.000173  -0.000097   0.000018  -0.000000
    33  H    0.000032   0.000070  -0.000040   0.000005  -0.000001   0.000000
    34  H   -0.000231  -0.000027   0.000343  -0.000064   0.000007  -0.000000
    35  H   -0.000040   0.000885  -0.000557   0.000105   0.000004   0.000000
    36  H    0.002081  -0.006657   0.003956  -0.000218  -0.000379  -0.000000
    37  H   -0.024513   0.091300   0.013364  -0.001634   0.013958  -0.000026
    38  H    0.040677   0.000732   0.001044  -0.000028   0.000077   0.000002
    39  H    0.028401   0.015031   0.000766   0.000003  -0.000972   0.000051
    40  H   -0.001672  -0.143028   0.010760  -0.000209   0.026270   0.000239
    41  H   -0.033540  -0.035309   0.014718  -0.000783  -0.002588   0.000002
    42  H   -0.001397   0.000398  -0.000926  -0.000008  -0.000109   0.000000
              25         26         27         28         29         30
     1  C    0.025127  -0.144713   0.475745   0.492129   0.483665   0.016323
     2  C   -0.036440   0.242289  -0.103182  -0.142033  -0.137410   0.460587
     3  C   -0.494146  -1.271081   0.008200   0.019667   0.011975  -0.140859
     4  C    3.483355  -0.971406  -0.011073  -0.001592   0.007749   0.048950
     5  C   -1.117113  -3.424594  -0.006053  -0.016167  -0.015567  -0.070660
     6  C   -5.465819  -0.898388   0.000627   0.004594   0.005003   0.009020
     7  C   -2.824047  -3.959942   0.000057   0.000640   0.000664   0.001572
     8  C   -5.512451   2.990389  -0.000034  -0.000074  -0.000001  -0.000599
     9  C   -0.537275   1.392362  -0.000000   0.000000   0.000002   0.000017
    10  C    1.705635  -0.787974  -0.000000  -0.000001   0.000001  -0.000007
    11  C   -0.422477  -0.246829   0.000000  -0.000000   0.000000  -0.000000
    12  C   -0.050140   0.101650   0.000000  -0.000000   0.000000  -0.000000
    13  C    0.045873   0.015801  -0.000000  -0.000000   0.000000   0.000000
    14  N    0.000101  -0.000058  -0.000000  -0.000000  -0.000000  -0.000000
    15  C   -0.015890  -0.068321   0.000000   0.000000  -0.000000   0.000000
    16  N    0.010983   0.001039  -0.000000  -0.000000   0.000000  -0.000000
    17  C    0.116634  -0.005895  -0.000000  -0.000000  -0.000000  -0.000000
    18  C   -0.638352   0.217871  -0.000000   0.000000  -0.000000   0.000000
    19  C    2.168631  -0.628793  -0.000000  -0.000000  -0.000000  -0.000001
    20  C   -1.993589   0.907910   0.000000   0.000001   0.000001   0.000002
    21  C    0.237112  -0.119429  -0.000000   0.000002  -0.000001   0.000002
    22  N   -0.076931   0.025180   0.000000  -0.000000   0.000000  -0.000000
    23  C    0.359436  -0.105503   0.000000   0.000000   0.000000   0.000000
    24  N    0.001349   0.000580  -0.000000  -0.000000   0.000000  -0.000000
    25  C   26.488798  -9.793570   0.000028   0.000040   0.000139   0.000739
    26  C   -9.793570  22.369178  -0.000609  -0.001284  -0.000585  -0.007833
    27  H    0.000028  -0.000609   0.552681  -0.028496  -0.028736  -0.003293
    28  H    0.000040  -0.001284  -0.028496   0.554384  -0.031602   0.004778
    29  H    0.000139  -0.000585  -0.028736  -0.031602   0.556011  -0.005108
    30  H    0.000739  -0.007833  -0.003293   0.004778  -0.005108   0.582186
    31  H    0.000671  -0.002645  -0.003295  -0.005059   0.004761  -0.036405
    32  H    0.001653  -0.035975   0.000004   0.003150  -0.000515   0.005048
    33  H   -0.005147  -0.051420   0.000006  -0.000531   0.003151  -0.006365
    34  H    0.015461  -0.109451   0.000000  -0.000002  -0.000003   0.003148
    35  H   -0.012672  -0.146985   0.000000  -0.000002  -0.000002  -0.000631
    36  H    0.039828   0.014357  -0.000000  -0.000001  -0.000000   0.000000
    37  H    0.071302  -0.001550  -0.000000  -0.000000  -0.000000   0.000000
    38  H    0.063431   0.057374  -0.000000   0.000000  -0.000000   0.000000
    39  H   -0.001075  -0.000027   0.000000   0.000000   0.000000   0.000000
    40  H   -0.000717   0.000139   0.000000  -0.000000   0.000000  -0.000000
    41  H    0.321661  -0.154426  -0.000000  -0.000000   0.000000  -0.000000
    42  H   -0.166274   0.341523  -0.000000   0.000000   0.000000   0.000000
              31         32         33         34         35         36
     1  C    0.008668  -0.003960  -0.003319   0.001518  -0.001303  -0.000533
     2  C    0.465812   0.050340   0.019417   0.019983  -0.010671   0.004553
     3  C   -0.153524   0.331516   0.385606  -0.063948  -0.031010   0.003140
     4  C    0.045085   0.039655  -0.034049   0.664592   0.533524  -0.049399
     5  C   -0.054540  -0.165683  -0.137399  -0.317244  -0.174565   0.080404
     6  C    0.007507   0.063187   0.093747   0.095284   0.135219   0.185572
     7  C    0.000929   0.029599   0.043522   0.004707   0.028599  -0.017402
     8  C   -0.000099   0.003182   0.003539  -0.006335  -0.011384   0.037146
     9  C    0.000018   0.000508   0.000202   0.001234   0.000928   0.000112
    10  C    0.000004   0.000228  -0.000240   0.001845  -0.001534   0.001571
    11  C   -0.000000   0.000006  -0.000016   0.000041  -0.000058   0.000480
    12  C    0.000000   0.000001   0.000000   0.000025  -0.000003  -0.000012
    13  C    0.000000   0.000000   0.000000   0.000000  -0.000000  -0.000001
    14  N   -0.000000  -0.000000  -0.000000  -0.000000   0.000000   0.000000
    15  C   -0.000000  -0.000000  -0.000000  -0.000010   0.000001   0.000014
    16  N    0.000000   0.000000   0.000000   0.000000  -0.000000  -0.000000
    17  C   -0.000000  -0.000001   0.000000  -0.000006  -0.000001   0.000038
    18  C   -0.000000  -0.000004  -0.000000  -0.000022   0.000024  -0.000366
    19  C   -0.000000   0.000057   0.000032  -0.000231  -0.000040   0.002081
    20  C    0.000002  -0.000078   0.000070  -0.000027   0.000885  -0.006657
    21  C   -0.000004   0.000173  -0.000040   0.000343  -0.000557   0.003956
    22  N    0.000001  -0.000097   0.000005  -0.000064   0.000105  -0.000218
    23  C   -0.000000   0.000018  -0.000001   0.000007   0.000004  -0.000379
    24  N    0.000000  -0.000000   0.000000  -0.000000   0.000000  -0.000000
    25  C    0.000671   0.001653  -0.005147   0.015461  -0.012672   0.039828
    26  C   -0.002645  -0.035975  -0.051420  -0.109451  -0.146985   0.014357
    27  H   -0.003295   0.000004   0.000006   0.000000   0.000000  -0.000000
    28  H   -0.005059   0.003150  -0.000531  -0.000002  -0.000002  -0.000001
    29  H    0.004761  -0.000515   0.003151  -0.000003  -0.000002  -0.000000
    30  H   -0.036405   0.005048  -0.006365   0.003148  -0.000631   0.000000
    31  H    0.579941  -0.006328   0.005047  -0.000702   0.003075   0.000001
    32  H   -0.006328   0.578265  -0.039169   0.005050  -0.006403  -0.000108
    33  H    0.005047  -0.039169   0.580197  -0.006037   0.005031  -0.000354
    34  H   -0.000702   0.005050  -0.006037   0.565948  -0.036534   0.000146
    35  H    0.003075  -0.006403   0.005031  -0.036534   0.558008   0.000140
    36  H    0.000001  -0.000108  -0.000354   0.000146   0.000140   0.579547
    37  H   -0.000000   0.000003   0.000002   0.000002   0.000002  -0.006011
    38  H   -0.000000   0.000000   0.000000   0.000000   0.000000   0.000000
    39  H    0.000000  -0.000000   0.000000   0.000000   0.000000  -0.000000
    40  H   -0.000000   0.000000  -0.000000   0.000000  -0.000000   0.000000
    41  H   -0.000000   0.000000  -0.000000  -0.000001  -0.000002   0.000018
    42  H    0.000000   0.000000   0.000001   0.001368   0.000896  -0.000163
              37         38         39         40         41         42
     1  C    0.000039  -0.000000  -0.000000  -0.000000   0.000004   0.000058
     2  C   -0.000098  -0.000004   0.000000   0.000000   0.000054   0.001126
     3  C   -0.003813  -0.000201   0.000000  -0.000001   0.002341   0.006118
     4  C    0.032362   0.000315  -0.000000  -0.000003   0.000793   0.080510
     5  C   -0.010982  -0.009613  -0.000000  -0.000221   0.054106  -0.020755
     6  C   -0.181583  -0.011804   0.000092   0.000543   0.010249   0.053495
     7  C    0.244882  -0.057277   0.001000  -0.000153   0.034274  -0.009666
     8  C    0.114765  -0.069174   0.001099  -0.016332  -0.008821   0.004990
     9  C    0.002832   0.026677  -0.007064  -0.014360  -0.088982   0.001434
    10  C   -0.034577   0.390676  -0.012590   0.016361   0.118448   0.007548
    11  C   -0.012472  -0.092316  -0.060041   0.020434   0.059047   0.000963
    12  C    0.001989  -0.038084  -0.009705  -0.002929  -0.000317   0.000376
    13  C    0.000358   0.002143  -0.008000   0.000173   0.000045   0.000016
    14  N   -0.000000  -0.000058   0.001834   0.000072  -0.000000  -0.000000
    15  C   -0.001294   0.005518   0.015384  -0.000045   0.004977  -0.000113
    16  N    0.000006   0.004612  -0.000078   0.000002  -0.000124   0.000001
    17  C   -0.006221   0.001417   0.256111   0.181363  -0.000558  -0.000117
    18  C   -0.014748  -0.009432   0.095262   0.240001   0.003866  -0.000099
    19  C   -0.024513   0.040677   0.028401  -0.001672  -0.033540  -0.001397
    20  C    0.091300   0.000732   0.015031  -0.143028  -0.035309   0.000398
    21  C    0.013364   0.001044   0.000766   0.010760   0.014718  -0.000926
    22  N   -0.001634  -0.000028   0.000003  -0.000209  -0.000783  -0.000008
    23  C    0.013958   0.000077  -0.000972   0.026270  -0.002588  -0.000109
    24  N   -0.000026   0.000002   0.000051   0.000239   0.000002   0.000000
    25  C    0.071302   0.063431  -0.001075  -0.000717   0.321661  -0.166274
    26  C   -0.001550   0.057374  -0.000027   0.000139  -0.154426   0.341523
    27  H   -0.000000  -0.000000   0.000000   0.000000  -0.000000  -0.000000
    28  H   -0.000000   0.000000   0.000000  -0.000000  -0.000000   0.000000
    29  H   -0.000000  -0.000000   0.000000   0.000000   0.000000   0.000000
    30  H    0.000000   0.000000   0.000000  -0.000000  -0.000000   0.000000
    31  H   -0.000000  -0.000000   0.000000  -0.000000  -0.000000   0.000000
    32  H    0.000003   0.000000  -0.000000   0.000000   0.000000   0.000000
    33  H    0.000002   0.000000   0.000000  -0.000000  -0.000000   0.000001
    34  H    0.000002   0.000000   0.000000   0.000000  -0.000001   0.001368
    35  H    0.000002   0.000000   0.000000  -0.000000  -0.000002   0.000896
    36  H   -0.006011   0.000000  -0.000000   0.000000   0.000018  -0.000163
    37  H    0.589499   0.000024   0.000000   0.000002  -0.000180   0.000018
    38  H    0.000024   0.525426  -0.000096   0.000013   0.000678   0.000001
    39  H    0.000000  -0.000096   0.517362  -0.004539  -0.000000   0.000000
    40  H    0.000002   0.000013  -0.004539   0.516996   0.000000   0.000000
    41  H   -0.000180   0.000678  -0.000000   0.000000   0.575608  -0.005190
    42  H    0.000018   0.000001   0.000000   0.000000  -0.005190   0.575200
 Mulliken charges:
               1
     1  C   -0.721282
     2  C   -0.236788
     3  C   -0.215388
     4  C   -0.660181
     5  C    0.777725
     6  C   -0.709778
     7  C   -0.572483
     8  C    0.284521
     9  C   -0.184173
    10  C   -0.500156
    11  C    1.618498
    12  C    0.867232
    13  C   -0.215977
    14  N   -0.459746
    15  C   -0.443640
    16  N   -0.461052
    17  C   -0.848649
    18  C   -0.620215
    19  C    0.721849
    20  C    1.275461
    21  C   -0.358200
    22  N   -0.384954
    23  C   -0.125836
    24  N   -0.455421
    25  C    0.006140
    26  C    0.261644
    27  H    0.147422
    28  H    0.147457
    29  H    0.146410
    30  H    0.139389
    31  H    0.141080
    32  H    0.146677
    33  H    0.144511
    34  H    0.159913
    35  H    0.167913
    36  H    0.128502
    37  H    0.122991
    38  H    0.167249
    39  H    0.171792
    40  H    0.170840
    41  H    0.129931
    42  H    0.128773
 Sum of Mulliken charges =  -0.00000
 Mulliken charges with hydrogens summed into heavy atoms:
               1
     1  C   -0.279993
     2  C    0.043681
     3  C    0.075800
     4  C   -0.332355
     5  C    0.777725
     6  C   -0.581276
     7  C   -0.449492
     8  C    0.284521
     9  C   -0.184173
    10  C   -0.332907
    11  C    1.618498
    12  C    0.867232
    13  C   -0.215977
    14  N   -0.459746
    15  C   -0.443640
    16  N   -0.461052
    17  C   -0.676858
    18  C   -0.449375
    19  C    0.721849
    20  C    1.275461
    21  C   -0.358200
    22  N   -0.384954
    23  C   -0.125836
    24  N   -0.455421
    25  C    0.136070
    26  C    0.390417
 Electronic spatial extent (au):  <R**2>=          13100.1269
 Charge=             -0.0000 electrons
 Dipole moment (field-independent basis, Debye):
    X=             -4.0428    Y=             -0.8737    Z=             -0.7362  Tot=              4.2011
 Quadrupole moment (field-independent basis, Debye-Ang):
   XX=           -170.2017   YY=           -193.6890   ZZ=           -151.2347
   XY=             17.8396   XZ=              3.8044   YZ=             -4.2609
 Traceless Quadrupole moment (field-independent basis, Debye-Ang):
   XX=              1.5068   YY=            -21.9806   ZZ=             20.4738
   XY=             17.8396   XZ=              3.8044   YZ=             -4.2609
 Octapole moment (field-independent basis, Debye-Ang**2):
  XXX=           -343.9579  YYY=            -60.3515  ZZZ=              2.7503  XYY=           -100.2152
  XXY=             52.7747  XXZ=             24.5224  XZZ=            -12.4375  YZZ=             -8.5612
  YYZ=            -11.0618  XYZ=             13.4583
 Hexadecapole moment (field-independent basis, Debye-Ang**3):
 XXXX=         -15622.1842 YYYY=          -5423.0087 ZZZZ=           -679.5793 XXXY=            656.7556
 XXXZ=            194.4709 YYYX=             54.2733 YYYZ=             70.7519 ZZZX=              4.2697
 ZZZY=            -24.8993 XXYY=          -3336.1353 XXZZ=          -2463.8127 YYZZ=           -823.7547
 XXYZ=            -66.7117 YYXZ=             13.2527 ZZXY=             33.1106
 N-N= 1.929518456113D+03 E-N=-6.327453679681D+03  KE= 1.056656304315D+03
 Unable to Open any file for archive entry.
 1\1\GINC-N2\FOpt\RB3LYP\6-31+G(d,p)\C22H16N4\HPCMGAC13\09-Aug-2025\0\\
 # opt b3lyp/6-31+g(d,p) geom=connectivity\\Title Card Required\\0,1\C,
 5.7902282398,3.5934729041,-2.2965392576\C,4.3475485838,3.907991599,-1.
 8854555067\C,3.5114340451,2.6500561597,-1.6118508467\C,2.0727345564,2.
 9785451107,-1.1978097941\C,1.1497477466,1.804648768,-0.9216308171\C,1.
 5764257773,0.4696975905,-0.9470246846\C,0.6978336028,-0.5748538601,-0.
 6598440442\C,-0.6447003922,-0.3167372156,-0.3473710121\C,-1.5973641762
 ,-1.4333061388,-0.119267921\C,-2.6773623705,-1.5585041832,-0.949707064
 3\C,-3.5951476844,-2.6669019025,-0.8839064853\C,-4.6976363254,-2.74469
 98176,-1.7302269344\C,-5.5887973058,-3.8591970576,-1.7040337669\N,-6.3
 114738501,-4.7727267336,-1.6758045174\C,-5.0014242084,-1.7126225909,-2
 .6680865787\N,-5.2425254473,-0.8653351324,-3.430624765\C,-3.3041995423
 ,-3.7206795295,0.0619206585\C,-2.2542872747,-3.6118665147,0.9104501996
 \C,-1.4039771617,-2.4336206126,0.9363605419\C,-0.5171106373,-2.2879819
 673,1.9991397778\C,0.2465595137,-1.1223853234,2.3196371666\N,0.8769576
 538,-0.227781971,2.7193161969\C,-0.364160154,-3.3334418223,2.967251969
 9\N,-0.2251529157,-4.182177147,3.7527030662\C,-1.0865007995,1.01737653
 32,-0.3433242155\C,-0.1995847113,2.0535744591,-0.6165099775\H,6.359370
 7177,4.5099820611,-2.4843949264\H,6.3124584166,3.0324483919,-1.5126339
 552\H,5.8194168462,2.9903593694,-3.2117206871\H,3.8632098244,4.5002286
 435,-2.6740589456\H,4.3528728908,4.540904734,-0.9874522149\H,4.0002552
 627,2.0616140286,-0.8235556345\H,3.5046813196,2.0209436079,-2.51283663
 49\H,1.6099992601,3.6014452854,-1.9762946274\H,2.0975351876,3.60857634
 06,-0.2971405161\H,2.6062005077,0.2313206387,-1.1888848673\H,1.0596680
 655,-1.5990444124,-0.6923456469\H,-2.8230883106,-0.8163273056,-1.72776
 49187\H,-3.9463939161,-4.5942883708,0.0968040765\H,-2.0661792175,-4.39
 94107529,1.6319137297\H,-2.1215697073,1.2412833938,-0.1013834083\H,-0.
 5589019099,3.0794207425,-0.5893122111\\Version=ES64L-G16RevC.02\State=
 1-A\HF=-1066.9412019\RMSD=5.908e-09\RMSF=4.852e-06\Dipole=1.2480992,0.
 9337283,-0.5497936\Quadrupole=-2.8260897,10.6423907,-7.816301,-3.06534
 33,-18.4280576,1.9492142\PG=C01 [X(C22H16N4)]\\@
 The archive entry for this job was punched.


 I HAVE NOT FAILED, I HAVE ONLY DISCOVERED 10,000
 WAYS THAT DIDN'T WORK.  -- THOMAS A. EDISON
 Job cpu time:       0 days  9 hours  9 minutes 46.7 seconds.
 Elapsed time:       0 days  0 hours 36 minutes  9.3 seconds.
 File lengths (MBytes):  RWF=    233 Int=      0 D2E=      0 Chk=     35 Scr=      2
 Normal termination of Gaussian 16 at Sat Aug  9 16:37:00 2025.
