 Entering Gaussian System, Link 0=g16
 Input=M1446E.gjf
 Output=M1446E.log
 Initial command:
 /hpc/softwares/Gaussian/g16/l1.exe "/hpc/home/hpcmgac13/pbs.13166.admin1.x8z/Gau-2951139.inp" -scrdir="/hpc/home/hpcmgac13/pbs.13166.admin1.x8z/"
 Default linda workers: n2
 Default is to use   8 SMP processors on each worker.
 Entering Link 1 = /hpc/softwares/Gaussian/g16/l1.exe PID=   2951140.
  
 Copyright (c) 1988-2021, Gaussian, Inc.  All Rights Reserved.
  
 This is part of the Gaussian(R) 16 program.  It is based on
 the Gaussian(R) 09 system (copyright 2009, Gaussian, Inc.),
 the Gaussian(R) 03 system (copyright 2003, Gaussian, Inc.),
 the Gaussian(R) 98 system (copyright 1998, Gaussian, Inc.),
 the Gaussian(R) 94 system (copyright 1995, Gaussian, Inc.),
 the Gaussian 92(TM) system (copyright 1992, Gaussian, Inc.),
 the Gaussian 90(TM) system (copyright 1990, Gaussian, Inc.),
 the Gaussian 88(TM) system (copyright 1988, Gaussian, Inc.),
 the Gaussian 86(TM) system (copyright 1986, Carnegie Mellon
 University), and the Gaussian 82(TM) system (copyright 1983,
 Carnegie Mellon University). Gaussian is a federally registered
 trademark of Gaussian, Inc.
  
 This software contains proprietary and confidential information,
 including trade secrets, belonging to Gaussian, Inc.
  
 This software is provided under written license and may be
 used, copied, transmitted, or stored only in accord with that
 written license.
  
 The following legend is applicable only to US Government
 contracts under FAR:
  
                    RESTRICTED RIGHTS LEGEND
  
 Use, reproduction and disclosure by the US Government is
 subject to restrictions as set forth in subparagraphs (a)
 and (c) of the Commercial Computer Software - Restricted
 Rights clause in FAR 52.227-19.
  
 Gaussian, Inc.
 340 Quinnipiac St., Bldg. 40, Wallingford CT 06492
  
  
 ---------------------------------------------------------------
 Warning -- This program may not be used in any manner that
 competes with the business of Gaussian, Inc. or will provide
 assistance to any competitor of Gaussian, Inc.  The licensee
 of this program is prohibited from giving any competitor of
 Gaussian, Inc. access to this program.  By using this program,
 the user acknowledges that Gaussian, Inc. is engaged in the
 business of creating and licensing software in the field of
 computational chemistry and represents and warrants to the
 licensee that it is not a competitor of Gaussian, Inc. and that
 it will not use this program in any manner prohibited above.
 ---------------------------------------------------------------
  

 Cite this work as:
 Gaussian 16, Revision C.02,
 M. J. Frisch, G. W. Trucks, H. B. Schlegel, G. E. Scuseria, 
 M. A. Robb, J. R. Cheeseman, G. Scalmani, V. Barone, 
 G. A. Petersson, H. Nakatsuji, X. Li, M. Caricato, A. V. Marenich, 
 J. Bloino, B. G. Janesko, R. Gomperts, B. Mennucci, H. P. Hratchian, 
 J. V. Ortiz, A. F. Izmaylov, J. L. Sonnenberg, D. Williams-Young, 
 F. Ding, F. Lipparini, F. Egidi, J. Goings, B. Peng, A. Petrone, 
 T. Henderson, D. Ranasinghe, V. G. Zakrzewski, J. Gao, N. Rega, 
 G. Zheng, W. Liang, M. Hada, M. Ehara, K. Toyota, R. Fukuda, 
 J. Hasegawa, M. Ishida, T. Nakajima, Y. Honda, O. Kitao, H. Nakai, 
 T. Vreven, K. Throssell, J. A. Montgomery, Jr., J. E. Peralta, 
 F. Ogliaro, M. J. Bearpark, J. J. Heyd, E. N. Brothers, K. N. Kudin, 
 V. N. Staroverov, T. A. Keith, R. Kobayashi, J. Normand, 
 K. Raghavachari, A. P. Rendell, J. C. Burant, S. S. Iyengar, 
 J. Tomasi, M. Cossi, J. M. Millam, M. Klene, C. Adamo, R. Cammi, 
 J. W. Ochterski, R. L. Martin, K. Morokuma, O. Farkas, 
 J. B. Foresman, and D. J. Fox, Gaussian, Inc., Wallingford CT, 2019.
 
 ******************************************
 Gaussian 16:  ES64L-G16RevC.02  7-Dec-2021
                12-Aug-2025 
 ******************************************
 SetLPE:    new flags="-opt 'Tsnet.Node.lindarsharg: ssh'  -nodelist 'n2.head.cm.mguif.local' -env GAUSS_MDEF=2147483648 -env GAUSS_EXEDIR="/hpc/softwares/Gaussian/g16/bsd:/hpc/softwares/Gaussian/g16""
 Will use up to    1 processors via Linda.
 ----------------------------------------------------------
 # td=(50-50,nstates=3) b3lyp/6-31+g(d,p) geom=connectivity
 ----------------------------------------------------------
 1/38=1,57=2,172=1/1;
 2/12=2,17=6,18=5,40=1/2;
 3/5=1,6=6,7=111,11=9,25=1,30=1,74=-5/1,2,3,8;
 4//1;
 5/5=2,38=5/2;
 8/6=1,10=2,108=3/1;
 9/41=3,42=1,48=2,70=2/14;
 6/7=2,8=2,9=2,10=2/1;
 99/5=1,9=1/99;
 -------------------
 Title Card Required
 -------------------
 Symbolic Z-matrix:
 Charge =  0 Multiplicity = 1
 C                    -2.90199  -2.72268  -0.76665 
 O                    -3.4368   -1.62202  -0.04087 
 C                    -2.68226  -0.49078   0.08729 
 C                    -3.27077   0.55312   0.8215 
 C                    -2.57554   1.74117   0.99927 
 C                    -1.29321   1.91465   0.45678 
 C                    -0.70921   0.87804  -0.26892 
 C                     0.69317   0.98493  -0.88378 
 C                     1.21972   2.36067  -0.85363 
 N                     1.65151   3.43877  -0.8356 
 C                     1.71025   0.02105  -0.25434 
 C                     2.44599  -0.84748  -1.06721 
 C                     3.37787  -1.72647  -0.5058 
 C                     3.58245  -1.73851   0.87493 
 C                     2.85112  -0.86914   1.69145 
 C                     1.9189    0.00429   1.13088 
 C                    -1.40495  -0.32905  -0.45595 
 H                    -3.6664   -3.49965  -0.73255 
 H                    -2.70388  -2.45346  -1.81183 
 H                    -1.98075  -3.09737  -0.30349 
 H                    -4.26356   0.40632   1.23371 
 H                    -3.03152   2.54906   1.5639 
 H                    -0.76775   2.8536    0.59511 
 H                     0.6109    0.72376  -1.94699 
 H                     2.29703  -0.83602  -2.14428 
 H                     3.94211  -2.39613  -1.1483 
 H                     4.30681  -2.41844   1.31353 
 H                     3.0065   -0.87201   2.76633 
 H                     1.34931   0.6725    1.77042 
 H                    -0.93421  -1.13026  -1.01422 
 
                          Input orientation:                          
 ---------------------------------------------------------------------
 Center     Atomic      Atomic             Coordinates (Angstroms)
 Number     Number       Type             X           Y           Z
 ---------------------------------------------------------------------
      1          6           0       -2.901993   -2.722679   -0.766647
      2          8           0       -3.436803   -1.622015   -0.040871
      3          6           0       -2.682261   -0.490782    0.087294
      4          6           0       -3.270773    0.553118    0.821500
      5          6           0       -2.575543    1.741167    0.999272
      6          6           0       -1.293206    1.914646    0.456777
      7          6           0       -0.709214    0.878036   -0.268924
      8          6           0        0.693173    0.984933   -0.883783
      9          6           0        1.219723    2.360674   -0.853634
     10          7           0        1.651509    3.438767   -0.835597
     11          6           0        1.710252    0.021053   -0.254344
     12          6           0        2.445986   -0.847478   -1.067212
     13          6           0        3.377874   -1.726467   -0.505795
     14          6           0        3.582451   -1.738512    0.874928
     15          6           0        2.851120   -0.869144    1.691447
     16          6           0        1.918901    0.004294    1.130875
     17          6           0       -1.404947   -0.329051   -0.455952
     18          1           0       -3.666402   -3.499653   -0.732554
     19          1           0       -2.703877   -2.453457   -1.811829
     20          1           0       -1.980747   -3.097375   -0.303490
     21          1           0       -4.263558    0.406317    1.233713
     22          1           0       -3.031516    2.549059    1.563901
     23          1           0       -0.767750    2.853596    0.595105
     24          1           0        0.610896    0.723761   -1.946990
     25          1           0        2.297025   -0.836016   -2.144284
     26          1           0        3.942110   -2.396126   -1.148297
     27          1           0        4.306811   -2.418441    1.313527
     28          1           0        3.006497   -0.872005    2.766331
     29          1           0        1.349310    0.672499    1.770417
     30          1           0       -0.934207   -1.130259   -1.014216
 ---------------------------------------------------------------------
                    Distance matrix (angstroms):
                    1          2          3          4          5
     1  C    0.000000
     2  O    1.422756   0.000000
     3  C    2.399763   1.365814   0.000000
     4  C    3.659106   2.345731   1.405394   0.000000
     5  C    4.811545   3.624177   2.413439   1.387951   0.000000
     6  C    5.058631   4.165409   2.802155   2.428488   1.403134
     7  C    4.245133   3.707021   2.427647   2.802888   2.415885
     8  C    5.165784   4.956146   3.809761   4.336741   3.847374
     9  C    6.544967   6.181070   4.923579   5.122293   4.268617
    10  N    7.661759   7.220389   5.922385   5.941532   4.910861
    11  C    5.391041   5.407164   4.435410   5.123587   4.785226
    12  C    5.675174   6.021668   5.268684   6.181443   6.015579
    13  C    6.363742   6.831317   6.213204   7.152813   7.052155
    14  C    6.761018   7.079702   6.436133   7.226417   7.074215
    15  C    6.525038   6.565494   5.773627   6.344857   6.061477
    16  C    5.854741   5.718517   4.743928   5.227776   4.820174
    17  C    2.840270   2.443867   1.397428   2.427223   2.788149
    18  H    1.090492   2.014117   3.270167   4.358504   5.626312
    19  H    1.097331   2.089203   2.731159   4.036742   5.051102
    20  H    1.097090   2.089439   2.727483   4.031857   5.046034
    21  H    3.955492   2.534210   2.149317   1.084939   2.164759
    22  H    5.765367   4.487472   3.397496   2.142938   1.086005
    23  H    6.124068   5.249705   3.886912   3.407136   2.160779
    24  H    5.060785   5.051715   4.056884   4.770850   4.457462
    25  H    5.699752   6.157834   5.467396   6.459562   6.345529
    26  H    6.862510   7.501600   7.002807   8.037650   8.013055
    27  H    7.509097   7.901408   7.353002   8.154265   8.047850
    28  H    7.128617   7.068169   6.299566   6.724393   6.411734
    29  H    6.003125   5.608247   4.521028   4.718036   4.140192
    30  H    2.543477   2.729874   2.162856   3.415136   3.872106
                    6          7          8          9         10
     6  C    0.000000
     7  C    1.393646   0.000000
     8  C    2.570441   1.534981   0.000000
     9  C    2.868960   2.502179   1.473373   0.000000
    10  N    3.558725   3.528665   2.634773   1.161486   0.000000
    11  C    3.621070   2.566797   1.536134   2.464466   3.467286
    12  C    4.892180   3.683741   2.542387   3.441159   4.365402
    13  C    6.000270   4.852199   3.834343   4.635011   5.456074
    14  C    6.106754   5.154911   4.342597   5.037235   5.784345
    15  C    5.142892   4.423988   3.837466   4.423869   5.136450
    16  C    3.797563   3.103200   2.553999   3.159059   3.966625
    17  C    2.424817   1.405732   2.512310   3.779109   4.866468
    18  H    6.030025   5.303214   6.256219   7.631010   8.742566
    19  H    5.120243   4.178287   4.921762   6.283998   7.391936
    20  H    5.115767   4.173953   4.914451   6.351060   7.496504
    21  H    3.420771   3.887647   5.421049   6.184084   6.961739
    22  H    2.156368   3.397742   4.723447   4.894180   5.336656
    23  H    1.084834   2.157037   2.795229   2.508359   2.870914
    24  H    3.289667   2.140653   1.097902   2.060481   3.112768
    25  H    5.217415   3.936041   2.734421   3.611812   4.516982
    26  H    6.969042   5.755714   4.696501   5.488658   6.276194
    27  H    7.132311   6.207368   5.428582   6.088238   6.780579
    28  H    5.620223   5.107047   4.703511   5.171743   5.778636
    29  H    3.201792   2.904940   2.751892   3.122879   3.812463
    30  H    3.400610   2.153911   2.671968   4.105096   5.252983
                   11         12         13         14         15
    11  C    0.000000
    12  C    1.398715   0.000000
    13  C    2.428583   1.398651   0.000000
    14  C    2.806502   2.420207   1.395848   0.000000
    15  C    2.424899   2.788333   2.416681   1.399053   0.000000
    16  C    1.400945   2.415558   2.793354   2.422866   1.395051
    17  C    3.141287   3.933458   4.983034   5.350884   4.797617
    18  H    6.444569   6.671380   7.267560   7.630956   7.434612
    19  H    5.294667   5.445614   6.262742   6.873698   6.755811
    20  H    4.832234   5.024069   5.534902   5.846738   5.682581
    21  H    6.168399   7.203071   8.121954   8.141798   7.242580
    22  H    5.672847   6.961483   7.977722   7.912175   6.804835
    23  H    3.858155   5.175843   6.274963   6.331667   5.306315
    24  H    2.137155   2.571061   3.966967   4.780810   4.560063
    25  H    2.156558   1.087384   2.155408   3.403301   3.875687
    26  H    3.409266   2.154825   1.086100   2.157603   3.403833
    27  H    3.892489   3.405659   2.156776   1.085988   2.159208
    28  H    3.406212   3.874381   3.402181   2.158695   1.086060
    29  H    2.157387   3.400760   3.879594   3.406141   2.153679
    30  H    2.982631   3.392415   4.382693   4.933461   4.660203
                   16         17         18         19         20
    16  C    0.000000
    17  C    3.698257   0.000000
    18  H    6.851688   3.904280   0.000000
    19  H    6.005841   2.835264   1.784885   0.000000
    20  H    5.185076   2.831679   1.785317   1.792382   0.000000
    21  H    6.196370   3.401087   4.413548   4.459399   4.455342
    22  H    5.583007   3.874152   6.501054   6.043845   6.039328
    23  H    3.952678   3.411742   7.108350   6.140581   6.139454
    24  H    3.420784   2.719417   6.132484   4.593550   4.900896
    25  H    3.402318   4.100253   6.682096   5.266466   5.177026
    26  H    3.879435   5.774354   7.699355   6.679274   6.023760
    27  H    3.406629   6.334097   8.302264   7.675860   6.527563
    28  H    2.150693   5.489877   7.979618   7.487918   6.264876
    29  H    1.086253   3.680456   6.987781   6.247593   5.440801
    30  H    3.745511   1.084061   3.627430   2.349207   2.338787
                   21         22         23         24         25
    21  H    0.000000
    22  H    2.493651   0.000000
    23  H    4.314820   2.481118   0.000000
    24  H    5.829060   5.378218   3.591533   0.000000
    25  H    7.483014   7.321388   5.523616   2.305398   0.000000
    26  H    8.992255   8.968965   7.265109   4.633421   2.476336
    27  H    9.024237   8.865088   7.352664   5.845014   4.301135
    28  H    7.539014   7.043232   5.730555   5.522750   4.961732
    29  H    5.644749   4.770300   3.258909   3.790382   4.301007
    30  H    4.301026   4.958102   4.299851   2.587431   3.435767
                   26         27         28         29         30
    26  H    0.000000
    27  H    2.488791   0.000000
    28  H    4.303792   2.488558   0.000000
    29  H    4.965678   4.302263   2.474592   0.000000
    30  H    5.039729   5.877590   5.467027   4.027228   0.000000
 Stoichiometry    C15H13NO
 Framework group  C1[X(C15H13NO)]
 Deg. of freedom    84
 Full point group                 C1      NOp   1
 Largest Abelian subgroup         C1      NOp   1
 Largest concise Abelian subgroup C1      NOp   1
                         Standard orientation:                         
 ---------------------------------------------------------------------
 Center     Atomic      Atomic             Coordinates (Angstroms)
 Number     Number       Type             X           Y           Z
 ---------------------------------------------------------------------
      1          6           0       -2.901993   -2.722679   -0.766647
      2          8           0       -3.436803   -1.622015   -0.040871
      3          6           0       -2.682261   -0.490782    0.087294
      4          6           0       -3.270773    0.553118    0.821500
      5          6           0       -2.575543    1.741167    0.999272
      6          6           0       -1.293206    1.914646    0.456777
      7          6           0       -0.709214    0.878036   -0.268924
      8          6           0        0.693173    0.984933   -0.883783
      9          6           0        1.219723    2.360674   -0.853634
     10          7           0        1.651509    3.438767   -0.835597
     11          6           0        1.710252    0.021053   -0.254344
     12          6           0        2.445986   -0.847478   -1.067212
     13          6           0        3.377874   -1.726467   -0.505795
     14          6           0        3.582451   -1.738512    0.874928
     15          6           0        2.851120   -0.869144    1.691447
     16          6           0        1.918901    0.004294    1.130875
     17          6           0       -1.404947   -0.329051   -0.455952
     18          1           0       -3.666402   -3.499653   -0.732554
     19          1           0       -2.703877   -2.453457   -1.811829
     20          1           0       -1.980747   -3.097375   -0.303490
     21          1           0       -4.263558    0.406317    1.233713
     22          1           0       -3.031516    2.549059    1.563901
     23          1           0       -0.767750    2.853596    0.595105
     24          1           0        0.610896    0.723761   -1.946990
     25          1           0        2.297025   -0.836016   -2.144284
     26          1           0        3.942110   -2.396126   -1.148297
     27          1           0        4.306811   -2.418441    1.313527
     28          1           0        3.006497   -0.872005    2.766331
     29          1           0        1.349310    0.672499    1.770417
     30          1           0       -0.934207   -1.130259   -1.014216
 ---------------------------------------------------------------------
 Rotational constants (GHZ):           0.6402168           0.3348796           0.2576923
 Standard basis: 6-31+G(d,p) (6D, 7F)
 There are   388 symmetry adapted cartesian basis functions of A   symmetry.
 There are   388 symmetry adapted basis functions of A   symmetry.
   388 basis functions,   635 primitive gaussians,   388 cartesian basis functions
    59 alpha electrons       59 beta electrons
       nuclear repulsion energy      1076.9877859242 Hartrees.
 NAtoms=   30 NActive=   30 NUniq=   30 SFac= 1.00D+00 NAtFMM=   60 NAOKFM=F Big=F
 Integral buffers will be    131072 words long.
 Regular integral format.
 Two-electron integral symmetry is turned on.
 One-electron integrals computed using PRISM.
 NBasis=   388 RedAO= T EigKep=  1.20D-06  NBF=   388
 NBsUse=   387 1.00D-06 EigRej=  8.54D-07 NBFU=   387
 ExpMin= 4.38D-02 ExpMax= 5.48D+03 ExpMxC= 8.25D+02 IAcc=3 IRadAn=         5 AccDes= 0.00D+00
 Harris functional with IExCor=  402 and IRadAn=       5 diagonalized for initial guess.
 HarFok:  IExCor=  402 AccDes= 0.00D+00 IRadAn=         5 IDoV= 1 UseB2=F ITyADJ=14
 ICtDFT=  3500011 ScaDFX=  1.000000  1.000000  1.000000  1.000000
 FoFCou: FMM=F IPFlag=           0 FMFlag=      100000 FMFlg1=           0
         NFxFlg=           0 DoJE=T BraDBF=F KetDBF=T FulRan=T
         wScrn=  0.000000 ICntrl=       500 IOpCl=  0 I1Cent=   200000004 NGrid=           0
         NMat0=    1 NMatS0=      1 NMatT0=    0 NMatD0=    1 NMtDS0=    0 NMtDT0=    0
 Petite list used in FoFCou.
 Requested convergence on RMS density matrix=1.00D-08 within 128 cycles.
 Requested convergence on MAX density matrix=1.00D-06.
 Requested convergence on             energy=1.00D-06.
 No special actions if energy rises.
 SCF Done:  E(RB3LYP) =  -709.417075752     A.U. after   16 cycles
            NFock= 16  Conv=0.39D-08     -V/T= 2.0097
 DoSCS=F DFT=T ScalE2(SS,OS)=  1.000000  1.000000
 ExpMin= 4.38D-02 ExpMax= 5.48D+03 ExpMxC= 8.25D+02 IAcc=3 IRadAn=         5 AccDes= 0.00D+00
 HarFok:  IExCor=  205 AccDes= 0.00D+00 IRadAn=         5 IDoV=-2 UseB2=F ITyADJ=14
 ICtDFT= 12500011 ScaDFX=  1.000000  1.000000  1.000000  1.000000
 Range of M.O.s used for correlation:    18   387
 NBasis=   388 NAE=    59 NBE=    59 NFC=    17 NFV=     0
 NROrb=    370 NOA=    42 NOB=    42 NVA=   328 NVB=   328

 **** Warning!!: The largest alpha MO coefficient is  0.20491179D+03

 Orbital symmetries:
       Occupied  (A) (A) (A) (A) (A) (A) (A) (A) (A) (A) (A) (A)
                 (A) (A) (A) (A) (A) (A) (A) (A) (A) (A) (A) (A)
                 (A) (A) (A) (A) (A) (A) (A) (A) (A) (A) (A) (A)
                 (A) (A) (A) (A) (A) (A) (A) (A) (A) (A) (A) (A)
                 (A) (A) (A) (A) (A) (A) (A) (A) (A) (A) (A)
       Virtual   (A) (A) (A) (A) (A) (A) (A) (A) (A) (A) (A) (A)
                 (A) (A) (A) (A) (A) (A) (A) (A) (A) (A) (A) (A)
                 (A) (A) (A) (A) (A) (A) (A) (A) (A) (A) (A) (A)
                 (A) (A) (A) (A) (A) (A) (A) (A) (A) (A) (A) (A)
                 (A) (A) (A) (A) (A) (A) (A) (A) (A) (A) (A) (A)
                 (A) (A) (A) (A) (A) (A) (A) (A) (A) (A) (A) (A)
                 (A) (A) (A) (A) (A) (A) (A) (A) (A) (A) (A) (A)
                 (A) (A) (A) (A) (A) (A) (A) (A) (A) (A) (A) (A)
                 (A) (A) (A) (A) (A) (A) (A) (A) (A) (A) (A) (A)
                 (A) (A) (A) (A) (A) (A) (A) (A) (A) (A) (A) (A)
                 (A) (A) (A) (A) (A) (A) (A) (A) (A) (A) (A) (A)
                 (A) (A) (A) (A) (A) (A) (A) (A) (A) (A) (A) (A)
                 (A) (A) (A) (A) (A) (A) (A) (A) (A) (A) (A) (A)
                 (A) (A) (A) (A) (A) (A) (A) (A) (A) (A) (A) (A)
                 (A) (A) (A) (A) (A) (A) (A) (A) (A) (A) (A) (A)
                 (A) (A) (A) (A) (A) (A) (A) (A) (A) (A) (A) (A)
                 (A) (A) (A) (A) (A) (A) (A) (A) (A) (A) (A) (A)
                 (A) (A) (A) (A) (A) (A) (A) (A) (A) (A) (A) (A)
                 (A) (A) (A) (A) (A) (A) (A) (A) (A) (A) (A) (A)
                 (A) (A) (A) (A) (A) (A) (A) (A) (A) (A) (A) (A)
                 (A) (A) (A) (A) (A) (A) (A) (A) (A) (A) (A) (A)
                 (A) (A) (A) (A) (A) (A) (A) (A) (A) (A) (A) (A)
                 (A) (A) (A) (A) (A) (A) (A) (A) (A) (A) (A) (A)
                 (A) (A) (A) (A) (A) (A) (A) (A) (A) (A) (A) (A)
                 (A) (A) (A) (A) (A) (A) (A) (A) (A) (A) (A) (A)
                 (A) (A) (A) (A) (A) (A) (A) (A) (A) (A) (A) (A)
                 (A) (A) (A) (A) (A) (A) (A) (A) (A) (A) (A) (A)
                 (A) (A) (A) (A)
    24 initial guesses have been made.
 Convergence on wavefunction:    0.001000000000000
 Iteration     1 Dimension    24 NMult     0 NNew     24
 CISAX will form    24 AO SS matrices at one time.
 New state      1 was old state      4
 New state      2 was old state     16
 New state      3 was old state      8
 New state      4 was old state     24
 New state      5 was old state     10
 New state      6 was old state     18
 New state      7 was old state      1
 New state      8 was old state      2
 New state      9 was old state      5
 New state     10 was old state      6
 New state     11 was old state     12
 New state     12 was old state     11
 Vector   4 SDiff=1.02D+00 TDiff=8.42D+00 assumed to be singlet.
 Vector   5 SDiff=4.45D-01 TDiff=7.87D+00 assumed to be singlet.
 Vector   6 SDiff=1.09D+00 TDiff=4.83D+00 assumed to be singlet.
 Vector  10 SDiff=1.01D+00 TDiff=8.03D+00 assumed to be singlet.
 Vector  11 SDiff=4.39D-01 TDiff=7.45D+00 assumed to be singlet.
 Vector  12 SDiff=3.88D+00 TDiff=1.77D+00 assumed to be triplet.
 Iteration     2 Dimension    36 NMult    24 NNew     12
 New state      1 was old state      2
 New state      2 was old state      3
 New state      3 was old state      1
 New state      4 was old state      7
 New state      5 was old state     12
 New state      6 was old state      9
 Iteration     3 Dimension    48 NMult    36 NNew     12
 New state      4 was old state      5
 New state      5 was old state      4
 Iteration     4 Dimension    60 NMult    48 NNew     12
 Iteration     5 Dimension    72 NMult    60 NNew     12
 Iteration     6 Dimension    80 NMult    72 NNew      8
 Iteration     7 Dimension    84 NMult    80 NNew      4
 ***********************************************************************
 Excited states from <AA,BB:AA,BB> singles matrix:
 ***********************************************************************
 
 Ground to excited state transition densities written to RWF  633
 Ground to excited state transition electric dipole moments (Au):
       state          X           Y           Z        Dip. S.      Osc.
         1         0.0000      0.0000      0.0000      0.0000      0.0000
         2        -0.0000      0.0000     -0.0000      0.0000      0.0000
         3        -0.0000     -0.0000     -0.0000      0.0000      0.0000
         4         0.5303     -0.1573     -0.2967      0.3940      0.0470
         5         0.0523      0.1809     -0.0001      0.0355      0.0043
         6        -0.0079      0.2222      0.0250      0.0501      0.0062
 Ground to excited state transition velocity dipole moments (Au):
       state          X           Y           Z        Dip. S.      Osc.
         1         0.0000      0.0000     -0.0000      0.0000      0.0000
         2        -0.0000     -0.0000      0.0000      0.0000      0.0000
         3         0.0000      0.0000     -0.0000      0.0000      0.0000
         4        -0.0959      0.0286      0.0535      0.0129      0.0480
         5        -0.0091     -0.0324     -0.0005      0.0011      0.0042
         6         0.0010     -0.0415     -0.0044      0.0017      0.0063
 Ground to excited state transition magnetic dipole moments (Au):
       state          X           Y           Z
         1         0.0000     -0.0000      0.0000
         2        -0.0000      0.0000      0.0000
         3         0.0000     -0.0000      0.0000
         4         0.2024      0.0519      0.3977
         5        -0.0071     -0.1170      0.1551
         6         0.0395     -0.0089      0.1555
 Ground to excited state transition velocity quadrupole moments (Au):
       state          XX          YY          ZZ          XY          XZ          YZ
         1        -0.0000     -0.0000      0.0000     -0.0000      0.0000     -0.0000
         2         0.0000      0.0000     -0.0000      0.0000     -0.0000      0.0000
         3        -0.0000     -0.0000      0.0000      0.0000      0.0000     -0.0000
         4         0.5122      0.0485     -0.0664     -0.1591     -0.2540      0.0837
         5         0.0693     -0.0003     -0.0125      0.1230      0.0582     -0.0060
         6         0.0858      0.0251     -0.0606      0.1589      0.0303     -0.0167
 <0|del|b> * <b|rxdel|0> + <0|del|b> * <b|delr+rdel|0>
 Rotatory Strengths (R) in cgs (10**-40 erg-esu-cm/Gauss)
       state          XX          YY          ZZ    R(velocity)    E-M Angle
         1        -0.0000     -0.0000     -0.0000     -0.0000       90.00
         2         0.0000     -0.0000      0.0000     -0.0000       90.00
         3        -0.0000      0.0000      0.0000     -0.0000       90.00
         4        42.5159      4.6138    -33.9344      4.3985       86.25
         5        10.8090      0.2027      3.7387      4.9168       54.70
         6         0.4945      0.0697     -1.5925     -0.3428       92.30
 1/2[<0|r|b>*<b|rxdel|0> + (<0|rxdel|b>*<b|r|0>)*]
 Rotatory Strengths (R) in cgs (10**-40 erg-esu-cm/Gauss)
       state          XX          YY          ZZ     R(length)
         1        -0.0000      0.0000     -0.0000     -0.0000
         2        -0.0000     -0.0000      0.0000      0.0000
         3         0.0000     -0.0000      0.0000     -0.0000
         4       -75.8924      5.7779     83.4452      4.4436
         5         0.2632     14.9693      0.0143      5.0822
         6         0.2202      1.3998     -2.7442     -0.3747
  1/2[<0|del|b>*<b|r|0> + (<0|r|b>*<b|del|0>)*] (Au)
       state          X           Y           Z        Dip. S.   Osc.(frdel)
         1         0.0000      0.0000     -0.0000     -0.0000     -0.0000
         2         0.0000     -0.0000     -0.0000      0.0000      0.0000
         3        -0.0000     -0.0000      0.0000      0.0000      0.0000
         4        -0.0509     -0.0045     -0.0159      0.0712      0.0475
         5        -0.0005     -0.0059      0.0000      0.0063      0.0042
         6        -0.0000     -0.0092     -0.0001      0.0093      0.0062

 Excitation energies and oscillator strengths:
 
 Excited State   1:      Triplet-A      3.6526 eV  339.44 nm  f=0.0000  <S**2>=2.000
      56 -> 61         0.19918
      56 -> 62         0.13722
      58 -> 61         0.30205
      58 -> 62         0.19044
      59 -> 60         0.22987
      59 -> 61        -0.23446
      59 -> 63        -0.17124
      59 -> 64         0.36792
 This state for optimization and/or second-order correction.
 Total Energy, E(TD-HF/TD-DFT) =  -709.282846057    
 Copying the excited state density for this state as the 1-particle RhoCI density.
 
 Excited State   2:      Triplet-A      3.7002 eV  335.07 nm  f=0.0000  <S**2>=2.000
      56 -> 60        -0.32436
      56 -> 61        -0.12351
      57 -> 60        -0.12115
      57 -> 61         0.23263
      57 -> 62        -0.34110
      57 -> 64         0.12021
      58 -> 60         0.36420
      58 -> 61         0.13556
 
 Excited State   3:      Triplet-A      4.0664 eV  304.90 nm  f=0.0000  <S**2>=2.000
      59 -> 61         0.50768
      59 -> 62         0.38371
      59 -> 63        -0.18631
      59 -> 64         0.10415
 
 Excited State   4:      Singlet-A      4.8661 eV  254.79 nm  f=0.0470  <S**2>=0.000
      56 -> 64        -0.10767
      58 -> 60        -0.12409
      58 -> 64        -0.17555
      59 -> 60        -0.13273
      59 -> 61         0.50571
      59 -> 62         0.36646
 
 Excited State   5:      Singlet-A      4.9288 eV  251.55 nm  f=0.0043  <S**2>=0.000
      59 -> 60         0.66189
      59 -> 61         0.22551
 
 Excited State   6:      Singlet-A      5.0365 eV  246.17 nm  f=0.0062  <S**2>=0.000
      59 -> 60         0.18320
      59 -> 61        -0.36192
      59 -> 62         0.56892
 SavETr:  write IOETrn=   770 NScale= 10 NData=  16 NLR=1 NState=    6 LETran=     118.

 **********************************************************************

            Population analysis using the SCF Density.

 **********************************************************************

 Orbital symmetries:
       Occupied  (A) (A) (A) (A) (A) (A) (A) (A) (A) (A) (A) (A)
                 (A) (A) (A) (A) (A) (A) (A) (A) (A) (A) (A) (A)
                 (A) (A) (A) (A) (A) (A) (A) (A) (A) (A) (A) (A)
                 (A) (A) (A) (A) (A) (A) (A) (A) (A) (A) (A) (A)
                 (A) (A) (A) (A) (A) (A) (A) (A) (A) (A) (A)
       Virtual   (A) (A) (A) (A) (A) (A) (A) (A) (A) (A) (A) (A)
                 (A) (A) (A) (A) (A) (A) (A) (A) (A) (A) (A) (A)
                 (A) (A) (A) (A) (A) (A) (A) (A) (A) (A) (A) (A)
                 (A) (A) (A) (A) (A) (A) (A) (A) (A) (A) (A) (A)
                 (A) (A) (A) (A) (A) (A) (A) (A) (A) (A) (A) (A)
                 (A) (A) (A) (A) (A) (A) (A) (A) (A) (A) (A) (A)
                 (A) (A) (A) (A) (A) (A) (A) (A) (A) (A) (A) (A)
                 (A) (A) (A) (A) (A) (A) (A) (A) (A) (A) (A) (A)
                 (A) (A) (A) (A) (A) (A) (A) (A) (A) (A) (A) (A)
                 (A) (A) (A) (A) (A) (A) (A) (A) (A) (A) (A) (A)
                 (A) (A) (A) (A) (A) (A) (A) (A) (A) (A) (A) (A)
                 (A) (A) (A) (A) (A) (A) (A) (A) (A) (A) (A) (A)
                 (A) (A) (A) (A) (A) (A) (A) (A) (A) (A) (A) (A)
                 (A) (A) (A) (A) (A) (A) (A) (A) (A) (A) (A) (A)
                 (A) (A) (A) (A) (A) (A) (A) (A) (A) (A) (A) (A)
                 (A) (A) (A) (A) (A) (A) (A) (A) (A) (A) (A) (A)
                 (A) (A) (A) (A) (A) (A) (A) (A) (A) (A) (A) (A)
                 (A) (A) (A) (A) (A) (A) (A) (A) (A) (A) (A) (A)
                 (A) (A) (A) (A) (A) (A) (A) (A) (A) (A) (A) (A)
                 (A) (A) (A) (A) (A) (A) (A) (A) (A) (A) (A) (A)
                 (A) (A) (A) (A) (A) (A) (A) (A) (A) (A) (A) (A)
                 (A) (A) (A) (A) (A) (A) (A) (A) (A) (A) (A) (A)
                 (A) (A) (A) (A) (A) (A) (A) (A) (A) (A) (A) (A)
                 (A) (A) (A) (A) (A) (A) (A) (A) (A) (A) (A) (A)
                 (A) (A) (A) (A) (A) (A) (A) (A) (A) (A) (A) (A)
                 (A) (A) (A) (A) (A) (A) (A) (A) (A) (A) (A) (A)
                 (A) (A) (A) (A) (A) (A) (A) (A) (A) (A) (A) (A)
                 (A) (A) (A) (A)
 The electronic state is 1-A.
 Alpha  occ. eigenvalues --  -19.19816 -14.34517 -10.26642 -10.25910 -10.25437
 Alpha  occ. eigenvalues --  -10.23787 -10.22627 -10.22587 -10.21280 -10.21119
 Alpha  occ. eigenvalues --  -10.21027 -10.20966 -10.20914 -10.20720 -10.20611
 Alpha  occ. eigenvalues --  -10.20082 -10.19945  -1.08100  -0.91702  -0.88413
 Alpha  occ. eigenvalues --   -0.86865  -0.82175  -0.77014  -0.76422  -0.76136
 Alpha  occ. eigenvalues --   -0.73097  -0.70487  -0.62904  -0.62116  -0.61268
 Alpha  occ. eigenvalues --   -0.60740  -0.55282  -0.53937  -0.51568  -0.49780
 Alpha  occ. eigenvalues --   -0.48722  -0.48445  -0.48174  -0.47247  -0.45518
 Alpha  occ. eigenvalues --   -0.44448  -0.43883  -0.43255  -0.42576  -0.39321
 Alpha  occ. eigenvalues --   -0.38545  -0.38302  -0.37540  -0.37164  -0.36564
 Alpha  occ. eigenvalues --   -0.36105  -0.34960  -0.33982  -0.32984  -0.32896
 Alpha  occ. eigenvalues --   -0.27448  -0.27123  -0.25844  -0.23769
 Alpha virt. eigenvalues --   -0.03509  -0.03261  -0.03164  -0.00914  -0.00716
 Alpha virt. eigenvalues --    0.00489   0.01047   0.01222   0.02333   0.02367
 Alpha virt. eigenvalues --    0.02633   0.03129   0.03575   0.03852   0.03998
 Alpha virt. eigenvalues --    0.04336   0.05225   0.05862   0.06318   0.06535
 Alpha virt. eigenvalues --    0.07377   0.07794   0.08226   0.08975   0.09448
 Alpha virt. eigenvalues --    0.09959   0.10381   0.10774   0.10879   0.11304
 Alpha virt. eigenvalues --    0.11460   0.12011   0.12557   0.12904   0.13845
 Alpha virt. eigenvalues --    0.14060   0.14173   0.14716   0.15243   0.15550
 Alpha virt. eigenvalues --    0.15855   0.16044   0.16681   0.16843   0.17501
 Alpha virt. eigenvalues --    0.17929   0.18114   0.18365   0.18962   0.19330
 Alpha virt. eigenvalues --    0.19760   0.19882   0.20619   0.21029   0.21278
 Alpha virt. eigenvalues --    0.21851   0.22180   0.22524   0.22621   0.23115
 Alpha virt. eigenvalues --    0.23476   0.23875   0.24192   0.24408   0.24685
 Alpha virt. eigenvalues --    0.24846   0.25627   0.25911   0.26311   0.26609
 Alpha virt. eigenvalues --    0.26965   0.27258   0.27641   0.27795   0.28021
 Alpha virt. eigenvalues --    0.28859   0.29119   0.29453   0.29606   0.30251
 Alpha virt. eigenvalues --    0.30859   0.31068   0.31658   0.32164   0.32804
 Alpha virt. eigenvalues --    0.32871   0.33489   0.34619   0.35319   0.35836
 Alpha virt. eigenvalues --    0.36323   0.36703   0.37274   0.38354   0.38709
 Alpha virt. eigenvalues --    0.39669   0.40174   0.41480   0.43525   0.45191
 Alpha virt. eigenvalues --    0.47231   0.55517   0.56514   0.59484   0.60728
 Alpha virt. eigenvalues --    0.63520   0.64127   0.66104   0.67008   0.67597
 Alpha virt. eigenvalues --    0.68379   0.69088   0.70205   0.70819   0.71030
 Alpha virt. eigenvalues --    0.71647   0.72243   0.72625   0.73459   0.73655
 Alpha virt. eigenvalues --    0.74266   0.74471   0.76123   0.76715   0.77650
 Alpha virt. eigenvalues --    0.79310   0.79717   0.81233   0.81540   0.81669
 Alpha virt. eigenvalues --    0.83258   0.84853   0.86100   0.86766   0.87783
 Alpha virt. eigenvalues --    0.88352   0.88392   0.89631   0.90976   0.91674
 Alpha virt. eigenvalues --    0.92620   0.93056   0.93994   0.95162   0.95999
 Alpha virt. eigenvalues --    0.97054   0.98210   0.99104   1.00677   1.01114
 Alpha virt. eigenvalues --    1.02402   1.04119   1.05644   1.06229   1.07597
 Alpha virt. eigenvalues --    1.08007   1.09126   1.09595   1.11370   1.13431
 Alpha virt. eigenvalues --    1.13960   1.14454   1.14695   1.15518   1.17715
 Alpha virt. eigenvalues --    1.19326   1.19526   1.21862   1.23120   1.23489
 Alpha virt. eigenvalues --    1.24347   1.24682   1.25137   1.27423   1.28889
 Alpha virt. eigenvalues --    1.30120   1.31635   1.34062   1.34618   1.35433
 Alpha virt. eigenvalues --    1.37186   1.38021   1.39065   1.39475   1.39856
 Alpha virt. eigenvalues --    1.40896   1.42205   1.43682   1.44384   1.46311
 Alpha virt. eigenvalues --    1.47073   1.47629   1.49852   1.54889   1.57263
 Alpha virt. eigenvalues --    1.58358   1.60601   1.64135   1.66656   1.70897
 Alpha virt. eigenvalues --    1.75870   1.77227   1.77792   1.79596   1.82530
 Alpha virt. eigenvalues --    1.83387   1.83831   1.84312   1.87275   1.87812
 Alpha virt. eigenvalues --    1.88906   1.90068   1.90813   1.92023   1.92797
 Alpha virt. eigenvalues --    1.92841   1.94064   1.94894   1.96542   1.98223
 Alpha virt. eigenvalues --    1.98685   1.99086   1.99958   2.00654   2.00888
 Alpha virt. eigenvalues --    2.01108   2.02549   2.04361   2.05413   2.05946
 Alpha virt. eigenvalues --    2.06340   2.09058   2.10250   2.12373   2.13375
 Alpha virt. eigenvalues --    2.14856   2.16889   2.23094   2.23266   2.24740
 Alpha virt. eigenvalues --    2.26639   2.27634   2.28692   2.29900   2.31344
 Alpha virt. eigenvalues --    2.32632   2.36965   2.37646   2.38360   2.39545
 Alpha virt. eigenvalues --    2.39939   2.41757   2.43400   2.45335   2.46073
 Alpha virt. eigenvalues --    2.47644   2.48781   2.50600   2.51337   2.52259
 Alpha virt. eigenvalues --    2.53592   2.53827   2.55291   2.56916   2.57506
 Alpha virt. eigenvalues --    2.58479   2.59726   2.61449   2.62853   2.64078
 Alpha virt. eigenvalues --    2.65323   2.68459   2.69223   2.70791   2.71494
 Alpha virt. eigenvalues --    2.71759   2.73190   2.74710   2.75660   2.79385
 Alpha virt. eigenvalues --    2.81523   2.82749   2.83555   2.83959   2.87960
 Alpha virt. eigenvalues --    2.91272   2.92918   2.98114   3.02695   3.05144
 Alpha virt. eigenvalues --    3.07320   3.10582   3.14839   3.17993   3.19614
 Alpha virt. eigenvalues --    3.23338   3.25899   3.27130   3.27768   3.28573
 Alpha virt. eigenvalues --    3.32977   3.36080   3.40784   3.42060   3.42780
 Alpha virt. eigenvalues --    3.46720   3.48059   3.48887   3.51671   3.83390
 Alpha virt. eigenvalues --    3.88471   4.28190   4.29741   4.31555   4.31930
 Alpha virt. eigenvalues --    4.35064   4.40772   4.42677   4.45146   4.45849
 Alpha virt. eigenvalues --    4.49275   4.51094   4.53341   4.59012   4.60062
 Alpha virt. eigenvalues --    4.82486   4.84587   4.97781
          Condensed to atoms (all electrons):
               1          2          3          4          5          6
     1  C    5.025096   0.057081   0.051974  -0.155875  -0.024222   0.110072
     2  O    0.057081   8.498029   0.382128  -0.646556   0.020996  -0.024188
     3  C    0.051974   0.382128  14.280398  -2.098557   0.206183   0.573528
     4  C   -0.155875  -0.646556  -2.098557  12.916004   0.331968  -2.197207
     5  C   -0.024222   0.020996   0.206183   0.331968   7.454156  -1.928821
     6  C    0.110072  -0.024188   0.573528  -2.197207  -1.928821  11.249489
     7  C    0.007211   0.017562  -1.307345  -2.547074  -0.398244  -0.456020
     8  C   -0.076651   0.016319  -1.492206   1.536832   0.778396  -1.268642
     9  C   -0.003954   0.000350  -0.667781  -0.112013  -0.391994   0.128055
    10  N    0.000082  -0.000035   0.016073   0.001599   0.066466  -0.018888
    11  C   -0.031823   0.003646  -0.001762   0.056520   0.133514  -0.954394
    12  C    0.005883  -0.002034   0.186891  -0.075836  -0.023259  -0.448599
    13  C   -0.003385  -0.000108   0.089456   0.038244   0.030571  -0.061197
    14  C    0.002018  -0.000131  -0.008971  -0.007289  -0.002287   0.071678
    15  C   -0.002348   0.000234   0.095831  -0.031221   0.066613  -0.009860
    16  C    0.006248  -0.000348  -0.416979   0.150043   0.034132   1.118340
    17  C   -0.059282   0.204458  -3.396037  -1.617327  -0.312249   0.292257
    18  H    0.407765  -0.070625   0.110440   0.067678  -0.000087  -0.001461
    19  H    0.411149  -0.038965  -0.128417  -0.055043  -0.000207   0.004906
    20  H    0.412853  -0.039219  -0.090937  -0.054059   0.003014   0.001927
    21  H   -0.003167  -0.010868   0.005416   0.305117  -0.034957   0.011451
    22  H    0.000140  -0.000613   0.004804   0.003043   0.281871   0.011020
    23  H    0.000056   0.000104   0.026642  -0.006356   0.039264   0.261349
    24  H   -0.000686  -0.000038   0.040312   0.005386   0.018353  -0.052460
    25  H   -0.000233  -0.000003   0.014956  -0.000369   0.001069  -0.007442
    26  H   -0.000013  -0.000000  -0.000330   0.000005   0.000013   0.000268
    27  H    0.000002   0.000000  -0.000184   0.000007   0.000002   0.000196
    28  H   -0.000006  -0.000000   0.000821  -0.000148   0.000326  -0.001198
    29  H    0.000016  -0.000009  -0.020235   0.004927  -0.019956   0.014821
    30  H    0.006649  -0.015718  -0.104240  -0.006093  -0.002095  -0.010646
               7          8          9         10         11         12
     1  C    0.007211  -0.076651  -0.003954   0.000082  -0.031823   0.005883
     2  O    0.017562   0.016319   0.000350  -0.000035   0.003646  -0.002034
     3  C   -1.307345  -1.492206  -0.667781   0.016073  -0.001762   0.186891
     4  C   -2.547074   1.536832  -0.112013   0.001599   0.056520  -0.075836
     5  C   -0.398244   0.778396  -0.391994   0.066466   0.133514  -0.023259
     6  C   -0.456020  -1.268642   0.128055  -0.018888  -0.954394  -0.448599
     7  C   25.790299 -10.123300   3.002457  -0.248896  -0.838386   2.189605
     8  C  -10.123300  16.411142  -5.370542   0.365830  -1.077119  -0.889004
     9  C    3.002457  -5.370542  12.633441   0.067649  -1.054933   2.600511
    10  N   -0.248896   0.365830   0.067649   7.053132   0.112865  -0.143422
    11  C   -0.838386  -1.077119  -1.054933   0.112865  19.382835  -6.418549
    12  C    2.189605  -0.889004   2.600511  -0.143422  -6.418549  22.455301
    13  C   -1.053866   0.240877  -0.483174   0.013509   0.698542  -2.173089
    14  C    0.041321  -0.025591   0.068100  -0.003189  -1.377864   0.465563
    15  C    0.010122  -0.072949  -0.307485   0.013082  -0.371902  -1.239725
    16  C   -2.323859   2.572635  -2.541683   0.072639  -2.191451 -10.869724
    17  C   -6.154808   4.043331  -1.634040   0.090330  -0.135668  -0.213922
    18  H   -0.022789   0.001626  -0.000089  -0.000000   0.000232   0.000037
    19  H    0.050520  -0.000962   0.002014  -0.000004  -0.010486   0.003417
    20  H    0.046378  -0.015590  -0.001029   0.000004   0.012327  -0.006299
    21  H   -0.005816   0.004457   0.000351  -0.000003   0.001148   0.000257
    22  H    0.023034  -0.005174  -0.001698   0.000158   0.000644   0.000367
    23  H    0.003286   0.028703  -0.028380   0.004821  -0.050553  -0.013458
    24  H   -0.152807   0.442156  -0.060590  -0.006918  -0.291109   0.400426
    25  H   -0.023251  -0.034312  -0.000095  -0.000575   0.065746   0.162805
    26  H   -0.002405  -0.002754   0.000481  -0.000006   0.020685   0.043931
    27  H    0.000161   0.001536  -0.001181   0.000016  -0.006418   0.010908
    28  H    0.001219  -0.005532   0.001561  -0.000066   0.040904   0.017395
    29  H    0.002446  -0.038318   0.086655  -0.005831   0.178519   0.092352
    30  H    0.111432   0.000673   0.016382   0.000242  -0.025095   0.036396
              13         14         15         16         17         18
     1  C   -0.003385   0.002018  -0.002348   0.006248  -0.059282   0.407765
     2  O   -0.000108  -0.000131   0.000234  -0.000348   0.204458  -0.070625
     3  C    0.089456  -0.008971   0.095831  -0.416979  -3.396037   0.110440
     4  C    0.038244  -0.007289  -0.031221   0.150043  -1.617327   0.067678
     5  C    0.030571  -0.002287   0.066613   0.034132  -0.312249  -0.000087
     6  C   -0.061197   0.071678  -0.009860   1.118340   0.292257  -0.001461
     7  C   -1.053866   0.041321   0.010122  -2.323859  -6.154808  -0.022789
     8  C    0.240877  -0.025591  -0.072949   2.572635   4.043331   0.001626
     9  C   -0.483174   0.068100  -0.307485  -2.541683  -1.634040  -0.000089
    10  N    0.013509  -0.003189   0.013082   0.072639   0.090330  -0.000000
    11  C    0.698542  -1.377864  -0.371902  -2.191451  -0.135668   0.000232
    12  C   -2.173089   0.465563  -1.239725 -10.869724  -0.213922   0.000037
    13  C    7.057406   0.452135   0.212583   0.452483   0.409831   0.000115
    14  C    0.452135   5.424424   0.320387   0.354579  -0.010708  -0.000004
    15  C    0.212583   0.320387   7.993025  -0.543846  -0.108883  -0.000035
    16  C    0.452483   0.354579  -0.543846  19.973286   0.316664  -0.000096
    17  C    0.409831  -0.010708  -0.108883   0.316664  13.521665  -0.130044
    18  H    0.000115  -0.000004  -0.000035  -0.000096  -0.130044   0.543561
    19  H   -0.001186   0.000082  -0.000074  -0.000022   0.118282  -0.029064
    20  H    0.001592  -0.000352   0.001052   0.000009   0.081941  -0.028579
    21  H   -0.000001   0.000003  -0.000239  -0.001010   0.036608  -0.000019
    22  H    0.000016  -0.000020  -0.000035  -0.001441  -0.004738  -0.000000
    23  H    0.001222  -0.000702   0.015799   0.036560  -0.012057  -0.000000
    24  H    0.036392   0.005691  -0.005529  -0.232009   0.098996   0.000000
    25  H    0.098079  -0.004638   0.009631  -0.008502   0.018698  -0.000000
    26  H    0.253577  -0.000777   0.003820  -0.005664  -0.000928   0.000000
    27  H    0.013287   0.286189   0.000092   0.006079  -0.000103  -0.000000
    28  H    0.000791  -0.000090   0.268424  -0.013547  -0.000484  -0.000000
    29  H   -0.011644  -0.014598  -0.058273   0.083002   0.009266   0.000000
    30  H   -0.011346   0.002832  -0.010100  -0.008130   0.306028   0.000113
              19         20         21         22         23         24
     1  C    0.411149   0.412853  -0.003167   0.000140   0.000056  -0.000686
     2  O   -0.038965  -0.039219  -0.010868  -0.000613   0.000104  -0.000038
     3  C   -0.128417  -0.090937   0.005416   0.004804   0.026642   0.040312
     4  C   -0.055043  -0.054059   0.305117   0.003043  -0.006356   0.005386
     5  C   -0.000207   0.003014  -0.034957   0.281871   0.039264   0.018353
     6  C    0.004906   0.001927   0.011451   0.011020   0.261349  -0.052460
     7  C    0.050520   0.046378  -0.005816   0.023034   0.003286  -0.152807
     8  C   -0.000962  -0.015590   0.004457  -0.005174   0.028703   0.442156
     9  C    0.002014  -0.001029   0.000351  -0.001698  -0.028380  -0.060590
    10  N   -0.000004   0.000004  -0.000003   0.000158   0.004821  -0.006918
    11  C   -0.010486   0.012327   0.001148   0.000644  -0.050553  -0.291109
    12  C    0.003417  -0.006299   0.000257   0.000367  -0.013458   0.400426
    13  C   -0.001186   0.001592  -0.000001   0.000016   0.001222   0.036392
    14  C    0.000082  -0.000352   0.000003  -0.000020  -0.000702   0.005691
    15  C   -0.000074   0.001052  -0.000239  -0.000035   0.015799  -0.005529
    16  C   -0.000022   0.000009  -0.001010  -0.001441   0.036560  -0.232009
    17  C    0.118282   0.081941   0.036608  -0.004738  -0.012057   0.098996
    18  H   -0.029064  -0.028579  -0.000019  -0.000000  -0.000000   0.000000
    19  H    0.576236  -0.045144   0.000005   0.000000   0.000000   0.000007
    20  H   -0.045144   0.573228   0.000006   0.000000   0.000000  -0.000002
    21  H    0.000005   0.000006   0.562661  -0.005302  -0.000134  -0.000000
    22  H    0.000000   0.000000  -0.005302   0.566859  -0.004922   0.000002
    23  H    0.000000   0.000000  -0.000134  -0.004922   0.563679   0.000110
    24  H    0.000007  -0.000002  -0.000000   0.000002   0.000110   0.577093
    25  H    0.000000   0.000001   0.000000  -0.000000   0.000000   0.005392
    26  H    0.000000  -0.000000   0.000000  -0.000000  -0.000000  -0.000008
    27  H   -0.000000  -0.000000  -0.000000   0.000000   0.000000  -0.000000
    28  H    0.000000   0.000000   0.000000  -0.000000  -0.000000   0.000002
    29  H   -0.000000  -0.000000   0.000000  -0.000004  -0.000143  -0.000049
    30  H   -0.001033  -0.000401  -0.000143   0.000017  -0.000141   0.001802
              25         26         27         28         29         30
     1  C   -0.000233  -0.000013   0.000002  -0.000006   0.000016   0.006649
     2  O   -0.000003  -0.000000   0.000000  -0.000000  -0.000009  -0.015718
     3  C    0.014956  -0.000330  -0.000184   0.000821  -0.020235  -0.104240
     4  C   -0.000369   0.000005   0.000007  -0.000148   0.004927  -0.006093
     5  C    0.001069   0.000013   0.000002   0.000326  -0.019956  -0.002095
     6  C   -0.007442   0.000268   0.000196  -0.001198   0.014821  -0.010646
     7  C   -0.023251  -0.002405   0.000161   0.001219   0.002446   0.111432
     8  C   -0.034312  -0.002754   0.001536  -0.005532  -0.038318   0.000673
     9  C   -0.000095   0.000481  -0.001181   0.001561   0.086655   0.016382
    10  N   -0.000575  -0.000006   0.000016  -0.000066  -0.005831   0.000242
    11  C    0.065746   0.020685  -0.006418   0.040904   0.178519  -0.025095
    12  C    0.162805   0.043931   0.010908   0.017395   0.092352   0.036396
    13  C    0.098079   0.253577   0.013287   0.000791  -0.011644  -0.011346
    14  C   -0.004638  -0.000777   0.286189  -0.000090  -0.014598   0.002832
    15  C    0.009631   0.003820   0.000092   0.268424  -0.058273  -0.010100
    16  C   -0.008502  -0.005664   0.006079  -0.013547   0.083002  -0.008130
    17  C    0.018698  -0.000928  -0.000103  -0.000484   0.009266   0.306028
    18  H   -0.000000   0.000000  -0.000000  -0.000000   0.000000   0.000113
    19  H    0.000000   0.000000  -0.000000   0.000000  -0.000000  -0.001033
    20  H    0.000001  -0.000000  -0.000000   0.000000  -0.000000  -0.000401
    21  H    0.000000   0.000000  -0.000000   0.000000   0.000000  -0.000143
    22  H   -0.000000  -0.000000   0.000000  -0.000000  -0.000004   0.000017
    23  H    0.000000  -0.000000   0.000000  -0.000000  -0.000143  -0.000141
    24  H    0.005392  -0.000008  -0.000000   0.000002  -0.000049   0.001802
    25  H    0.597419  -0.005941  -0.000164   0.000016  -0.000163  -0.000100
    26  H   -0.005941   0.571739  -0.005586  -0.000166   0.000015  -0.000002
    27  H   -0.000164  -0.005586   0.572290  -0.005536  -0.000158   0.000000
    28  H    0.000016  -0.000166  -0.005536   0.569460  -0.005970  -0.000000
    29  H   -0.000163   0.000015  -0.000158  -0.005970   0.574081  -0.000038
    30  H   -0.000100  -0.000002   0.000000  -0.000000  -0.000038   0.598387
 Mulliken charges:
               1
     1  C   -0.142650
     2  O   -0.351448
     3  C   -0.351873
     4  C    0.193648
     5  C   -0.328529
     6  C   -0.408336
     7  C    0.361814
     8  C    0.054133
     9  C    0.052652
    10  N   -0.450664
    11  C    0.129384
    12  C   -0.155126
    13  C   -0.301713
    14  C   -0.037790
    15  C   -0.248190
    16  C   -0.018386
    17  C    0.242925
    18  H    0.151326
    19  H    0.143987
    20  H    0.147283
    21  H    0.134177
    22  H    0.131971
    23  H    0.135254
    24  H    0.170086
    25  H    0.111974
    26  H    0.130046
    27  H    0.128564
    28  H    0.131825
    29  H    0.129288
    30  H    0.114369
 Sum of Mulliken charges =  -0.00000
 Mulliken charges with hydrogens summed into heavy atoms:
               1
     1  C    0.299946
     2  O   -0.351448
     3  C   -0.351873
     4  C    0.327825
     5  C   -0.196558
     6  C   -0.273082
     7  C    0.361814
     8  C    0.224219
     9  C    0.052652
    10  N   -0.450664
    11  C    0.129384
    12  C   -0.043152
    13  C   -0.171667
    14  C    0.090774
    15  C   -0.116365
    16  C    0.110901
    17  C    0.357294
 Electronic spatial extent (au):  <R**2>=           4372.9698
 Charge=              0.0000 electrons
 Dipole moment (field-independent basis, Debye):
    X=             -0.7671    Y=             -4.8624    Z=             -0.2084  Tot=              4.9269
 Quadrupole moment (field-independent basis, Debye-Ang):
   XX=           -101.6593   YY=           -108.5036   ZZ=            -94.3146
   XY=            -10.8300   XZ=              1.9493   YZ=              8.2900
 Traceless Quadrupole moment (field-independent basis, Debye-Ang):
   XX=             -0.1668   YY=             -7.0111   ZZ=              7.1779
   XY=            -10.8300   XZ=              1.9493   YZ=              8.2900
 Octapole moment (field-independent basis, Debye-Ang**2):
  XXX=             -9.8906  YYY=            -93.7007  ZZZ=             -1.7449  XYY=            -48.7849
  XXY=            -41.4758  XXZ=             11.9469  XZZ=              4.4719  YZZ=            -10.0910
  YYZ=             12.7563  XYZ=             -7.9913
 Hexadecapole moment (field-independent basis, Debye-Ang**3):
 XXXX=          -3709.6449 YYYY=          -1991.9973 ZZZZ=           -575.5424 XXXY=           -117.2482
 XXXZ=             -4.1471 YYYX=            -71.1543 YYYZ=            103.8199 ZZZX=             21.4391
 ZZZY=              8.5472 XXYY=           -875.0030 XXZZ=           -670.3253 YYZZ=           -402.7221
 XXYZ=             50.5953 YYXZ=             34.5066 ZZXY=            -14.1379
 N-N= 1.076987785924D+03 E-N=-3.798490465188D+03  KE= 7.025989549783D+02
 Unable to Open any file for archive entry.
 1\1\GINC-N2\SP\RB3LYP TD-FC\6-31+G(d,p)\C15H13N1O1\HPCMGAC13\12-Aug-20
 25\0\\# td=(50-50,nstates=3) b3lyp/6-31+g(d,p) geom=connectivity\\Titl
 e Card Required\\0,1\C,0,-2.901993,-2.722679,-0.766647\O,0,-3.436803,-
 1.622015,-0.040871\C,0,-2.682261,-0.490782,0.087294\C,0,-3.270773,0.55
 3118,0.8215\C,0,-2.575543,1.741167,0.999272\C,0,-1.293206,1.914646,0.4
 56777\C,0,-0.709214,0.878036,-0.268924\C,0,0.693173,0.984933,-0.883783
 \C,0,1.219723,2.360674,-0.853634\N,0,1.651509,3.438767,-0.835597\C,0,1
 .710252,0.021053,-0.254344\C,0,2.445986,-0.847478,-1.067212\C,0,3.3778
 74,-1.726467,-0.505795\C,0,3.582451,-1.738512,0.874928\C,0,2.85112,-0.
 869144,1.691447\C,0,1.918901,0.004294,1.130875\C,0,-1.404947,-0.329051
 ,-0.455952\H,0,-3.666402,-3.499653,-0.732554\H,0,-2.703877,-2.453457,-
 1.811829\H,0,-1.980747,-3.097375,-0.30349\H,0,-4.263558,0.406317,1.233
 713\H,0,-3.031516,2.549059,1.563901\H,0,-0.76775,2.853596,0.595105\H,0
 ,0.610896,0.723761,-1.94699\H,0,2.297025,-0.836016,-2.144284\H,0,3.942
 11,-2.396126,-1.148297\H,0,4.306811,-2.418441,1.313527\H,0,3.006497,-0
 .872005,2.766331\H,0,1.34931,0.672499,1.770417\H,0,-0.934207,-1.130259
 ,-1.014216\\Version=ES64L-G16RevC.02\State=1-A\HF=-709.4170758\RMSD=3.
 923e-09\PG=C01 [X(C15H13N1O1)]\\@
 The archive entry for this job was punched.


 In the race for quality, there is no finish line.
                               -- David T. Kearns
 Job cpu time:       0 days  0 hours 52 minutes  4.6 seconds.
 Elapsed time:       0 days  0 hours  6 minutes 37.4 seconds.
 File lengths (MBytes):  RWF=    845 Int=      0 D2E=      0 Chk=     40 Scr=      2
 Normal termination of Gaussian 16 at Tue Aug 12 12:26:12 2025.
