 Entering Gaussian System, Link 0=g16
 Input=M1497e.gjf
 Output=M1497e.log
 Initial command:
 /hpc/softwares/Gaussian/g16/l1.exe "/hpc/home/hpcmgac13/pbs.14213.admin1.x8z/Gau-5358.inp" -scrdir="/hpc/home/hpcmgac13/pbs.14213.admin1.x8z/"
 Default linda workers: n2
 Default is to use   8 SMP processors on each worker.
 Entering Link 1 = /hpc/softwares/Gaussian/g16/l1.exe PID=      5359.
  
 Copyright (c) 1988-2021, Gaussian, Inc.  All Rights Reserved.
  
 This is part of the Gaussian(R) 16 program.  It is based on
 the Gaussian(R) 09 system (copyright 2009, Gaussian, Inc.),
 the Gaussian(R) 03 system (copyright 2003, Gaussian, Inc.),
 the Gaussian(R) 98 system (copyright 1998, Gaussian, Inc.),
 the Gaussian(R) 94 system (copyright 1995, Gaussian, Inc.),
 the Gaussian 92(TM) system (copyright 1992, Gaussian, Inc.),
 the Gaussian 90(TM) system (copyright 1990, Gaussian, Inc.),
 the Gaussian 88(TM) system (copyright 1988, Gaussian, Inc.),
 the Gaussian 86(TM) system (copyright 1986, Carnegie Mellon
 University), and the Gaussian 82(TM) system (copyright 1983,
 Carnegie Mellon University). Gaussian is a federally registered
 trademark of Gaussian, Inc.
  
 This software contains proprietary and confidential information,
 including trade secrets, belonging to Gaussian, Inc.
  
 This software is provided under written license and may be
 used, copied, transmitted, or stored only in accord with that
 written license.
  
 The following legend is applicable only to US Government
 contracts under FAR:
  
                    RESTRICTED RIGHTS LEGEND
  
 Use, reproduction and disclosure by the US Government is
 subject to restrictions as set forth in subparagraphs (a)
 and (c) of the Commercial Computer Software - Restricted
 Rights clause in FAR 52.227-19.
  
 Gaussian, Inc.
 340 Quinnipiac St., Bldg. 40, Wallingford CT 06492
  
  
 ---------------------------------------------------------------
 Warning -- This program may not be used in any manner that
 competes with the business of Gaussian, Inc. or will provide
 assistance to any competitor of Gaussian, Inc.  The licensee
 of this program is prohibited from giving any competitor of
 Gaussian, Inc. access to this program.  By using this program,
 the user acknowledges that Gaussian, Inc. is engaged in the
 business of creating and licensing software in the field of
 computational chemistry and represents and warrants to the
 licensee that it is not a competitor of Gaussian, Inc. and that
 it will not use this program in any manner prohibited above.
 ---------------------------------------------------------------
  

 Cite this work as:
 Gaussian 16, Revision C.02,
 M. J. Frisch, G. W. Trucks, H. B. Schlegel, G. E. Scuseria, 
 M. A. Robb, J. R. Cheeseman, G. Scalmani, V. Barone, 
 G. A. Petersson, H. Nakatsuji, X. Li, M. Caricato, A. V. Marenich, 
 J. Bloino, B. G. Janesko, R. Gomperts, B. Mennucci, H. P. Hratchian, 
 J. V. Ortiz, A. F. Izmaylov, J. L. Sonnenberg, D. Williams-Young, 
 F. Ding, F. Lipparini, F. Egidi, J. Goings, B. Peng, A. Petrone, 
 T. Henderson, D. Ranasinghe, V. G. Zakrzewski, J. Gao, N. Rega, 
 G. Zheng, W. Liang, M. Hada, M. Ehara, K. Toyota, R. Fukuda, 
 J. Hasegawa, M. Ishida, T. Nakajima, Y. Honda, O. Kitao, H. Nakai, 
 T. Vreven, K. Throssell, J. A. Montgomery, Jr., J. E. Peralta, 
 F. Ogliaro, M. J. Bearpark, J. J. Heyd, E. N. Brothers, K. N. Kudin, 
 V. N. Staroverov, T. A. Keith, R. Kobayashi, J. Normand, 
 K. Raghavachari, A. P. Rendell, J. C. Burant, S. S. Iyengar, 
 J. Tomasi, M. Cossi, J. M. Millam, M. Klene, C. Adamo, R. Cammi, 
 J. W. Ochterski, R. L. Martin, K. Morokuma, O. Farkas, 
 J. B. Foresman, and D. J. Fox, Gaussian, Inc., Wallingford CT, 2019.
 
 ******************************************
 Gaussian 16:  ES64L-G16RevC.02  7-Dec-2021
                21-Sep-2025 
 ******************************************
 SetLPE:    new flags="-opt 'Tsnet.Node.lindarsharg: ssh'  -nodelist 'n2.head.cm.mguif.local' -env GAUSS_MDEF=1342177280 -env GAUSS_EXEDIR="/hpc/softwares/Gaussian/g16/bsd:/hpc/softwares/Gaussian/g16""
 Will use up to    1 processors via Linda.
 ----------------------------------------------------------
 # td=(50-50,nstates=3) b3lyp/6-31+g(d,p) geom=connectivity
 ----------------------------------------------------------
 1/38=1,57=2,172=1/1;
 2/12=2,17=6,18=5,40=1/2;
 3/5=1,6=6,7=111,11=9,25=1,30=1,74=-5/1,2,3,8;
 4//1;
 5/5=2,38=5/2;
 8/6=1,10=2,108=3/1;
 9/41=3,42=1,48=2,70=2/14;
 6/7=2,8=2,9=2,10=2/1;
 99/5=1,9=1/99;
 -------------------
 Title Card Required
 -------------------
 Symbolic Z-matrix:
 Charge =  0 Multiplicity = 1
 C                     6.08837  -0.03381   0.13552 
 O                     4.8154    0.59404   0.15108 
 C                     3.74794  -0.31055  -0.04612 
 C                     2.47097   0.51495   0.00331 
 O                     1.3909   -0.42433  -0.2288 
 C                     0.10739  -0.06926  -0.10283 
 C                    -0.84348  -1.06695  -0.03568 
 N                    -0.34775  -2.46165  -0.06346 
 O                     0.01371  -2.94187   1.0051 
 O                    -0.33377  -3.02244  -1.15322 
 C                    -2.25668  -0.83263   0.05181 
 Cl                   -3.32934  -2.19995   0.13625 
 C                    -2.76678   0.4391    0.08429 
 C                    -1.81076   1.47804   0.01947 
 C                    -0.40178   1.27944  -0.07587 
 N                     0.25307   2.43166  -0.13497 
 O                    -0.69689   3.40695  -0.07649 
 N                    -2.01297   2.80655   0.02073 
 O                    -3.00089   3.52664   0.0824 
 H                     6.83079   0.75004   0.29592 
 H                     6.17342  -0.78294   0.93638 
 H                     6.2802   -0.52215  -0.83122 
 H                     3.82921  -0.81676  -1.02085 
 H                     3.72912  -1.08288   0.73839 
 H                     2.34757   0.98723   0.98148 
 H                     2.46993   1.28417  -0.7718 
 H                    -3.82679   0.64456   0.15549 
 
                          Input orientation:                          
 ---------------------------------------------------------------------
 Center     Atomic      Atomic             Coordinates (Angstroms)
 Number     Number       Type             X           Y           Z
 ---------------------------------------------------------------------
      1          6           0        6.088368   -0.033811    0.135521
      2          8           0        4.815402    0.594038    0.151077
      3          6           0        3.747938   -0.310545   -0.046119
      4          6           0        2.470968    0.514952    0.003307
      5          8           0        1.390895   -0.424332   -0.228800
      6          6           0        0.107393   -0.069258   -0.102830
      7          6           0       -0.843475   -1.066953   -0.035682
      8          7           0       -0.347748   -2.461649   -0.063456
      9          8           0        0.013711   -2.941869    1.005096
     10          8           0       -0.333765   -3.022442   -1.153224
     11          6           0       -2.256684   -0.832626    0.051806
     12         17           0       -3.329337   -2.199945    0.136254
     13          6           0       -2.766780    0.439102    0.084285
     14          6           0       -1.810755    1.478036    0.019472
     15          6           0       -0.401784    1.279436   -0.075872
     16          7           0        0.253066    2.431662   -0.134968
     17          8           0       -0.696890    3.406945   -0.076493
     18          7           0       -2.012966    2.806548    0.020727
     19          8           0       -3.000890    3.526641    0.082401
     20          1           0        6.830792    0.750043    0.295918
     21          1           0        6.173422   -0.782938    0.936379
     22          1           0        6.280196   -0.522154   -0.831220
     23          1           0        3.829210   -0.816759   -1.020854
     24          1           0        3.729115   -1.082876    0.738390
     25          1           0        2.347569    0.987226    0.981483
     26          1           0        2.469925    1.284170   -0.771800
     27          1           0       -3.826794    0.644561    0.155490
 ---------------------------------------------------------------------
                    Distance matrix (angstroms):
                    1          2          3          4          5
     1  C    0.000000
     2  O    1.419464   0.000000
     3  C    2.363723   1.413024   0.000000
     4  C    3.661175   2.350417   1.521361   0.000000
     5  O    4.727736   3.592858   2.366848   1.450064   0.000000
     6  C    5.985827   4.761279   3.648973   2.437017   1.337656
     7  C    7.010502   5.900564   4.653314   3.672802   2.332952
     8  N    6.881684   6.003446   4.626250   4.099972   2.683445
     9  O    6.790760   6.023971   4.687576   4.357901   3.123640
    10  O    7.199762   6.426045   5.023979   4.660177   3.252566
    11  C    8.383615   7.215236   6.028071   4.916199   3.681070
    12  Cl   9.663607   8.610652   7.327408   6.405613   5.056348
    13  C    8.867915   7.584059   6.559003   5.238923   4.257911
    14  C    8.043338   6.686160   5.839725   4.388729   3.732453
    15  C    6.625057   5.266907   4.443998   2.973787   2.477884
    16  N    6.340542   4.926824   4.443166   2.934619   3.075737
    17  O    7.610748   6.192705   5.794579   4.290142   4.365859
    18  N    8.585594   7.179053   6.550477   5.035611   4.699694
    19  O    9.761877   8.348611   7.764483   6.246419   5.915641
    20  H    1.091489   2.026601   3.278083   4.375952   5.589898
    21  H    1.099909   2.087338   2.659216   4.032779   4.935464
    22  H    1.099939   2.087202   2.659604   4.035126   4.927245
    23  H    2.655938   2.082389   1.101347   2.160366   2.593594
    24  H    2.651427   2.082546   1.101047   2.162484   2.614653
    25  H    3.968847   2.633319   2.168227   1.093206   2.091054
    26  H    3.956442   2.613283   2.168651   1.092011   2.092399
    27  H    9.938361   8.642345   7.637371   6.300934   5.339896
                    6          7          8          9         10
     6  C    0.000000
     7  C    1.379875   0.000000
     8  N    2.435619   1.480437   0.000000
     9  O    3.080287   2.309393   1.225996   0.000000
    10  O    3.165319   2.309251   1.225675   2.187596   0.000000
    11  C    2.489077   1.435173   2.512178   3.242277   3.153571
    12  Cl   4.050691   2.737287   2.999708   3.532889   3.363437
    13  C    2.924776   2.445751   3.779934   4.473253   4.408319
    14  C    2.467462   2.723168   4.203378   4.882181   4.879653
    15  C    1.441861   2.387938   3.741496   4.377276   4.435253
    16  N    2.505365   3.667774   4.930576   5.498352   5.579289
    17  O    3.568130   4.476485   5.878985   6.479369   6.529030
    18  N    3.575115   4.046591   5.525752   6.174196   6.178592
    19  O    4.756703   5.076366   6.551340   7.195888   7.178497
    20  H    6.784862   7.893403   7.872455   7.784969   8.225724
    21  H    6.195644   7.089599   6.807599   6.527461   7.192030
    22  H    6.232107   7.188628   6.948435   6.963901   7.078108
    23  H    3.905566   4.781960   4.590126   4.814416   4.713058
    24  H    3.853822   4.637674   4.377760   4.163077   4.883351
    25  H    2.703753   3.929000   4.500152   4.570037   5.274843
    26  H    2.803720   4.128955   4.740484   5.200938   5.152967
    27  H    4.006756   3.444709   4.669073   5.322949   5.230764
                   11         12         13         14         15
    11  C    0.000000
    12  Cl   1.739907   0.000000
    13  C    1.370600   2.698841   0.000000
    14  C    2.353520   3.980863   1.413354   0.000000
    15  C    2.813852   4.552105   2.514959   1.426090   0.000000
    16  N    4.121809   5.861651   3.624615   2.278730   1.326629
    17  O    4.519223   6.197762   3.621931   2.229483   2.147879
    18  N    3.647458   5.177949   2.485372   1.343814   2.222006
    19  O    4.422441   5.736250   3.096402   2.370056   3.439525
    20  H    9.227494  10.580933   9.604939   8.676562   7.261449
    21  H    8.476534   9.641086   9.063479   8.348641   6.965011
    22  H    8.588041   9.802760   9.143847   8.377823   6.961690
    23  H    6.179721   7.382201   6.804822   6.177181   4.815427
    24  H    6.030241   7.171622   6.703799   6.145346   4.827822
    25  H    5.037391   6.565039   5.221300   4.296280   2.960123
    26  H    5.244043   6.826057   5.373090   4.357513   2.954835
    27  H    2.158258   2.887741   1.082087   2.185771   3.491030
                   16         17         18         19         20
    16  N    0.000000
    17  O    1.362723   0.000000
    18  N    2.302104   1.449822   0.000000
    19  O    3.440125   2.312572   1.224063   0.000000
    20  H    6.802939   7.991484   9.083887  10.218466   0.000000
    21  H    6.821441   8.110624   8.985532  10.172008   1.786717
    22  H    6.748044   8.042833   8.976782  10.166907   1.786640
    23  H    4.911806   6.262354   6.953004   8.169000   3.632940
    24  H    5.019726   6.357047   6.972385   8.183577   3.629845
    25  H    2.778453   4.030271   4.821540   5.988572   4.541535
    26  H    2.576190   3.875351   4.800213   5.973956   4.521335
    27  H    4.463558   4.181014   2.825300   2.998974  10.659033
                   21         22         23         24         25
    21  H    0.000000
    22  H    1.789920   0.000000
    23  H    3.054052   2.475901   0.000000
    24  H    2.470587   3.047310   1.782071   0.000000
    25  H    4.215764   4.585812   3.075545   2.500617   0.000000
    26  H    4.572385   4.217168   2.514674   3.077197   1.782456
    27  H   10.131725  10.221843   7.882489   7.772745   6.238785
                   26         27
    26  H    0.000000
    27  H    6.396690   0.000000
 Stoichiometry    C9H8ClN3O6
 Framework group  C1[X(C9H8ClN3O6)]
 Deg. of freedom    75
 Full point group                 C1      NOp   1
 Largest Abelian subgroup         C1      NOp   1
 Largest concise Abelian subgroup C1      NOp   1
                         Standard orientation:                         
 ---------------------------------------------------------------------
 Center     Atomic      Atomic             Coordinates (Angstroms)
 Number     Number       Type             X           Y           Z
 ---------------------------------------------------------------------
      1          6           0       -6.088368   -0.033811   -0.135521
      2          8           0       -4.815402    0.594038   -0.151077
      3          6           0       -3.747938   -0.310545    0.046119
      4          6           0       -2.470968    0.514952   -0.003307
      5          8           0       -1.390895   -0.424332    0.228800
      6          6           0       -0.107393   -0.069258    0.102830
      7          6           0        0.843475   -1.066953    0.035682
      8          7           0        0.347748   -2.461649    0.063456
      9          8           0       -0.013711   -2.941869   -1.005096
     10          8           0        0.333765   -3.022442    1.153224
     11          6           0        2.256684   -0.832626   -0.051806
     12         17           0        3.329337   -2.199945   -0.136254
     13          6           0        2.766780    0.439102   -0.084285
     14          6           0        1.810755    1.478036   -0.019472
     15          6           0        0.401784    1.279436    0.075872
     16          7           0       -0.253066    2.431662    0.134968
     17          8           0        0.696890    3.406945    0.076493
     18          7           0        2.012966    2.806548   -0.020727
     19          8           0        3.000890    3.526641   -0.082401
     20          1           0       -6.830792    0.750043   -0.295918
     21          1           0       -6.173422   -0.782938   -0.936379
     22          1           0       -6.280196   -0.522154    0.831220
     23          1           0       -3.829210   -0.816759    1.020854
     24          1           0       -3.729115   -1.082876   -0.738390
     25          1           0       -2.347569    0.987226   -0.981483
     26          1           0       -2.469925    1.284170    0.771800
     27          1           0        3.826794    0.644561   -0.155490
 ---------------------------------------------------------------------
 Rotational constants (GHZ):           0.4040489           0.2389991           0.1543205
 Standard basis: 6-31+G(d,p) (6D, 7F)
 There are   405 symmetry adapted cartesian basis functions of A   symmetry.
 There are   405 symmetry adapted basis functions of A   symmetry.
   405 basis functions,   688 primitive gaussians,   405 cartesian basis functions
    74 alpha electrons       74 beta electrons
       nuclear repulsion energy      1581.5237077551 Hartrees.
 NAtoms=   27 NActive=   27 NUniq=   27 SFac= 1.00D+00 NAtFMM=   60 NAOKFM=F Big=F
 Integral buffers will be    131072 words long.
 Regular integral format.
 Two-electron integral symmetry is turned on.
 One-electron integrals computed using PRISM.
 NBasis=   405 RedAO= T EigKep=  1.42D-06  NBF=   405
 NBsUse=   403 1.00D-06 EigRej=  7.16D-07 NBFU=   403
 ExpMin= 4.38D-02 ExpMax= 2.52D+04 ExpMxC= 3.78D+03 IAcc=3 IRadAn=         5 AccDes= 0.00D+00
 Harris functional with IExCor=  402 and IRadAn=       5 diagonalized for initial guess.
 HarFok:  IExCor=  402 AccDes= 0.00D+00 IRadAn=         5 IDoV= 1 UseB2=F ITyADJ=14
 ICtDFT=  3500011 ScaDFX=  1.000000  1.000000  1.000000  1.000000
 FoFCou: FMM=F IPFlag=           0 FMFlag=      100000 FMFlg1=           0
         NFxFlg=           0 DoJE=T BraDBF=F KetDBF=T FulRan=T
         wScrn=  0.000000 ICntrl=       500 IOpCl=  0 I1Cent=   200000004 NGrid=           0
         NMat0=    1 NMatS0=      1 NMatT0=    0 NMatD0=    1 NMtDS0=    0 NMtDT0=    0
 Petite list used in FoFCou.
 Requested convergence on RMS density matrix=1.00D-08 within 128 cycles.
 Requested convergence on MAX density matrix=1.00D-06.
 Requested convergence on             energy=1.00D-06.
 No special actions if energy rises.
 SCF Done:  E(RB3LYP) =  -1423.31100072     A.U. after   18 cycles
            NFock= 18  Conv=0.39D-08     -V/T= 2.0071
 DoSCS=F DFT=T ScalE2(SS,OS)=  1.000000  1.000000
 ExpMin= 4.38D-02 ExpMax= 2.52D+04 ExpMxC= 3.78D+03 IAcc=3 IRadAn=         5 AccDes= 0.00D+00
 HarFok:  IExCor=  205 AccDes= 0.00D+00 IRadAn=         5 IDoV=-2 UseB2=F ITyADJ=14
 ICtDFT= 12500011 ScaDFX=  1.000000  1.000000  1.000000  1.000000
 GSVD:  LWork=        -713 too small for GESVD, short by        2990 words or        2990 for optimal perf.
 Range of M.O.s used for correlation:    24   403
 NBasis=   405 NAE=    74 NBE=    74 NFC=    23 NFV=     0
 NROrb=    380 NOA=    51 NOB=    51 NVA=   329 NVB=   329

 **** Warning!!: The largest alpha MO coefficient is  0.17817209D+03

 Orbital symmetries:
       Occupied  (A) (A) (A) (A) (A) (A) (A) (A) (A) (A) (A) (A)
                 (A) (A) (A) (A) (A) (A) (A) (A) (A) (A) (A) (A)
                 (A) (A) (A) (A) (A) (A) (A) (A) (A) (A) (A) (A)
                 (A) (A) (A) (A) (A) (A) (A) (A) (A) (A) (A) (A)
                 (A) (A) (A) (A) (A) (A) (A) (A) (A) (A) (A) (A)
                 (A) (A) (A) (A) (A) (A) (A) (A) (A) (A) (A) (A)
                 (A) (A)
       Virtual   (A) (A) (A) (A) (A) (A) (A) (A) (A) (A) (A) (A)
                 (A) (A) (A) (A) (A) (A) (A) (A) (A) (A) (A) (A)
                 (A) (A) (A) (A) (A) (A) (A) (A) (A) (A) (A) (A)
                 (A) (A) (A) (A) (A) (A) (A) (A) (A) (A) (A) (A)
                 (A) (A) (A) (A) (A) (A) (A) (A) (A) (A) (A) (A)
                 (A) (A) (A) (A) (A) (A) (A) (A) (A) (A) (A) (A)
                 (A) (A) (A) (A) (A) (A) (A) (A) (A) (A) (A) (A)
                 (A) (A) (A) (A) (A) (A) (A) (A) (A) (A) (A) (A)
                 (A) (A) (A) (A) (A) (A) (A) (A) (A) (A) (A) (A)
                 (A) (A) (A) (A) (A) (A) (A) (A) (A) (A) (A) (A)
                 (A) (A) (A) (A) (A) (A) (A) (A) (A) (A) (A) (A)
                 (A) (A) (A) (A) (A) (A) (A) (A) (A) (A) (A) (A)
                 (A) (A) (A) (A) (A) (A) (A) (A) (A) (A) (A) (A)
                 (A) (A) (A) (A) (A) (A) (A) (A) (A) (A) (A) (A)
                 (A) (A) (A) (A) (A) (A) (A) (A) (A) (A) (A) (A)
                 (A) (A) (A) (A) (A) (A) (A) (A) (A) (A) (A) (A)
                 (A) (A) (A) (A) (A) (A) (A) (A) (A) (A) (A) (A)
                 (A) (A) (A) (A) (A) (A) (A) (A) (A) (A) (A) (A)
                 (A) (A) (A) (A) (A) (A) (A) (A) (A) (A) (A) (A)
                 (A) (A) (A) (A) (A) (A) (A) (A) (A) (A) (A) (A)
                 (A) (A) (A) (A) (A) (A) (A) (A) (A) (A) (A) (A)
                 (A) (A) (A) (A) (A) (A) (A) (A) (A) (A) (A) (A)
                 (A) (A) (A) (A) (A) (A) (A) (A) (A) (A) (A) (A)
                 (A) (A) (A) (A) (A) (A) (A) (A) (A) (A) (A) (A)
                 (A) (A) (A) (A) (A) (A) (A) (A) (A) (A) (A) (A)
                 (A) (A) (A) (A) (A) (A) (A) (A) (A) (A) (A) (A)
                 (A) (A) (A) (A) (A) (A) (A) (A) (A) (A) (A) (A)
                 (A) (A) (A) (A) (A)
    24 initial guesses have been made.
 Convergence on wavefunction:    0.001000000000000
 Iteration     1 Dimension    24 NMult     0 NNew     24
 CISAX will form    24 AO SS matrices at one time.
 New state      1 was old state      2
 New state      2 was old state      4
 New state      4 was old state      8
 New state      5 was old state     14
 New state      6 was old state      5
 New state      7 was old state      6
 New state      8 was old state     12
 New state      9 was old state     16
 New state     10 was old state      7
 New state     12 was old state     18
 Vector   5 SDiff=4.20D+00 TDiff=1.08D+01 assumed to be singlet.
 Vector  11 SDiff=4.23D+00 TDiff=1.08D+01 assumed to be singlet.
 Iteration     2 Dimension    36 NMult    24 NNew     12
 New state      5 was old state     10
 Iteration     3 Dimension    48 NMult    36 NNew     12
 Iteration     4 Dimension    60 NMult    48 NNew     12
 Iteration     5 Dimension    72 NMult    60 NNew     12
 Iteration     6 Dimension    80 NMult    72 NNew      8
 No map to state      3
 New state      4 was old state      3
 Iteration     7 Dimension    86 NMult    80 NNew      6
 New state      2 was old state      3
 New state      3 was old state      2
 Iteration     8 Dimension    90 NMult    86 NNew      4
 Iteration     9 Dimension    94 NMult    90 NNew      4
 Iteration    10 Dimension    98 NMult    94 NNew      4
 Iteration    11 Dimension   100 NMult    98 NNew      2
 ***********************************************************************
 Excited states from <AA,BB:AA,BB> singles matrix:
 ***********************************************************************
 
 Ground to excited state transition densities written to RWF  633
 Ground to excited state transition electric dipole moments (Au):
       state          X           Y           Z        Dip. S.      Osc.
         1         0.0000     -0.0000     -0.0000      0.0000      0.0000
         2         0.0000      0.0000     -0.0000      0.0000      0.0000
         3         0.0000      0.0000     -0.0000      0.0000      0.0000
         4         0.5372      0.1253     -0.0343      0.3055      0.0226
         5         0.9932      0.5004     -0.0462      1.2390      0.0945
         6         0.0837     -0.1178      0.0059      0.0209      0.0019
 Ground to excited state transition velocity dipole moments (Au):
       state          X           Y           Z        Dip. S.      Osc.
         1        -0.0000      0.0000     -0.0000      0.0000      0.0000
         2        -0.0000     -0.0000     -0.0000      0.0000      0.0000
         3        -0.0000     -0.0000     -0.0000      0.0000      0.0000
         4        -0.0629     -0.0163      0.0037      0.0042      0.0255
         5        -0.1185     -0.0606      0.0060      0.0177      0.1034
         6        -0.0089      0.0158     -0.0006      0.0003      0.0016
 Ground to excited state transition magnetic dipole moments (Au):
       state          X           Y           Z
         1         0.0000     -0.0000      0.0000
         2         0.0000     -0.0000      0.0000
         3        -0.0000      0.0000      0.0000
         4         0.0533      0.1012     -0.1821
         5        -0.0414     -0.0753     -0.4380
         6         0.0221      0.0323      0.0170
 Ground to excited state transition velocity quadrupole moments (Au):
       state          XX          YY          ZZ          XY          XZ          YZ
         1        -0.0000     -0.0000     -0.0000      0.0000     -0.0000      0.0000
         2         0.0000     -0.0000      0.0000      0.0000     -0.0000      0.0000
         3        -0.0000     -0.0000     -0.0000     -0.0000     -0.0000     -0.0000
         4        -0.1049     -0.2060     -0.0042     -0.2746      0.0140      0.0199
         5        -0.2599     -0.3389      0.0097     -0.5726      0.0025      0.0205
         6         0.1760      0.0185     -0.0072      0.1171      0.0040     -0.0069
 <0|del|b> * <b|rxdel|0> + <0|del|b> * <b|delr+rdel|0>
 Rotatory Strengths (R) in cgs (10**-40 erg-esu-cm/Gauss)
       state          XX          YY          ZZ    R(velocity)    E-M Angle
         1        -0.0000     -0.0000      0.0000     -0.0000       90.00
         2        -0.0000     -0.0000      0.0000     -0.0000       90.00
         3        -0.0000     -0.0000     -0.0000     -0.0000       90.00
         4        -9.9378    -13.5768    -12.7060    -12.0735      113.96
         5        -4.0333     10.1692     36.3139     14.1499       83.37
         6         0.9261     -0.1832      0.8015      0.5148       66.75
 1/2[<0|r|b>*<b|rxdel|0> + (<0|rxdel|b>*<b|r|0>)*]
 Rotatory Strengths (R) in cgs (10**-40 erg-esu-cm/Gauss)
       state          XX          YY          ZZ     R(length)
         1        -0.0000     -0.0000      0.0000     -0.0000
         2        -0.0000      0.0000      0.0000     -0.0000
         3         0.0000     -0.0000      0.0000      0.0000
         4       -20.2669     -8.9669     -4.4115    -11.2151
         5        29.1116     26.6632    -14.2981     13.8256
         6        -1.3046      2.6931     -0.0702      0.4394
  1/2[<0|del|b>*<b|r|0> + (<0|r|b>*<b|del|0>)*] (Au)
       state          X           Y           Z        Dip. S.   Osc.(frdel)
         1        -0.0000     -0.0000      0.0000      0.0000      0.0000
         2        -0.0000     -0.0000      0.0000      0.0000      0.0000
         3        -0.0000     -0.0000      0.0000      0.0000      0.0000
         4        -0.0338     -0.0020     -0.0001      0.0360      0.0240
         5        -0.1177     -0.0303     -0.0003      0.1483      0.0989
         6        -0.0007     -0.0019     -0.0000      0.0026      0.0017

 Excitation energies and oscillator strengths:
 
 Excited State   1:      Triplet-A      1.1612 eV 1067.72 nm  f=0.0000  <S**2>=2.000
      71 -> 75         0.11521
      74 -> 75         0.72057
      74 <- 75         0.24041
 This state for optimization and/or second-order correction.
 Total Energy, E(TD-HF/TD-DFT) =  -1423.26832731    
 Copying the excited state density for this state as the 1-particle RhoCI density.
 
 Excited State   2:      Triplet-A      2.8289 eV  438.28 nm  f=0.0000  <S**2>=2.000
      67 -> 76         0.68825
      68 -> 76        -0.12031
      74 -> 76         0.10692
      67 <- 76         0.18320
 
 Excited State   3:      Triplet-A      2.8703 eV  431.96 nm  f=0.0000  <S**2>=2.000
      67 -> 76        -0.14796
      68 -> 76        -0.17207
      72 -> 75         0.17219
      72 -> 76         0.29473
      74 -> 76         0.55488
 
 Excited State   4:      Singlet-A      3.0193 eV  410.64 nm  f=0.0226  <S**2>=0.000
      72 -> 76         0.15807
      74 -> 75         0.37771
      74 -> 76         0.57048
 
 Excited State   5:      Singlet-A      3.1128 eV  398.31 nm  f=0.0945  <S**2>=0.000
      72 -> 76        -0.10188
      74 -> 75         0.58725
      74 -> 76        -0.36556
 
 Excited State   6:      Singlet-A      3.8050 eV  325.84 nm  f=0.0019  <S**2>=0.000
      73 -> 75         0.70096
 SavETr:  write IOETrn=   770 NScale= 10 NData=  16 NLR=1 NState=    6 LETran=     118.

 **********************************************************************

            Population analysis using the SCF Density.

 **********************************************************************

 Orbital symmetries:
       Occupied  (A) (A) (A) (A) (A) (A) (A) (A) (A) (A) (A) (A)
                 (A) (A) (A) (A) (A) (A) (A) (A) (A) (A) (A) (A)
                 (A) (A) (A) (A) (A) (A) (A) (A) (A) (A) (A) (A)
                 (A) (A) (A) (A) (A) (A) (A) (A) (A) (A) (A) (A)
                 (A) (A) (A) (A) (A) (A) (A) (A) (A) (A) (A) (A)
                 (A) (A) (A) (A) (A) (A) (A) (A) (A) (A) (A) (A)
                 (A) (A)
       Virtual   (A) (A) (A) (A) (A) (A) (A) (A) (A) (A) (A) (A)
                 (A) (A) (A) (A) (A) (A) (A) (A) (A) (A) (A) (A)
                 (A) (A) (A) (A) (A) (A) (A) (A) (A) (A) (A) (A)
                 (A) (A) (A) (A) (A) (A) (A) (A) (A) (A) (A) (A)
                 (A) (A) (A) (A) (A) (A) (A) (A) (A) (A) (A) (A)
                 (A) (A) (A) (A) (A) (A) (A) (A) (A) (A) (A) (A)
                 (A) (A) (A) (A) (A) (A) (A) (A) (A) (A) (A) (A)
                 (A) (A) (A) (A) (A) (A) (A) (A) (A) (A) (A) (A)
                 (A) (A) (A) (A) (A) (A) (A) (A) (A) (A) (A) (A)
                 (A) (A) (A) (A) (A) (A) (A) (A) (A) (A) (A) (A)
                 (A) (A) (A) (A) (A) (A) (A) (A) (A) (A) (A) (A)
                 (A) (A) (A) (A) (A) (A) (A) (A) (A) (A) (A) (A)
                 (A) (A) (A) (A) (A) (A) (A) (A) (A) (A) (A) (A)
                 (A) (A) (A) (A) (A) (A) (A) (A) (A) (A) (A) (A)
                 (A) (A) (A) (A) (A) (A) (A) (A) (A) (A) (A) (A)
                 (A) (A) (A) (A) (A) (A) (A) (A) (A) (A) (A) (A)
                 (A) (A) (A) (A) (A) (A) (A) (A) (A) (A) (A) (A)
                 (A) (A) (A) (A) (A) (A) (A) (A) (A) (A) (A) (A)
                 (A) (A) (A) (A) (A) (A) (A) (A) (A) (A) (A) (A)
                 (A) (A) (A) (A) (A) (A) (A) (A) (A) (A) (A) (A)
                 (A) (A) (A) (A) (A) (A) (A) (A) (A) (A) (A) (A)
                 (A) (A) (A) (A) (A) (A) (A) (A) (A) (A) (A) (A)
                 (A) (A) (A) (A) (A) (A) (A) (A) (A) (A) (A) (A)
                 (A) (A) (A) (A) (A) (A) (A) (A) (A) (A) (A) (A)
                 (A) (A) (A) (A) (A) (A) (A) (A) (A) (A) (A) (A)
                 (A) (A) (A) (A) (A) (A) (A) (A) (A) (A) (A) (A)
                 (A) (A) (A) (A) (A) (A) (A) (A) (A) (A) (A) (A)
                 (A) (A) (A) (A) (A)
 The electronic state is 1-A.
 Alpha  occ. eigenvalues -- -101.59530 -19.31474 -19.24294 -19.22485 -19.22471
 Alpha  occ. eigenvalues --  -19.22112 -19.18205 -14.60929 -14.57827 -14.44841
 Alpha  occ. eigenvalues --  -10.33507 -10.31776 -10.30174 -10.29979 -10.29803
 Alpha  occ. eigenvalues --  -10.27795 -10.26205 -10.25983 -10.24829  -9.50981
 Alpha  occ. eigenvalues --   -7.27439  -7.26398  -7.26359  -1.26444  -1.25298
 Alpha  occ. eigenvalues --   -1.15582  -1.12965  -1.09308  -1.06151  -0.96470
 Alpha  occ. eigenvalues --   -0.92596  -0.91712  -0.87578  -0.82032  -0.80355
 Alpha  occ. eigenvalues --   -0.76944  -0.71872  -0.69050  -0.67666  -0.65263
 Alpha  occ. eigenvalues --   -0.64041  -0.60648  -0.59112  -0.57721  -0.57181
 Alpha  occ. eigenvalues --   -0.55771  -0.54610  -0.54349  -0.53382  -0.52996
 Alpha  occ. eigenvalues --   -0.49895  -0.49640  -0.48823  -0.48386  -0.47462
 Alpha  occ. eigenvalues --   -0.45725  -0.45256  -0.45004  -0.42324  -0.41634
 Alpha  occ. eigenvalues --   -0.40645  -0.39066  -0.38222  -0.37174  -0.35646
 Alpha  occ. eigenvalues --   -0.34831  -0.34490  -0.34304  -0.33988  -0.32787
 Alpha  occ. eigenvalues --   -0.32114  -0.29857  -0.28478  -0.24914
 Alpha virt. eigenvalues --   -0.12781  -0.10739  -0.04719  -0.03731  -0.02804
 Alpha virt. eigenvalues --   -0.01138   0.00171   0.00626   0.01028   0.01319
 Alpha virt. eigenvalues --    0.02308   0.02351   0.02992   0.04003   0.04347
 Alpha virt. eigenvalues --    0.04958   0.05419   0.05941   0.06393   0.07077
 Alpha virt. eigenvalues --    0.07663   0.07880   0.08799   0.09031   0.09400
 Alpha virt. eigenvalues --    0.09937   0.10530   0.10677   0.10928   0.11190
 Alpha virt. eigenvalues --    0.11746   0.12436   0.12812   0.13071   0.13691
 Alpha virt. eigenvalues --    0.14840   0.15071   0.15401   0.15487   0.16015
 Alpha virt. eigenvalues --    0.16271   0.16609   0.17254   0.17915   0.18189
 Alpha virt. eigenvalues --    0.18240   0.18757   0.18990   0.19415   0.19914
 Alpha virt. eigenvalues --    0.20166   0.20478   0.21075   0.21412   0.21862
 Alpha virt. eigenvalues --    0.21918   0.22749   0.22979   0.23351   0.23934
 Alpha virt. eigenvalues --    0.24254   0.24678   0.24909   0.25055   0.25619
 Alpha virt. eigenvalues --    0.25904   0.26645   0.26898   0.27353   0.27477
 Alpha virt. eigenvalues --    0.28179   0.28525   0.28929   0.29257   0.29322
 Alpha virt. eigenvalues --    0.29946   0.30620   0.30943   0.31372   0.31677
 Alpha virt. eigenvalues --    0.32062   0.33322   0.33357   0.34755   0.35016
 Alpha virt. eigenvalues --    0.35902   0.36563   0.36853   0.37625   0.37778
 Alpha virt. eigenvalues --    0.38714   0.39337   0.39711   0.40296   0.41401
 Alpha virt. eigenvalues --    0.41808   0.42660   0.43843   0.44051   0.45414
 Alpha virt. eigenvalues --    0.46901   0.48159   0.48666   0.49303   0.51456
 Alpha virt. eigenvalues --    0.53306   0.54026   0.61133   0.61185   0.62277
 Alpha virt. eigenvalues --    0.62683   0.63172   0.65250   0.66376   0.66718
 Alpha virt. eigenvalues --    0.67348   0.67477   0.68761   0.69539   0.69862
 Alpha virt. eigenvalues --    0.70692   0.73514   0.75424   0.76271   0.78587
 Alpha virt. eigenvalues --    0.79440   0.79755   0.81602   0.83194   0.83873
 Alpha virt. eigenvalues --    0.85683   0.86166   0.86451   0.87021   0.88494
 Alpha virt. eigenvalues --    0.88746   0.89579   0.90559   0.93104   0.93807
 Alpha virt. eigenvalues --    0.94959   0.95662   0.96627   0.98151   0.99019
 Alpha virt. eigenvalues --    0.99711   1.00584   1.01662   1.03893   1.05022
 Alpha virt. eigenvalues --    1.05654   1.06232   1.07284   1.08732   1.09925
 Alpha virt. eigenvalues --    1.11350   1.11474   1.14669   1.15295   1.15923
 Alpha virt. eigenvalues --    1.16345   1.17017   1.17646   1.18034   1.19464
 Alpha virt. eigenvalues --    1.20206   1.21139   1.22531   1.22862   1.25544
 Alpha virt. eigenvalues --    1.26059   1.26148   1.26572   1.28022   1.28704
 Alpha virt. eigenvalues --    1.29329   1.30210   1.31633   1.33001   1.33453
 Alpha virt. eigenvalues --    1.34173   1.35522   1.36145   1.37283   1.38094
 Alpha virt. eigenvalues --    1.39340   1.39923   1.41592   1.42132   1.43499
 Alpha virt. eigenvalues --    1.45053   1.46407   1.46802   1.47548   1.48234
 Alpha virt. eigenvalues --    1.50226   1.53658   1.57433   1.58294   1.62019
 Alpha virt. eigenvalues --    1.62440   1.62994   1.64579   1.69095   1.70184
 Alpha virt. eigenvalues --    1.71760   1.72166   1.73306   1.75407   1.75827
 Alpha virt. eigenvalues --    1.77168   1.78476   1.78774   1.79298   1.81510
 Alpha virt. eigenvalues --    1.81836   1.84142   1.85072   1.86346   1.86723
 Alpha virt. eigenvalues --    1.87434   1.88027   1.89209   1.90394   1.92335
 Alpha virt. eigenvalues --    1.93727   1.94553   1.96199   1.97031   1.98626
 Alpha virt. eigenvalues --    1.99144   2.00588   2.01012   2.01328   2.02159
 Alpha virt. eigenvalues --    2.03342   2.03687   2.04966   2.05599   2.07124
 Alpha virt. eigenvalues --    2.07273   2.08420   2.10550   2.11190   2.13580
 Alpha virt. eigenvalues --    2.14936   2.16580   2.18126   2.20332   2.22106
 Alpha virt. eigenvalues --    2.22915   2.23976   2.24971   2.27740   2.31313
 Alpha virt. eigenvalues --    2.35730   2.38955   2.39539   2.43515   2.43950
 Alpha virt. eigenvalues --    2.45538   2.47636   2.49454   2.51005   2.52527
 Alpha virt. eigenvalues --    2.54846   2.56511   2.57734   2.58985   2.60438
 Alpha virt. eigenvalues --    2.62605   2.64066   2.67339   2.68616   2.68812
 Alpha virt. eigenvalues --    2.71453   2.71849   2.73561   2.76039   2.77772
 Alpha virt. eigenvalues --    2.80661   2.81377   2.82231   2.84095   2.85987
 Alpha virt. eigenvalues --    2.87162   2.89222   2.92009   2.93314   2.94619
 Alpha virt. eigenvalues --    2.95618   2.97797   3.01178   3.04432   3.05566
 Alpha virt. eigenvalues --    3.06899   3.10315   3.13273   3.13635   3.20029
 Alpha virt. eigenvalues --    3.22108   3.26337   3.32076   3.34482   3.35909
 Alpha virt. eigenvalues --    3.38088   3.41010   3.45812   3.51939   3.55901
 Alpha virt. eigenvalues --    4.09876   4.18140   4.26242   4.28994   4.29982
 Alpha virt. eigenvalues --    4.34323   4.37791   4.39693   4.42705   4.46518
 Alpha virt. eigenvalues --    4.49717   4.52755   4.55054   4.57815   4.58825
 Alpha virt. eigenvalues --    4.65166   4.75987   4.84725   5.14263
          Condensed to atoms (all electrons):
               1          2          3          4          5          6
     1  C    4.974682   0.047220   0.005973  -0.094978  -0.000428   0.003492
     2  O    0.047220   8.400756  -0.087115   0.218537  -0.001060   0.023207
     3  C    0.005973  -0.087115   8.801848  -2.731840  -0.065831   0.270680
     4  C   -0.094978   0.218537  -2.731840   8.415790  -0.105149  -0.329352
     5  O   -0.000428  -0.001060  -0.065831  -0.105149   8.553662   0.861420
     6  C    0.003492   0.023207   0.270680  -0.329352   0.861420  27.354391
     7  C    0.009296  -0.004735   0.160073  -1.188522  -0.585458  -3.145009
     8  N   -0.001821   0.000011  -0.050160   0.042044   0.010404   0.815082
     9  O    0.000488  -0.000017   0.011776  -0.017805   0.003643  -0.191574
    10  O    0.000191   0.000059   0.000998   0.000636  -0.005310  -0.119122
    11  C   -0.001251  -0.000975  -0.142366   0.098486  -0.127828 -13.807462
    12  Cl   0.000035   0.000005   0.001392  -0.010886   0.002879   0.115392
    13  C   -0.000020  -0.000217   0.105290   0.368518  -0.080677  -1.296358
    14  C    0.000456   0.000662   0.016691  -0.617817   0.072343  -3.688492
    15  C   -0.014396   0.008469  -1.143400   1.261581  -0.041150  -0.631610
    16  N   -0.000633  -0.001469   0.071850   0.179517  -0.018198  -0.333429
    17  O   -0.000114  -0.000064  -0.018067  -0.038967   0.002453   0.098368
    18  N    0.000032  -0.000073  -0.022006  -0.003612  -0.009301  -0.033191
    19  O    0.000003   0.000001   0.000451   0.001320  -0.000208   0.016611
    20  H    0.424165  -0.060092   0.036943  -0.035490  -0.000028   0.000263
    21  H    0.405796  -0.051155  -0.018674   0.011687  -0.000050   0.000041
    22  H    0.404426  -0.051498  -0.020657   0.015362   0.000060   0.000163
    23  H   -0.009117  -0.053220   0.452024  -0.082646  -0.000068   0.019218
    24  H   -0.005262  -0.052035   0.444582  -0.085884   0.002161   0.008732
    25  H   -0.000663   0.003864  -0.034375   0.374722  -0.054804   0.084807
    26  H   -0.000135   0.004864   0.038111   0.342970  -0.040347  -0.005504
    27  H   -0.000000   0.000000  -0.000030   0.000114   0.000052  -0.008564
               7          8          9         10         11         12
     1  C    0.009296  -0.001821   0.000488   0.000191  -0.001251   0.000035
     2  O   -0.004735   0.000011  -0.000017   0.000059  -0.000975   0.000005
     3  C    0.160073  -0.050160   0.011776   0.000998  -0.142366   0.001392
     4  C   -1.188522   0.042044  -0.017805   0.000636   0.098486  -0.010886
     5  O   -0.585458   0.010404   0.003643  -0.005310  -0.127828   0.002879
     6  C   -3.145009   0.815082  -0.191574  -0.119122 -13.807462   0.115392
     7  C   35.777811  -1.368214   0.271966   0.236400  -7.820994   0.438384
     8  N   -1.368214   7.706668   0.212418   0.257882  -0.311512  -0.049847
     9  O    0.271966   0.212418   7.755820  -0.084101  -0.021926   0.006885
    10  O    0.236400   0.257882  -0.084101   7.711174  -0.059525   0.018614
    11  C   -7.820994  -0.311512  -0.021926  -0.059525  25.351826  -0.529271
    12  Cl   0.438384  -0.049847   0.006885   0.018614  -0.529271  16.987742
    13  C   -9.353709   0.045956  -0.001351  -0.027571   2.452924  -0.202083
    14  C    4.848537   0.024790  -0.005448   0.004552   0.972700  -0.035767
    15  C  -11.671716   0.117514   0.003246   0.022645  -0.255192  -0.042633
    16  N   -0.260666   0.004214  -0.000610  -0.000774  -0.005773  -0.000641
    17  O    0.023033   0.001628  -0.000094  -0.000122   0.023051  -0.001452
    18  N   -0.098636  -0.003523   0.000512   0.000656   0.024361  -0.002235
    19  O   -0.009026  -0.000786   0.000022   0.000019   0.067067   0.003809
    20  H    0.000014  -0.000000   0.000000   0.000000  -0.000003   0.000000
    21  H    0.000134  -0.000012   0.000001   0.000000   0.000021  -0.000000
    22  H    0.000155   0.000005  -0.000000  -0.000000  -0.000001   0.000000
    23  H   -0.009700   0.000711  -0.000127  -0.000005  -0.001638   0.000001
    24  H    0.006087  -0.001410   0.000366   0.000031  -0.000144   0.000015
    25  H   -0.026932   0.001501  -0.000282  -0.000000  -0.011711  -0.000008
    26  H    0.008443  -0.000925   0.000062   0.000049   0.003445   0.000015
    27  H    0.058574   0.001681  -0.000112  -0.000150   0.013157  -0.018132
              13         14         15         16         17         18
     1  C   -0.000020   0.000456  -0.014396  -0.000633  -0.000114   0.000032
     2  O   -0.000217   0.000662   0.008469  -0.001469  -0.000064  -0.000073
     3  C    0.105290   0.016691  -1.143400   0.071850  -0.018067  -0.022006
     4  C    0.368518  -0.617817   1.261581   0.179517  -0.038967  -0.003612
     5  O   -0.080677   0.072343  -0.041150  -0.018198   0.002453  -0.009301
     6  C   -1.296358  -3.688492  -0.631610  -0.333429   0.098368  -0.033191
     7  C   -9.353709   4.848537 -11.671716  -0.260666   0.023033  -0.098636
     8  N    0.045956   0.024790   0.117514   0.004214   0.001628  -0.003523
     9  O   -0.001351  -0.005448   0.003246  -0.000610  -0.000094   0.000512
    10  O   -0.027571   0.004552   0.022645  -0.000774  -0.000122   0.000656
    11  C    2.452924   0.972700  -0.255192  -0.005773   0.023051   0.024361
    12  Cl  -0.202083  -0.035767  -0.042633  -0.000641  -0.001452  -0.002235
    13  C   15.703350  -2.884496   0.627078   0.223559   0.047014  -0.274930
    14  C   -2.884496  16.019911  -7.241350   0.181441  -0.283278  -0.762835
    15  C    0.627078  -7.241350  23.561496  -0.361636   0.205288   0.774365
    16  N    0.223559   0.181441  -0.361636   8.199720  -0.222158  -0.153033
    17  O    0.047014  -0.283278   0.205288  -0.222158   7.737931   0.122875
    18  N   -0.274930  -0.762835   0.774365  -0.153033   0.122875   7.617857
    19  O   -0.049593  -0.187416   0.036874   0.010428  -0.068016   0.387603
    20  H    0.000000   0.000017  -0.000314  -0.000004  -0.000000  -0.000000
    21  H   -0.000002  -0.000003   0.000234  -0.000012  -0.000000   0.000000
    22  H   -0.000003   0.000006   0.000059  -0.000000   0.000000   0.000000
    23  H    0.000007   0.000006  -0.003102   0.000305   0.000002  -0.000006
    24  H   -0.000707   0.001526  -0.004424  -0.000251  -0.000000  -0.000013
    25  H   -0.000099  -0.004325  -0.008913   0.004010   0.000810   0.000667
    26  H   -0.001833   0.007497  -0.020635  -0.003013  -0.000284  -0.000671
    27  H    0.104479   0.162259   0.025262  -0.001418  -0.000901  -0.018306
              19         20         21         22         23         24
     1  C    0.000003   0.424165   0.405796   0.404426  -0.009117  -0.005262
     2  O    0.000001  -0.060092  -0.051155  -0.051498  -0.053220  -0.052035
     3  C    0.000451   0.036943  -0.018674  -0.020657   0.452024   0.444582
     4  C    0.001320  -0.035490   0.011687   0.015362  -0.082646  -0.085884
     5  O   -0.000208  -0.000028  -0.000050   0.000060  -0.000068   0.002161
     6  C    0.016611   0.000263   0.000041   0.000163   0.019218   0.008732
     7  C   -0.009026   0.000014   0.000134   0.000155  -0.009700   0.006087
     8  N   -0.000786  -0.000000  -0.000012   0.000005   0.000711  -0.001410
     9  O    0.000022   0.000000   0.000001  -0.000000  -0.000127   0.000366
    10  O    0.000019   0.000000   0.000000  -0.000000  -0.000005   0.000031
    11  C    0.067067  -0.000003   0.000021  -0.000001  -0.001638  -0.000144
    12  Cl   0.003809   0.000000  -0.000000   0.000000   0.000001   0.000015
    13  C   -0.049593   0.000000  -0.000002  -0.000003   0.000007  -0.000707
    14  C   -0.187416   0.000017  -0.000003   0.000006   0.000006   0.001526
    15  C    0.036874  -0.000314   0.000234   0.000059  -0.003102  -0.004424
    16  N    0.010428  -0.000004  -0.000012  -0.000000   0.000305  -0.000251
    17  O   -0.068016  -0.000000  -0.000000   0.000000   0.000002  -0.000000
    18  N    0.387603  -0.000000   0.000000   0.000000  -0.000006  -0.000013
    19  O    7.745298   0.000000  -0.000000  -0.000000   0.000000  -0.000000
    20  H    0.000000   0.542330  -0.029221  -0.029243  -0.000137  -0.000133
    21  H   -0.000000  -0.029221   0.588832  -0.046263  -0.002205   0.008783
    22  H   -0.000000  -0.029243  -0.046263   0.589388   0.008696  -0.002250
    23  H    0.000000  -0.000137  -0.002205   0.008696   0.596801  -0.050643
    24  H   -0.000000  -0.000133   0.008783  -0.002250  -0.050643   0.593289
    25  H    0.000003   0.000007  -0.000016   0.000002   0.004506  -0.007342
    26  H   -0.000001   0.000008   0.000004  -0.000023  -0.007128   0.004354
    27  H    0.004726  -0.000000   0.000000   0.000000   0.000000  -0.000000
              25         26         27
     1  C   -0.000663  -0.000135  -0.000000
     2  O    0.003864   0.004864   0.000000
     3  C   -0.034375   0.038111  -0.000030
     4  C    0.374722   0.342970   0.000114
     5  O   -0.054804  -0.040347   0.000052
     6  C    0.084807  -0.005504  -0.008564
     7  C   -0.026932   0.008443   0.058574
     8  N    0.001501  -0.000925   0.001681
     9  O   -0.000282   0.000062  -0.000112
    10  O   -0.000000   0.000049  -0.000150
    11  C   -0.011711   0.003445   0.013157
    12  Cl  -0.000008   0.000015  -0.018132
    13  C   -0.000099  -0.001833   0.104479
    14  C   -0.004325   0.007497   0.162259
    15  C   -0.008913  -0.020635   0.025262
    16  N    0.004010  -0.003013  -0.001418
    17  O    0.000810  -0.000284  -0.000901
    18  N    0.000667  -0.000671  -0.018306
    19  O    0.000003  -0.000001   0.004726
    20  H    0.000007   0.000008  -0.000000
    21  H   -0.000016   0.000004   0.000000
    22  H    0.000002  -0.000023   0.000000
    23  H    0.004506  -0.007128   0.000000
    24  H   -0.007342   0.004354  -0.000000
    25  H    0.548046  -0.038701  -0.000000
    26  H   -0.038701   0.528182   0.000000
    27  H   -0.000000   0.000000   0.498243
 Mulliken charges:
               1
     1  C   -0.147438
     2  O   -0.343931
     3  C   -0.084162
     4  C    0.011663
     5  O   -0.373182
     6  C   -0.082200
     7  C   -0.295592
     8  N   -0.454300
     9  O    0.056243
    10  O    0.042774
    11  C    0.090537
    12  Cl   0.317788
    13  C    0.495473
    14  C   -0.602164
    15  C    0.796359
    16  N   -0.511325
    17  O    0.371064
    18  N   -0.546555
    19  O    0.040812
    20  H    0.150918
    21  H    0.132077
    22  H    0.131617
    23  H    0.137464
    24  H    0.140572
    25  H    0.165225
    26  H    0.181196
    27  H    0.179066
 Sum of Mulliken charges =  -0.00000
 Mulliken charges with hydrogens summed into heavy atoms:
               1
     1  C    0.267174
     2  O   -0.343931
     3  C    0.193874
     4  C    0.358084
     5  O   -0.373182
     6  C   -0.082200
     7  C   -0.295592
     8  N   -0.454300
     9  O    0.056243
    10  O    0.042774
    11  C    0.090537
    12  Cl   0.317788
    13  C    0.674539
    14  C   -0.602164
    15  C    0.796359
    16  N   -0.511325
    17  O    0.371064
    18  N   -0.546555
    19  O    0.040812
 Electronic spatial extent (au):  <R**2>=           6510.6942
 Charge=             -0.0000 electrons
 Dipole moment (field-independent basis, Debye):
    X=             -1.9635    Y=             -0.0121    Z=             -0.1510  Tot=              1.9693
 Quadrupole moment (field-independent basis, Debye-Ang):
   XX=            -99.6477   YY=           -141.7038   ZZ=           -117.3209
   XY=             -1.5878   XZ=             -0.6826   YZ=              0.8252
 Traceless Quadrupole moment (field-independent basis, Debye-Ang):
   XX=             19.9098   YY=            -22.1463   ZZ=              2.2366
   XY=             -1.5878   XZ=             -0.6826   YZ=              0.8252
 Octapole moment (field-independent basis, Debye-Ang**2):
  XXX=           -105.6973  YYY=            -22.9972  ZZZ=              0.0684  XYY=            -22.2336
  XXY=            -55.4225  XXZ=              0.2626  XZZ=             -4.7588  YZZ=              9.9802
  YYZ=             -1.6960  XYZ=              1.7107
 Hexadecapole moment (field-independent basis, Debye-Ang**3):
 XXXX=          -4521.5419 YYYY=          -3106.5378 ZZZZ=           -222.7427 XXXY=              7.3031
 XXXZ=              2.1693 YYYX=           -154.7612 YYYZ=              9.7077 ZZZX=             -1.2010
 ZZZY=              0.8055 XXYY=          -1452.7899 XXZZ=           -922.4932 YYZZ=           -516.8004
 XXYZ=              7.7871 YYXZ=             -0.7542 ZZXY=             11.1020
 N-N= 1.581523707755D+03 E-N=-6.504035493316D+03  KE= 1.413321571640D+03
 Unable to Open any file for archive entry.
 1\1\GINC-N2\SP\RB3LYP TD-FC\6-31+G(d,p)\C9H8Cl1N3O6\HPCMGAC13\21-Sep-2
 025\0\\# td=(50-50,nstates=3) b3lyp/6-31+g(d,p) geom=connectivity\\Tit
 le Card Required\\0,1\C,0,6.088368,-0.033811,0.135521\O,0,4.815402,0.5
 94038,0.151077\C,0,3.747938,-0.310545,-0.046119\C,0,2.470968,0.514952,
 0.003307\O,0,1.390895,-0.424332,-0.2288\C,0,0.107393,-0.069258,-0.1028
 3\C,0,-0.843475,-1.066953,-0.035682\N,0,-0.347748,-2.461649,-0.063456\
 O,0,0.013711,-2.941869,1.005096\O,0,-0.333765,-3.022442,-1.153224\C,0,
 -2.256684,-0.832626,0.051806\Cl,0,-3.329337,-2.199945,0.136254\C,0,-2.
 76678,0.439102,0.084285\C,0,-1.810755,1.478036,0.019472\C,0,-0.401784,
 1.279436,-0.075872\N,0,0.253066,2.431662,-0.134968\O,0,-0.69689,3.4069
 45,-0.076493\N,0,-2.012966,2.806548,0.020727\O,0,-3.00089,3.526641,0.0
 82401\H,0,6.830792,0.750043,0.295918\H,0,6.173422,-0.782938,0.936379\H
 ,0,6.280196,-0.522154,-0.83122\H,0,3.82921,-0.816759,-1.020854\H,0,3.7
 29115,-1.082876,0.73839\H,0,2.347569,0.987226,0.981483\H,0,2.469925,1.
 28417,-0.7718\H,0,-3.826794,0.644561,0.15549\\Version=ES64L-G16RevC.02
 \State=1-A\HF=-1423.3110007\RMSD=3.912e-09\PG=C01 [X(C9H8Cl1N3O6)]\\@
 The archive entry for this job was punched.


 Just remember, when you're over the hill, you begin to pick up speed.
 -- Charles Schulz
 Job cpu time:       0 days  0 hours 56 minutes  7.0 seconds.
 Elapsed time:       0 days  0 hours  7 minutes  9.5 seconds.
 File lengths (MBytes):  RWF=   1034 Int=      0 D2E=      0 Chk=     44 Scr=      2
 Normal termination of Gaussian 16 at Sun Sep 21 21:20:37 2025.
