 Entering Gaussian System, Link 0=g16
 Input=M1555e.gjf
 Output=M1555e.log
 Initial command:
 /hpc/softwares/Gaussian/g16/l1.exe "/hpc/home/hpcmgac13/pbs.14215.admin1.x8z/Gau-5761.inp" -scrdir="/hpc/home/hpcmgac13/pbs.14215.admin1.x8z/"
 Default linda workers: n2
 Default is to use   8 SMP processors on each worker.
 Entering Link 1 = /hpc/softwares/Gaussian/g16/l1.exe PID=      5762.
  
 Copyright (c) 1988-2021, Gaussian, Inc.  All Rights Reserved.
  
 This is part of the Gaussian(R) 16 program.  It is based on
 the Gaussian(R) 09 system (copyright 2009, Gaussian, Inc.),
 the Gaussian(R) 03 system (copyright 2003, Gaussian, Inc.),
 the Gaussian(R) 98 system (copyright 1998, Gaussian, Inc.),
 the Gaussian(R) 94 system (copyright 1995, Gaussian, Inc.),
 the Gaussian 92(TM) system (copyright 1992, Gaussian, Inc.),
 the Gaussian 90(TM) system (copyright 1990, Gaussian, Inc.),
 the Gaussian 88(TM) system (copyright 1988, Gaussian, Inc.),
 the Gaussian 86(TM) system (copyright 1986, Carnegie Mellon
 University), and the Gaussian 82(TM) system (copyright 1983,
 Carnegie Mellon University). Gaussian is a federally registered
 trademark of Gaussian, Inc.
  
 This software contains proprietary and confidential information,
 including trade secrets, belonging to Gaussian, Inc.
  
 This software is provided under written license and may be
 used, copied, transmitted, or stored only in accord with that
 written license.
  
 The following legend is applicable only to US Government
 contracts under FAR:
  
                    RESTRICTED RIGHTS LEGEND
  
 Use, reproduction and disclosure by the US Government is
 subject to restrictions as set forth in subparagraphs (a)
 and (c) of the Commercial Computer Software - Restricted
 Rights clause in FAR 52.227-19.
  
 Gaussian, Inc.
 340 Quinnipiac St., Bldg. 40, Wallingford CT 06492
  
  
 ---------------------------------------------------------------
 Warning -- This program may not be used in any manner that
 competes with the business of Gaussian, Inc. or will provide
 assistance to any competitor of Gaussian, Inc.  The licensee
 of this program is prohibited from giving any competitor of
 Gaussian, Inc. access to this program.  By using this program,
 the user acknowledges that Gaussian, Inc. is engaged in the
 business of creating and licensing software in the field of
 computational chemistry and represents and warrants to the
 licensee that it is not a competitor of Gaussian, Inc. and that
 it will not use this program in any manner prohibited above.
 ---------------------------------------------------------------
  

 Cite this work as:
 Gaussian 16, Revision C.02,
 M. J. Frisch, G. W. Trucks, H. B. Schlegel, G. E. Scuseria, 
 M. A. Robb, J. R. Cheeseman, G. Scalmani, V. Barone, 
 G. A. Petersson, H. Nakatsuji, X. Li, M. Caricato, A. V. Marenich, 
 J. Bloino, B. G. Janesko, R. Gomperts, B. Mennucci, H. P. Hratchian, 
 J. V. Ortiz, A. F. Izmaylov, J. L. Sonnenberg, D. Williams-Young, 
 F. Ding, F. Lipparini, F. Egidi, J. Goings, B. Peng, A. Petrone, 
 T. Henderson, D. Ranasinghe, V. G. Zakrzewski, J. Gao, N. Rega, 
 G. Zheng, W. Liang, M. Hada, M. Ehara, K. Toyota, R. Fukuda, 
 J. Hasegawa, M. Ishida, T. Nakajima, Y. Honda, O. Kitao, H. Nakai, 
 T. Vreven, K. Throssell, J. A. Montgomery, Jr., J. E. Peralta, 
 F. Ogliaro, M. J. Bearpark, J. J. Heyd, E. N. Brothers, K. N. Kudin, 
 V. N. Staroverov, T. A. Keith, R. Kobayashi, J. Normand, 
 K. Raghavachari, A. P. Rendell, J. C. Burant, S. S. Iyengar, 
 J. Tomasi, M. Cossi, J. M. Millam, M. Klene, C. Adamo, R. Cammi, 
 J. W. Ochterski, R. L. Martin, K. Morokuma, O. Farkas, 
 J. B. Foresman, and D. J. Fox, Gaussian, Inc., Wallingford CT, 2019.
 
 ******************************************
 Gaussian 16:  ES64L-G16RevC.02  7-Dec-2021
                21-Sep-2025 
 ******************************************
 SetLPE:    new flags="-opt 'Tsnet.Node.lindarsharg: ssh'  -nodelist 'n2.head.cm.mguif.local' -env GAUSS_MDEF=1342177280 -env GAUSS_EXEDIR="/hpc/softwares/Gaussian/g16/bsd:/hpc/softwares/Gaussian/g16""
 Will use up to    1 processors via Linda.
 ----------------------------------------------------------
 # td=(50-50,nstates=3) b3lyp/6-31+g(d,p) geom=connectivity
 ----------------------------------------------------------
 1/38=1,57=2,172=1/1;
 2/12=2,17=6,18=5,40=1/2;
 3/5=1,6=6,7=111,11=9,25=1,30=1,74=-5/1,2,3,8;
 4//1;
 5/5=2,38=5/2;
 8/6=1,10=2,108=3/1;
 9/41=3,42=1,48=2,70=2/14;
 6/7=2,8=2,9=2,10=2/1;
 99/5=1,9=1/99;
 -------------------
 Title Card Required
 -------------------
 Symbolic Z-matrix:
 Charge =  0 Multiplicity = 1
 C                    -1.42606   1.92526  -3.16333 
 C                    -1.18782   1.46417  -1.92785 
 C                    -2.05309   0.56611  -1.22351 
 C                    -2.76988  -0.22667  -0.62616 
 Si                   -3.96586  -1.38289   0.1865 
 C                    -4.51225  -2.66052  -1.0894 
 C                    -3.07709  -2.22847   1.62748 
 C                    -5.43397  -0.379     0.81449 
 O                     0.0089    1.79935  -1.30117 
 C                    -0.03318   1.9381    0.07556 
 C                     0.62738   3.01426   0.70824 
 O                     0.89072   4.15489   0.39737 
 O                     1.0354    2.53122   2.02973 
 N                     0.45756   1.26147   2.23453 
 N                     0.35371   0.70652   0.83251 
 C                     1.57021  -0.04898   0.45495 
 C                     1.61704  -1.40904   0.75283 
 C                     2.75628  -2.1452    0.43185 
 C                     3.82919  -1.49718  -0.18428 
 Cl                    5.26339  -2.41609  -0.59506 
 C                     3.77755  -0.13484  -0.48472 
 C                     2.63455   0.59819  -0.16492 
 H                    -0.72601   2.60643  -3.6332 
 H                    -2.31264   1.61895  -3.70316 
 H                    -5.22453  -3.36753  -0.64794 
 H                    -5.00095  -2.17959  -1.94342 
 H                    -3.65942  -3.23246  -1.47023 
 H                    -3.74905  -2.93244   2.1322 
 H                    -2.74196  -1.50387   2.37868 
 H                    -2.20602  -2.79682   1.28196 
 H                    -5.11758   0.37936   1.5385 
 H                    -5.93849   0.13704  -0.00922 
 H                    -6.16709  -1.03055   1.30458 
 H                     0.77802  -1.89894   1.24004 
 H                     2.8121   -3.2042    0.65613 
 H                     4.61827   0.3489   -0.96848 
 H                     2.57731   1.65246  -0.40778 
 H                    -0.43364   0.04825   0.85518 
 H                    -0.53605   1.4723    2.41696 
 
                          Input orientation:                          
 ---------------------------------------------------------------------
 Center     Atomic      Atomic             Coordinates (Angstroms)
 Number     Number       Type             X           Y           Z
 ---------------------------------------------------------------------
      1          6           0       -1.426058    1.925256   -3.163333
      2          6           0       -1.187816    1.464169   -1.927852
      3          6           0       -2.053090    0.566107   -1.223505
      4          6           0       -2.769879   -0.226671   -0.626162
      5         14           0       -3.965864   -1.382887    0.186500
      6          6           0       -4.512246   -2.660515   -1.089404
      7          6           0       -3.077092   -2.228473    1.627484
      8          6           0       -5.433972   -0.378998    0.814494
      9          8           0        0.008896    1.799354   -1.301165
     10          6           0       -0.033181    1.938095    0.075560
     11          6           0        0.627376    3.014257    0.708241
     12          8           0        0.890722    4.154888    0.397373
     13          8           0        1.035405    2.531224    2.029730
     14          7           0        0.457563    1.261474    2.234526
     15          7           0        0.353712    0.706523    0.832506
     16          6           0        1.570213   -0.048981    0.454946
     17          6           0        1.617037   -1.409036    0.752831
     18          6           0        2.756275   -2.145204    0.431852
     19          6           0        3.829194   -1.497179   -0.184277
     20         17           0        5.263389   -2.416093   -0.595055
     21          6           0        3.777546   -0.134843   -0.484722
     22          6           0        2.634545    0.598185   -0.164922
     23          1           0       -0.726013    2.606428   -3.633198
     24          1           0       -2.312643    1.618951   -3.703161
     25          1           0       -5.224528   -3.367525   -0.647935
     26          1           0       -5.000951   -2.179592   -1.943418
     27          1           0       -3.659424   -3.232463   -1.470231
     28          1           0       -3.749051   -2.932443    2.132201
     29          1           0       -2.741964   -1.503866    2.378677
     30          1           0       -2.206020   -2.796815    1.281956
     31          1           0       -5.117583    0.379360    1.538504
     32          1           0       -5.938490    0.137039   -0.009216
     33          1           0       -6.167092   -1.030553    1.304576
     34          1           0        0.778024   -1.898940    1.240044
     35          1           0        2.812104   -3.204196    0.656133
     36          1           0        4.618271    0.348900   -0.968484
     37          1           0        2.577312    1.652459   -0.407778
     38          1           0       -0.433638    0.048245    0.855183
     39          1           0       -0.536050    1.472298    2.416956
 ---------------------------------------------------------------------
                    Distance matrix (angstroms):
                    1          2          3          4          5
     1  C    0.000000
     2  C    1.340065   0.000000
     3  C    2.450181   1.432243   0.000000
     4  C    3.588019   2.656362   1.224378   0.000000
     5  Si   5.349374   4.504860   3.073336   1.851387   0.000000
     6  C    5.903815   5.363567   4.059128   3.028867   1.886478
     7  C    6.552199   5.463093   4.121456   3.029936   1.892450
     8  C    6.098858   5.380294   4.059190   3.032505   1.886136
     9  O    2.354276   1.391835   2.403896   3.504568   5.304576
    10  C    3.525720   2.360391   2.765855   3.559233   5.148517
    11  C    4.515706   3.556217   4.112174   4.881146   6.380043
    12  O    4.797641   4.119097   4.916566   5.800490   7.368707
    13  O    5.778746   4.663022   4.897349   5.398142   6.612901
    14  N    5.755477   4.480374   4.329537   4.562290   5.545607
    15  N    4.540883   3.251140   3.168532   3.571468   4.841662
    16  C    5.095802   3.946400   4.040279   4.476245   5.700835
    17  C    5.976142   4.827895   4.612692   4.748120   5.611613
    18  C    6.854627   5.843940   5.763801   5.944623   6.769673
    19  C    6.943019   6.081120   6.319684   6.734777   7.804708
    20  Cl   8.378070   7.645314   7.925865   8.326340   9.319735
    21  C    6.204552   5.412419   5.918906   6.549596   7.872011
    22  C    5.219203   4.297475   4.805783   5.486431   6.900257
    23  H    1.083896   2.103859   3.425006   4.609350   6.403231
    24  H    1.082252   2.107348   2.706389   3.617086   5.183979
    25  H    6.983490   6.424834   5.085544   3.986319   2.493853
    26  H    5.578336   5.274205   4.092313   3.244495   2.498539
    27  H    5.869973   5.326971   4.131624   3.246310   2.501918
    28  H    7.552233   6.509543   5.135844   3.986044   2.496775
    29  H    6.648636   5.456262   4.211300   3.265128   2.513604
    30  H    6.531990   5.430984   4.196423   3.250306   2.509236
    31  H    6.174498   5.351215   4.129732   3.250349   2.501976
    32  H    5.788628   5.292574   4.093279   3.248539   2.497946
    33  H    7.153770   6.439365   5.085816   3.989365   2.493920
    34  H    6.234756   5.021015   4.490071   4.343596   4.886792
    35  H    7.672132   6.668581   6.435708   6.455112   7.034101
    36  H    6.620889   5.989562   6.679766   7.418438   8.832918
    37  H    4.867697   4.064759   4.825577   5.671973   7.237378
    38  H    4.544946   3.212306   2.685470   2.779925   3.869353
    39  H    5.668943   4.393429   4.046671   4.139693   4.989052
                    6          7          8          9         10
     6  C    0.000000
     7  C    3.102871   0.000000
     8  C    3.111226   3.104254   0.000000
     9  O    6.354211   5.858643   6.232659   0.000000
    10  C    6.524291   5.388335   5.923132   1.384338   0.000000
    11  C    7.864495   6.484929   6.947331   2.428213   1.412355
    12  O    8.823394   7.616037   7.793065   3.034994   2.423083
    13  O    8.213378   6.303106   7.197154   3.561491   2.304877
    14  N    7.150490   5.004200   6.278362   3.604404   2.315120
    15  N    6.221594   4.584387   5.888630   2.421927   1.496470
    16  C    6.797164   5.265214   7.021168   2.989645   2.581332
    17  C    6.521360   4.844723   7.126115   4.135068   3.792783
    18  C    7.443867   5.955220   8.387255   5.109890   4.957957
    19  C    8.470669   7.177329   9.383716   5.168099   5.175574
    20  Cl   9.791178   8.633568  10.980442   6.773351   6.889291
    21  C    8.687077   7.471999   9.305893   4.313980   4.374086
    22  C    7.908882   6.620084   8.186276   3.102884   2.994988
    23  H    6.967578   7.521876   7.131592   2.574847   3.831654
    24  H    5.475747   6.618371   5.843261   3.345396   4.424538
    25  H    1.096405   3.329632   3.333745   7.383229   7.458092
    26  H    1.095198   4.056472   3.322006   6.429857   6.760944
    27  H    1.095198   3.308012   4.063404   6.229313   6.501829
    28  H    3.321920   1.096286   3.330975   6.949825   6.462167
    29  H    4.061936   1.096201   3.310423   5.658598   4.948631
    30  H    3.310680   1.095978   4.060053   5.718666   5.347522
    31  H    4.063640   3.312448   1.095171   6.029999   5.515524
    32  H    3.320736   4.057343   1.095140   6.309027   6.174436
    33  H    3.335631   3.329772   1.096435   7.276063   6.924465
    34  H    5.830376   3.888524   6.409385   4.552656   4.091077
    35  H    7.549079   6.047990   8.718061   6.060075   5.905579
    36  H    9.614444   8.520593  10.235059   4.843638   5.025094
    37  H    8.326355   7.153755   8.354725   2.723321   2.670183
    38  H    5.268192   3.573198   5.018718   2.812838   2.083197
    39  H    6.721967   4.558055   5.475840   3.772049   2.439668
                   11         12         13         14         15
    11  C    0.000000
    12  O    1.211210   0.000000
    13  O    1.464972   2.306904   0.000000
    14  N    2.330371   3.454649   1.410003   0.000000
    15  N    2.327224   3.516951   2.286391   1.511428   0.000000
    16  C    3.215047   4.258819   3.069759   2.474305   1.480950
    17  C    4.532873   5.622378   4.182633   3.266715   2.465345
    18  C    5.588259   6.570589   5.232933   4.487668   3.750357
    19  C    5.603685   6.396780   5.379137   4.982838   4.239001
    20  Cl   7.258092   7.955056   7.017214   6.680344   5.991126
    21  C    4.611243   5.245344   4.577086   4.512903   3.763725
    22  C    3.260145   4.000904   3.333225   3.307046   2.491746
    23  H    4.565751   4.610538   5.931020   6.135140   4.971716
    24  H    5.481885   5.788515   6.701321   6.561856   5.339873
    25  H    8.764196   9.750674   9.008434   7.875428   7.064442
    26  H    8.104655   8.961961   8.626430   7.687101   6.686391
    27  H    7.883141   8.874949   8.216522   7.132340   6.076468
    28  H    7.519576   8.646813   7.263138   5.940960   5.635951
    29  H    5.878456   7.010240   5.538252   4.231413   4.106053
    30  H    6.490442   7.661493   6.281242   4.946895   4.362065
    31  H    6.374682   7.187247   6.536902   5.687251   5.526349
    32  H    7.204424   7.933887   7.650139   6.870824   6.373744
    33  H    7.929748   8.804803   8.067718   7.071368   6.764700
    34  H    4.944190   6.113234   4.507350   3.328649   2.671061
    35  H    6.591275   7.610176   6.159421   5.289366   4.622610
    36  H    5.083579   5.499612   5.156428   5.329499   4.643051
    37  H    2.627212   3.123300   3.015153   3.409982   2.716155
    38  H    3.153501   4.339128   3.114937   2.041752   1.026530
    39  H    2.578935   3.648381   1.934099   1.031986   1.971946
                   16         17         18         19         20
    16  C    0.000000
    17  C    1.393082   0.000000
    18  C    2.408615   1.393856   0.000000
    19  C    2.758420   2.404076   1.396677   0.000000
    20  Cl   4.510573   4.015824   2.722782   1.752158   0.000000
    21  C    2.400556   2.796946   2.434061   1.396028   2.724703
    22  C    1.391353   2.430335   2.810185   2.412076   4.022649
    23  H    5.388578   6.391485   7.157441   7.034526   8.386237
    24  H    5.928610   6.668355   7.547259   7.734014   9.128974
    25  H    7.641831   7.252919   8.145749   9.256514  10.531117
    26  H    7.312445   7.187578   8.112807   9.029492  10.355225
    27  H    6.417941   6.008988   6.779472   7.793862   9.002721
    28  H    6.278703   5.746158   6.769800   8.053313   9.430197
    29  H    4.940881   4.653306   5.867885   7.053290   8.588418
    30  H    4.742834   4.101423   5.076578   6.345290   7.711043
    31  H    6.788534   7.012186   8.342406   9.302376  10.960438
    32  H    7.525335   7.749648   9.000117   9.904997  11.504077
    33  H    7.845460   7.812832   9.034964  10.117320  11.669799
    34  H    2.160160   1.086888   2.151115   3.391127   4.873760
    35  H    3.396785   2.158735   1.083920   2.157468   2.862757
    36  H    3.387495   3.880808   3.412994   2.155373   2.863706
    37  H    2.157183   3.412022   3.893488   3.396672   4.878852
    38  H    2.045742   2.517819   3.894351   4.651940   6.374345
    39  H    3.255782   3.963229   5.278860   5.885538   7.604294
                   21         22         23         24         25
    21  C    0.000000
    22  C    1.395010   0.000000
    23  H    6.140807   5.230232   0.000000
    24  H    7.108062   6.167314   1.870134   0.000000
    25  H    9.566306   8.816189   8.052114   6.532872   0.000000
    26  H    9.130761   8.317445   6.635996   4.975201   1.771849
    27  H    8.116342   7.482763   6.883021   5.507814   1.773122
    28  H    8.445384   7.648033   8.547378   7.538561   3.177339
    29  H    7.251020   6.308357   7.556535   6.850187   4.335519
    30  H    6.783090   6.086916   7.452798   6.660462   3.627889
    31  H    9.136803   7.940090   7.140884   6.072835   4.339482
    32  H    9.731463   8.586840   6.811831   5.384056   3.633135
    33  H   10.143949   9.070889   8.198450   6.852305   3.187815
    34  H    3.883811   3.414123   6.805068   6.809042   6.461566
    35  H    3.413877   3.894067   8.042387   8.278238   8.143385
    36  H    1.083906   2.154768   6.384239   7.558377  10.525933
    37  H    2.154282   1.083397   4.714377   5.896807   9.280443
    38  H    4.423001   3.279755   5.174490   5.174580   6.072847
    39  H    5.441484   4.181249   6.158466   6.374451   7.402653
                   26         27         28         29         30
    26  H    0.000000
    27  H    1.769785   0.000000
    28  H    4.329516   3.616015   0.000000
    29  H    4.923427   4.317855   1.765165   0.000000
    30  H    4.312266   3.142723   1.766991   1.778131   0.000000
    31  H    4.322687   4.921786   3.632271   3.145790   4.316376
    32  H    3.160205   4.322297   4.336015   4.314207   4.919955
    33  H    3.637257   4.340088   3.185761   3.620666   4.337082
    34  H    6.603768   5.367944   4.728476   3.720603   3.116481
    35  H    8.297669   6.811967   6.730630   6.058544   5.073380
    36  H    9.993658   9.033169   9.507552   8.295136   7.844167
    37  H    8.629767   7.993006   8.215576   6.783909   6.747704
    38  H    5.801360   5.155220   4.637590   3.171506   3.379029
    39  H    7.230802   6.855688   5.459506   3.704737   4.722536
                   31         32         33         34         35
    31  H    0.000000
    32  H    1.768628   0.000000
    33  H    1.773146   1.772450   0.000000
    34  H    6.327552   7.128634   6.999493   0.000000
    35  H    8.746450   9.390391   9.261272   2.486388   0.000000
    36  H   10.053495  10.602372  11.108274   4.967683   4.304197
    37  H    8.038669   8.658766   9.305660   4.308734   4.977362
    38  H    4.745093   5.573012   5.851346   2.325462   4.599221
    39  H    4.791308   6.070880   6.261812   3.804886   6.015000
                   36         37         38         39
    36  H    0.000000
    37  H    2.485794   0.000000
    38  H    5.379400   3.637911   0.000000
    39  H    6.268194   4.207684   2.116022   0.000000
 Stoichiometry    C15H17ClN2O3Si
 Framework group  C1[X(C15H17ClN2O3Si)]
 Deg. of freedom   111
 Full point group                 C1      NOp   1
 Largest Abelian subgroup         C1      NOp   1
 Largest concise Abelian subgroup C1      NOp   1
                         Standard orientation:                         
 ---------------------------------------------------------------------
 Center     Atomic      Atomic             Coordinates (Angstroms)
 Number     Number       Type             X           Y           Z
 ---------------------------------------------------------------------
      1          6           0        1.426058    1.925256    3.163333
      2          6           0        1.187816    1.464169    1.927852
      3          6           0        2.053090    0.566107    1.223505
      4          6           0        2.769879   -0.226671    0.626162
      5         14           0        3.965864   -1.382887   -0.186500
      6          6           0        4.512246   -2.660515    1.089404
      7          6           0        3.077092   -2.228473   -1.627484
      8          6           0        5.433972   -0.378998   -0.814494
      9          8           0       -0.008896    1.799354    1.301165
     10          6           0        0.033181    1.938095   -0.075560
     11          6           0       -0.627376    3.014257   -0.708241
     12          8           0       -0.890722    4.154888   -0.397373
     13          8           0       -1.035405    2.531224   -2.029730
     14          7           0       -0.457563    1.261474   -2.234526
     15          7           0       -0.353712    0.706523   -0.832506
     16          6           0       -1.570213   -0.048981   -0.454946
     17          6           0       -1.617037   -1.409036   -0.752831
     18          6           0       -2.756275   -2.145204   -0.431852
     19          6           0       -3.829194   -1.497179    0.184277
     20         17           0       -5.263389   -2.416093    0.595055
     21          6           0       -3.777546   -0.134843    0.484722
     22          6           0       -2.634545    0.598185    0.164922
     23          1           0        0.726013    2.606428    3.633198
     24          1           0        2.312643    1.618951    3.703161
     25          1           0        5.224528   -3.367525    0.647935
     26          1           0        5.000951   -2.179592    1.943418
     27          1           0        3.659424   -3.232463    1.470231
     28          1           0        3.749051   -2.932443   -2.132201
     29          1           0        2.741964   -1.503866   -2.378677
     30          1           0        2.206020   -2.796815   -1.281956
     31          1           0        5.117583    0.379360   -1.538504
     32          1           0        5.938490    0.137039    0.009216
     33          1           0        6.167092   -1.030553   -1.304576
     34          1           0       -0.778024   -1.898940   -1.240044
     35          1           0       -2.812104   -3.204196   -0.656133
     36          1           0       -4.618271    0.348900    0.968484
     37          1           0       -2.577312    1.652459    0.407778
     38          1           0        0.433638    0.048245   -0.855183
     39          1           0        0.536050    1.472298   -2.416956
 ---------------------------------------------------------------------
 Rotational constants (GHZ):           0.2830296           0.1376686           0.1138931
 Standard basis: 6-31+G(d,p) (6D, 7F)
 There are   511 symmetry adapted cartesian basis functions of A   symmetry.
 There are   511 symmetry adapted basis functions of A   symmetry.
   511 basis functions,   871 primitive gaussians,   511 cartesian basis functions
    88 alpha electrons       88 beta electrons
       nuclear repulsion energy      2001.5912819520 Hartrees.
 NAtoms=   39 NActive=   39 NUniq=   39 SFac= 1.00D+00 NAtFMM=   60 NAOKFM=F Big=F
 Integral buffers will be    131072 words long.
 Regular integral format.
 Two-electron integral symmetry is turned on.
 One-electron integrals computed using PRISM.
 NBasis=   511 RedAO= T EigKep=  1.31D-06  NBF=   511
 NBsUse=   509 1.00D-06 EigRej=  5.64D-07 NBFU=   509
 ExpMin= 3.31D-02 ExpMax= 2.52D+04 ExpMxC= 3.78D+03 IAcc=3 IRadAn=         5 AccDes= 0.00D+00
 Harris functional with IExCor=  402 and IRadAn=       5 diagonalized for initial guess.
 HarFok:  IExCor=  402 AccDes= 0.00D+00 IRadAn=         5 IDoV= 1 UseB2=F ITyADJ=14
 ICtDFT=  3500011 ScaDFX=  1.000000  1.000000  1.000000  1.000000
 FoFCou: FMM=F IPFlag=           0 FMFlag=      100000 FMFlg1=           0
         NFxFlg=           0 DoJE=T BraDBF=F KetDBF=T FulRan=T
         wScrn=  0.000000 ICntrl=       500 IOpCl=  0 I1Cent=   200000004 NGrid=           0
         NMat0=    1 NMatS0=      1 NMatT0=    0 NMatD0=    1 NMtDS0=    0 NMtDT0=    0
 Petite list used in FoFCou.
 Requested convergence on RMS density matrix=1.00D-08 within 128 cycles.
 Requested convergence on MAX density matrix=1.00D-06.
 Requested convergence on             energy=1.00D-06.
 No special actions if energy rises.
 EnCoef did     1 forward-backward iterations
 SCF Done:  E(RB3LYP) =  -1666.55994884     A.U. after   17 cycles
            NFock= 17  Conv=0.10D-07     -V/T= 2.0068
 DoSCS=F DFT=T ScalE2(SS,OS)=  1.000000  1.000000
 ExpMin= 3.31D-02 ExpMax= 2.52D+04 ExpMxC= 3.78D+03 IAcc=3 IRadAn=         5 AccDes= 0.00D+00
 HarFok:  IExCor=  205 AccDes= 0.00D+00 IRadAn=         5 IDoV=-2 UseB2=F ITyADJ=14
 ICtDFT= 12500011 ScaDFX=  1.000000  1.000000  1.000000  1.000000
 GSVD:  LWork=       -1140 too small for GESVD, short by        4950 words or        4950 for optimal perf.
 Range of M.O.s used for correlation:    31   509
 NBasis=   511 NAE=    88 NBE=    88 NFC=    30 NFV=     0
 NROrb=    479 NOA=    58 NOB=    58 NVA=   421 NVB=   421

 **** Warning!!: The largest alpha MO coefficient is  0.15691440D+03

 Orbital symmetries:
       Occupied  (A) (A) (A) (A) (A) (A) (A) (A) (A) (A) (A) (A)
                 (A) (A) (A) (A) (A) (A) (A) (A) (A) (A) (A) (A)
                 (A) (A) (A) (A) (A) (A) (A) (A) (A) (A) (A) (A)
                 (A) (A) (A) (A) (A) (A) (A) (A) (A) (A) (A) (A)
                 (A) (A) (A) (A) (A) (A) (A) (A) (A) (A) (A) (A)
                 (A) (A) (A) (A) (A) (A) (A) (A) (A) (A) (A) (A)
                 (A) (A) (A) (A) (A) (A) (A) (A) (A) (A) (A) (A)
                 (A) (A) (A) (A)
       Virtual   (A) (A) (A) (A) (A) (A) (A) (A) (A) (A) (A) (A)
                 (A) (A) (A) (A) (A) (A) (A) (A) (A) (A) (A) (A)
                 (A) (A) (A) (A) (A) (A) (A) (A) (A) (A) (A) (A)
                 (A) (A) (A) (A) (A) (A) (A) (A) (A) (A) (A) (A)
                 (A) (A) (A) (A) (A) (A) (A) (A) (A) (A) (A) (A)
                 (A) (A) (A) (A) (A) (A) (A) (A) (A) (A) (A) (A)
                 (A) (A) (A) (A) (A) (A) (A) (A) (A) (A) (A) (A)
                 (A) (A) (A) (A) (A) (A) (A) (A) (A) (A) (A) (A)
                 (A) (A) (A) (A) (A) (A) (A) (A) (A) (A) (A) (A)
                 (A) (A) (A) (A) (A) (A) (A) (A) (A) (A) (A) (A)
                 (A) (A) (A) (A) (A) (A) (A) (A) (A) (A) (A) (A)
                 (A) (A) (A) (A) (A) (A) (A) (A) (A) (A) (A) (A)
                 (A) (A) (A) (A) (A) (A) (A) (A) (A) (A) (A) (A)
                 (A) (A) (A) (A) (A) (A) (A) (A) (A) (A) (A) (A)
                 (A) (A) (A) (A) (A) (A) (A) (A) (A) (A) (A) (A)
                 (A) (A) (A) (A) (A) (A) (A) (A) (A) (A) (A) (A)
                 (A) (A) (A) (A) (A) (A) (A) (A) (A) (A) (A) (A)
                 (A) (A) (A) (A) (A) (A) (A) (A) (A) (A) (A) (A)
                 (A) (A) (A) (A) (A) (A) (A) (A) (A) (A) (A) (A)
                 (A) (A) (A) (A) (A) (A) (A) (A) (A) (A) (A) (A)
                 (A) (A) (A) (A) (A) (A) (A) (A) (A) (A) (A) (A)
                 (A) (A) (A) (A) (A) (A) (A) (A) (A) (A) (A) (A)
                 (A) (A) (A) (A) (A) (A) (A) (A) (A) (A) (A) (A)
                 (A) (A) (A) (A) (A) (A) (A) (A) (A) (A) (A) (A)
                 (A) (A) (A) (A) (A) (A) (A) (A) (A) (A) (A) (A)
                 (A) (A) (A) (A) (A) (A) (A) (A) (A) (A) (A) (A)
                 (A) (A) (A) (A) (A) (A) (A) (A) (A) (A) (A) (A)
                 (A) (A) (A) (A) (A) (A) (A) (A) (A) (A) (A) (A)
                 (A) (A) (A) (A) (A) (A) (A) (A) (A) (A) (A) (A)
                 (A) (A) (A) (A) (A) (A) (A) (A) (A) (A) (A) (A)
                 (A) (A) (A) (A) (A) (A) (A) (A) (A) (A) (A) (A)
                 (A) (A) (A) (A) (A) (A) (A) (A) (A) (A) (A) (A)
                 (A) (A) (A) (A) (A) (A) (A) (A) (A) (A) (A) (A)
                 (A) (A) (A) (A) (A) (A) (A) (A) (A) (A) (A) (A)
                 (A) (A) (A) (A) (A) (A) (A) (A) (A) (A) (A) (A)
                 (A)
    24 initial guesses have been made.
 Convergence on wavefunction:    0.001000000000000
 Iteration     1 Dimension    24 NMult     0 NNew     24
 CISAX will form    24 AO SS matrices at one time.
 New state      1 was old state      2
 New state      2 was old state      1
 New state      3 was old state      6
 New state      4 was old state      3
 New state      5 was old state      4
 New state      6 was old state      5
 New state      7 was old state     18
 New state      9 was old state      7
 New state     10 was old state     12
 New state     11 was old state     10
 New state     12 was old state      9
 Iteration     2 Dimension    36 NMult    24 NNew     12
 New state      1 was old state      3
 New state      2 was old state      1
 New state      3 was old state      2
 Iteration     3 Dimension    48 NMult    36 NNew     12
 Iteration     4 Dimension    60 NMult    48 NNew     12
 Iteration     5 Dimension    72 NMult    60 NNew     12
 Iteration     6 Dimension    78 NMult    72 NNew      6
 Iteration     7 Dimension    82 NMult    78 NNew      4
 Iteration     8 Dimension    84 NMult    82 NNew      2
 ***********************************************************************
 Excited states from <AA,BB:AA,BB> singles matrix:
 ***********************************************************************
 
 Ground to excited state transition densities written to RWF  633
 Ground to excited state transition electric dipole moments (Au):
       state          X           Y           Z        Dip. S.      Osc.
         1         0.0000      0.0000      0.0000      0.0000      0.0000
         2        -0.0000     -0.0000      0.0000      0.0000      0.0000
         3        -0.0080      0.1327      0.0055      0.0177      0.0013
         4        -0.0941      0.1920      0.0860      0.0531      0.0044
         5         0.0000     -0.0000     -0.0000      0.0000      0.0000
         6        -0.1815      0.0561      0.0614      0.0399      0.0034
 Ground to excited state transition velocity dipole moments (Au):
       state          X           Y           Z        Dip. S.      Osc.
         1        -0.0000     -0.0000      0.0000      0.0000      0.0000
         2        -0.0000      0.0000      0.0000      0.0000      0.0000
         3         0.0010     -0.0151     -0.0039      0.0002      0.0015
         4         0.0107     -0.0253     -0.0103      0.0009      0.0046
         5        -0.0000      0.0000     -0.0000      0.0000      0.0000
         6         0.0192     -0.0073     -0.0087      0.0005      0.0026
 Ground to excited state transition magnetic dipole moments (Au):
       state          X           Y           Z
         1        -0.0000      0.0000      0.0000
         2        -0.0000     -0.0000      0.0000
         3        -0.0160      0.2067     -0.1409
         4         0.0342     -0.0538     -0.0867
         5         0.0000      0.0000      0.0000
         6         0.0681      0.1141     -0.0422
 Ground to excited state transition velocity quadrupole moments (Au):
       state          XX          YY          ZZ          XY          XZ          YZ
         1        -0.0000      0.0000     -0.0000     -0.0000     -0.0000      0.0000
         2        -0.0000      0.0000      0.0000      0.0000      0.0000      0.0000
         3         0.1034     -0.0812     -0.0152      0.0591     -0.0187     -0.0146
         4         0.1503     -0.0986     -0.1462     -0.0798     -0.0873     -0.0685
         5         0.0000      0.0000     -0.0000     -0.0000     -0.0000      0.0000
         6         0.0740     -0.0125     -0.0895     -0.0827     -0.0258     -0.0490
 <0|del|b> * <b|rxdel|0> + <0|del|b> * <b|delr+rdel|0>
 Rotatory Strengths (R) in cgs (10**-40 erg-esu-cm/Gauss)
       state          XX          YY          ZZ    R(velocity)    E-M Angle
         1        -0.0000      0.0000      0.0000      0.0000       90.00
         2        -0.0000      0.0000     -0.0000     -0.0000       90.00
         3        -9.7511      2.3725     -8.9745     -5.4510      131.33
         4         2.4572     -0.8433     13.2689      4.9609       33.93
         5         0.0000     -0.0000      0.0000      0.0000       90.00
         6         0.1513      0.0477      4.4665      1.5551       74.40
 1/2[<0|r|b>*<b|rxdel|0> + (<0|rxdel|b>*<b|r|0>)*]
 Rotatory Strengths (R) in cgs (10**-40 erg-esu-cm/Gauss)
       state          XX          YY          ZZ     R(length)
         1         0.0000     -0.0000     -0.0000     -0.0000
         2        -0.0000     -0.0000     -0.0000     -0.0000
         3        -0.0904    -19.3886      0.5524     -6.3089
         4         2.2756      7.3024      5.2681      4.9487
         5        -0.0000      0.0000      0.0000      0.0000
         6         8.7407     -4.5254      1.8328      2.0160
  1/2[<0|del|b>*<b|r|0> + (<0|r|b>*<b|del|0>)*] (Au)
       state          X           Y           Z        Dip. S.   Osc.(frdel)
         1        -0.0000     -0.0000      0.0000      0.0000      0.0000
         2         0.0000     -0.0000      0.0000     -0.0000     -0.0000
         3        -0.0000     -0.0020     -0.0000      0.0020      0.0014
         4        -0.0010     -0.0049     -0.0009      0.0067      0.0045
         5        -0.0000     -0.0000      0.0000      0.0000      0.0000
         6        -0.0035     -0.0004     -0.0005      0.0044      0.0030

 Excitation energies and oscillator strengths:
 
 Excited State   1:      Triplet-A      2.8140 eV  440.60 nm  f=0.0000  <S**2>=2.000
      86 -> 91        -0.15348
      87 -> 90         0.18813
      87 -> 91         0.47307
      88 -> 89         0.21538
      88 -> 90         0.16229
      88 -> 91         0.34174
 This state for optimization and/or second-order correction.
 Total Energy, E(TD-HF/TD-DFT) =  -1666.45653759    
 Copying the excited state density for this state as the 1-particle RhoCI density.
 
 Excited State   2:      Triplet-A      2.9726 eV  417.09 nm  f=0.0000  <S**2>=2.000
      87 -> 91        -0.15362
      88 -> 89         0.65894
      88 -> 91        -0.12280
 
 Excited State   3:      Singlet-A      3.0487 eV  406.68 nm  f=0.0013  <S**2>=0.000
      88 -> 89         0.70151
 
 Excited State   4:      Singlet-A      3.3826 eV  366.53 nm  f=0.0044  <S**2>=0.000
      88 -> 90         0.59209
      88 -> 91         0.37951
 
 Excited State   5:      Triplet-A      3.3968 eV  365.01 nm  f=0.0000  <S**2>=2.000
      87 -> 91        -0.13163
      88 -> 90         0.67755
 
 Excited State   6:      Singlet-A      3.4525 eV  359.12 nm  f=0.0034  <S**2>=0.000
      88 -> 90        -0.38198
      88 -> 91         0.59243
 SavETr:  write IOETrn=   770 NScale= 10 NData=  16 NLR=1 NState=    6 LETran=     118.

 **********************************************************************

            Population analysis using the SCF Density.

 **********************************************************************

 Orbital symmetries:
       Occupied  (A) (A) (A) (A) (A) (A) (A) (A) (A) (A) (A) (A)
                 (A) (A) (A) (A) (A) (A) (A) (A) (A) (A) (A) (A)
                 (A) (A) (A) (A) (A) (A) (A) (A) (A) (A) (A) (A)
                 (A) (A) (A) (A) (A) (A) (A) (A) (A) (A) (A) (A)
                 (A) (A) (A) (A) (A) (A) (A) (A) (A) (A) (A) (A)
                 (A) (A) (A) (A) (A) (A) (A) (A) (A) (A) (A) (A)
                 (A) (A) (A) (A) (A) (A) (A) (A) (A) (A) (A) (A)
                 (A) (A) (A) (A)
       Virtual   (A) (A) (A) (A) (A) (A) (A) (A) (A) (A) (A) (A)
                 (A) (A) (A) (A) (A) (A) (A) (A) (A) (A) (A) (A)
                 (A) (A) (A) (A) (A) (A) (A) (A) (A) (A) (A) (A)
                 (A) (A) (A) (A) (A) (A) (A) (A) (A) (A) (A) (A)
                 (A) (A) (A) (A) (A) (A) (A) (A) (A) (A) (A) (A)
                 (A) (A) (A) (A) (A) (A) (A) (A) (A) (A) (A) (A)
                 (A) (A) (A) (A) (A) (A) (A) (A) (A) (A) (A) (A)
                 (A) (A) (A) (A) (A) (A) (A) (A) (A) (A) (A) (A)
                 (A) (A) (A) (A) (A) (A) (A) (A) (A) (A) (A) (A)
                 (A) (A) (A) (A) (A) (A) (A) (A) (A) (A) (A) (A)
                 (A) (A) (A) (A) (A) (A) (A) (A) (A) (A) (A) (A)
                 (A) (A) (A) (A) (A) (A) (A) (A) (A) (A) (A) (A)
                 (A) (A) (A) (A) (A) (A) (A) (A) (A) (A) (A) (A)
                 (A) (A) (A) (A) (A) (A) (A) (A) (A) (A) (A) (A)
                 (A) (A) (A) (A) (A) (A) (A) (A) (A) (A) (A) (A)
                 (A) (A) (A) (A) (A) (A) (A) (A) (A) (A) (A) (A)
                 (A) (A) (A) (A) (A) (A) (A) (A) (A) (A) (A) (A)
                 (A) (A) (A) (A) (A) (A) (A) (A) (A) (A) (A) (A)
                 (A) (A) (A) (A) (A) (A) (A) (A) (A) (A) (A) (A)
                 (A) (A) (A) (A) (A) (A) (A) (A) (A) (A) (A) (A)
                 (A) (A) (A) (A) (A) (A) (A) (A) (A) (A) (A) (A)
                 (A) (A) (A) (A) (A) (A) (A) (A) (A) (A) (A) (A)
                 (A) (A) (A) (A) (A) (A) (A) (A) (A) (A) (A) (A)
                 (A) (A) (A) (A) (A) (A) (A) (A) (A) (A) (A) (A)
                 (A) (A) (A) (A) (A) (A) (A) (A) (A) (A) (A) (A)
                 (A) (A) (A) (A) (A) (A) (A) (A) (A) (A) (A) (A)
                 (A) (A) (A) (A) (A) (A) (A) (A) (A) (A) (A) (A)
                 (A) (A) (A) (A) (A) (A) (A) (A) (A) (A) (A) (A)
                 (A) (A) (A) (A) (A) (A) (A) (A) (A) (A) (A) (A)
                 (A) (A) (A) (A) (A) (A) (A) (A) (A) (A) (A) (A)
                 (A) (A) (A) (A) (A) (A) (A) (A) (A) (A) (A) (A)
                 (A) (A) (A) (A) (A) (A) (A) (A) (A) (A) (A) (A)
                 (A) (A) (A) (A) (A) (A) (A) (A) (A) (A) (A) (A)
                 (A) (A) (A) (A) (A) (A) (A) (A) (A) (A) (A) (A)
                 (A) (A) (A) (A) (A) (A) (A) (A) (A) (A) (A) (A)
                 (A)
 The electronic state is 1-A.
 Alpha  occ. eigenvalues -- -101.57654 -66.15971 -19.21870 -19.20713 -19.12366
 Alpha  occ. eigenvalues --  -14.50577 -14.46740 -10.29927 -10.28887 -10.28201
 Alpha  occ. eigenvalues --  -10.27677 -10.25208 -10.24773 -10.24175 -10.23969
 Alpha  occ. eigenvalues --  -10.23820 -10.22094 -10.20148 -10.19840 -10.19268
 Alpha  occ. eigenvalues --  -10.18489 -10.18395  -9.49161  -7.25577  -7.24595
 Alpha  occ. eigenvalues --   -7.24555  -5.30246  -3.66255  -3.66084  -3.66056
 Alpha  occ. eigenvalues --   -1.15242  -1.08992  -1.03850  -1.00527  -0.92381
 Alpha  occ. eigenvalues --   -0.87326  -0.83369  -0.81343  -0.79950  -0.77539
 Alpha  occ. eigenvalues --   -0.75472  -0.73416  -0.72078  -0.70394  -0.69882
 Alpha  occ. eigenvalues --   -0.66811  -0.64576  -0.63352  -0.61906  -0.60661
 Alpha  occ. eigenvalues --   -0.57598  -0.55429  -0.53859  -0.52474  -0.51532
 Alpha  occ. eigenvalues --   -0.49960  -0.48527  -0.47625  -0.47051  -0.45569
 Alpha  occ. eigenvalues --   -0.44393  -0.43702  -0.43427  -0.42833  -0.42755
 Alpha  occ. eigenvalues --   -0.42487  -0.41648  -0.41626  -0.41328  -0.41199
 Alpha  occ. eigenvalues --   -0.40598  -0.40338  -0.39887  -0.38601  -0.37286
 Alpha  occ. eigenvalues --   -0.36452  -0.34939  -0.33804  -0.33749  -0.33472
 Alpha  occ. eigenvalues --   -0.31204  -0.30532  -0.29906  -0.29843  -0.28143
 Alpha  occ. eigenvalues --   -0.26573  -0.24885  -0.20721
 Alpha virt. eigenvalues --   -0.06596  -0.05609  -0.05227  -0.03725  -0.02223
 Alpha virt. eigenvalues --   -0.01147  -0.00478   0.00036   0.00470   0.00721
 Alpha virt. eigenvalues --    0.01842   0.02078   0.02469   0.03016   0.03108
 Alpha virt. eigenvalues --    0.03501   0.03876   0.03912   0.04446   0.04713
 Alpha virt. eigenvalues --    0.05259   0.05559   0.05933   0.06093   0.06419
 Alpha virt. eigenvalues --    0.06884   0.07102   0.07286   0.07491   0.07898
 Alpha virt. eigenvalues --    0.08417   0.08543   0.08781   0.09162   0.09340
 Alpha virt. eigenvalues --    0.09428   0.09795   0.10017   0.10194   0.10706
 Alpha virt. eigenvalues --    0.11109   0.11280   0.11414   0.11971   0.12268
 Alpha virt. eigenvalues --    0.12461   0.12687   0.12974   0.13321   0.13685
 Alpha virt. eigenvalues --    0.14025   0.14294   0.14614   0.14995   0.15443
 Alpha virt. eigenvalues --    0.15570   0.15691   0.16138   0.16398   0.16763
 Alpha virt. eigenvalues --    0.17168   0.17634   0.17901   0.18158   0.18324
 Alpha virt. eigenvalues --    0.18523   0.18885   0.19636   0.19796   0.20107
 Alpha virt. eigenvalues --    0.20335   0.20563   0.20733   0.21080   0.21383
 Alpha virt. eigenvalues --    0.21633   0.21875   0.22257   0.22674   0.22885
 Alpha virt. eigenvalues --    0.23439   0.23723   0.23986   0.24471   0.24895
 Alpha virt. eigenvalues --    0.25052   0.25662   0.26037   0.26437   0.26657
 Alpha virt. eigenvalues --    0.27103   0.27281   0.28037   0.28508   0.28767
 Alpha virt. eigenvalues --    0.29049   0.29853   0.29904   0.30483   0.30808
 Alpha virt. eigenvalues --    0.31186   0.31756   0.31860   0.32902   0.33275
 Alpha virt. eigenvalues --    0.33791   0.34133   0.34521   0.34901   0.35376
 Alpha virt. eigenvalues --    0.35611   0.36439   0.37239   0.37719   0.38296
 Alpha virt. eigenvalues --    0.39234   0.39548   0.39799   0.40776   0.41532
 Alpha virt. eigenvalues --    0.42011   0.42528   0.43161   0.43600   0.43749
 Alpha virt. eigenvalues --    0.44900   0.45430   0.46588   0.47276   0.48327
 Alpha virt. eigenvalues --    0.49401   0.50287   0.52807   0.53480   0.54885
 Alpha virt. eigenvalues --    0.55168   0.56197   0.57880   0.60293   0.60422
 Alpha virt. eigenvalues --    0.61375   0.64767   0.65816   0.65964   0.67752
 Alpha virt. eigenvalues --    0.68286   0.69098   0.69662   0.70239   0.70485
 Alpha virt. eigenvalues --    0.70985   0.71842   0.72519   0.73859   0.74584
 Alpha virt. eigenvalues --    0.75240   0.75777   0.76670   0.77392   0.77689
 Alpha virt. eigenvalues --    0.78075   0.78783   0.79571   0.79942   0.80284
 Alpha virt. eigenvalues --    0.80621   0.80966   0.82086   0.82352   0.82942
 Alpha virt. eigenvalues --    0.83463   0.84388   0.84969   0.85671   0.85960
 Alpha virt. eigenvalues --    0.86297   0.87541   0.88490   0.89326   0.89548
 Alpha virt. eigenvalues --    0.90348   0.90773   0.91385   0.92164   0.92675
 Alpha virt. eigenvalues --    0.94009   0.94360   0.94951   0.95832   0.96436
 Alpha virt. eigenvalues --    0.97513   0.98128   0.98940   1.00278   1.00675
 Alpha virt. eigenvalues --    1.00865   1.01150   1.01509   1.01984   1.02852
 Alpha virt. eigenvalues --    1.04549   1.05025   1.05188   1.06517   1.07288
 Alpha virt. eigenvalues --    1.07763   1.08720   1.10426   1.11498   1.13042
 Alpha virt. eigenvalues --    1.13544   1.15499   1.16421   1.16791   1.17509
 Alpha virt. eigenvalues --    1.18159   1.18879   1.20094   1.21758   1.22703
 Alpha virt. eigenvalues --    1.23140   1.25115   1.26419   1.27668   1.28330
 Alpha virt. eigenvalues --    1.28838   1.29524   1.30236   1.30868   1.32614
 Alpha virt. eigenvalues --    1.33621   1.34324   1.35103   1.35910   1.36165
 Alpha virt. eigenvalues --    1.36840   1.37275   1.39145   1.40009   1.40677
 Alpha virt. eigenvalues --    1.41021   1.42035   1.42748   1.44356   1.44782
 Alpha virt. eigenvalues --    1.45241   1.45291   1.46467   1.47732   1.48021
 Alpha virt. eigenvalues --    1.50560   1.51700   1.53304   1.55810   1.56387
 Alpha virt. eigenvalues --    1.58040   1.59474   1.60816   1.62096   1.62507
 Alpha virt. eigenvalues --    1.64141   1.64638   1.65309   1.68497   1.72010
 Alpha virt. eigenvalues --    1.74031   1.75846   1.77643   1.78981   1.79240
 Alpha virt. eigenvalues --    1.80547   1.81660   1.82581   1.83533   1.84941
 Alpha virt. eigenvalues --    1.87547   1.88180   1.88861   1.89675   1.90622
 Alpha virt. eigenvalues --    1.92533   1.92630   1.93195   1.94139   1.95074
 Alpha virt. eigenvalues --    1.96836   1.96966   1.99687   2.00728   2.01358
 Alpha virt. eigenvalues --    2.02300   2.02959   2.03119   2.03305   2.04205
 Alpha virt. eigenvalues --    2.05160   2.06961   2.07518   2.08536   2.09401
 Alpha virt. eigenvalues --    2.10256   2.11305   2.11757   2.12038   2.12211
 Alpha virt. eigenvalues --    2.12481   2.12901   2.13468   2.14466   2.16752
 Alpha virt. eigenvalues --    2.18053   2.18361   2.19837   2.20821   2.22428
 Alpha virt. eigenvalues --    2.24420   2.25151   2.26632   2.27723   2.29737
 Alpha virt. eigenvalues --    2.30059   2.31104   2.32465   2.32958   2.34762
 Alpha virt. eigenvalues --    2.35314   2.35584   2.36590   2.37697   2.38528
 Alpha virt. eigenvalues --    2.40356   2.43466   2.44415   2.45485   2.47621
 Alpha virt. eigenvalues --    2.48391   2.50184   2.51048   2.51809   2.55992
 Alpha virt. eigenvalues --    2.56314   2.57382   2.59407   2.59656   2.60909
 Alpha virt. eigenvalues --    2.62755   2.63872   2.64719   2.66812   2.66934
 Alpha virt. eigenvalues --    2.67752   2.69073   2.70674   2.72184   2.73881
 Alpha virt. eigenvalues --    2.75404   2.76363   2.78629   2.79138   2.79634
 Alpha virt. eigenvalues --    2.79817   2.81133   2.82005   2.82792   2.83441
 Alpha virt. eigenvalues --    2.83550   2.84159   2.84489   2.88767   2.89807
 Alpha virt. eigenvalues --    2.97919   2.98313   3.00063   3.01135   3.07080
 Alpha virt. eigenvalues --    3.10829   3.11844   3.16099   3.17198   3.20007
 Alpha virt. eigenvalues --    3.21548   3.22270   3.23358   3.25212   3.27645
 Alpha virt. eigenvalues --    3.32559   3.33703   3.34303   3.41576   3.42323
 Alpha virt. eigenvalues --    3.42994   3.43990   3.44265   3.44639   3.45193
 Alpha virt. eigenvalues --    3.45526   3.49504   3.51167   3.64327   3.77943
 Alpha virt. eigenvalues --    4.21714   4.24290   4.28996   4.33659   4.35734
 Alpha virt. eigenvalues --    4.39538   4.41130   4.43992   4.45774   4.46130
 Alpha virt. eigenvalues --    4.46285   4.47339   4.49328   4.51672   4.52434
 Alpha virt. eigenvalues --    4.64721   4.69678   4.72455   4.78989   4.82063
 Alpha virt. eigenvalues --    4.89154
          Condensed to atoms (all electrons):
               1          2          3          4          5          6
     1  C   14.530989  -1.902649  -2.890828  -1.225569  -0.047077  -0.000963
     2  C   -1.902649  17.145374  -7.804672  -0.222180  -0.037497  -0.015253
     3  C   -2.890828  -7.804672  14.260154   0.724043  -0.187859  -0.025071
     4  C   -1.225569  -0.222180   0.724043   7.307118   0.359940  -0.024118
     5  Si  -0.047077  -0.037497  -0.187859   0.359940  12.217066   0.239958
     6  C   -0.000963  -0.015253  -0.025071  -0.024118   0.239958   5.435482
     7  C   -0.014517  -0.008090  -0.019172  -0.004464   0.139751  -0.067681
     8  C    0.012276  -0.023068   0.005537  -0.033800   0.217317  -0.069466
     9  O   -0.307225   0.067403   0.151581   0.025672   0.004404  -0.001346
    10  C   -2.072644  -0.880198   1.343384   0.301788   0.042839   0.003312
    11  C   -0.588648  -0.040133  -0.670783   0.028993   0.041617   0.005436
    12  O   -0.011022   0.012572   0.014569  -0.000210  -0.000160   0.000005
    13  O   -0.029624  -0.093456   0.045767   0.004286   0.000806  -0.000037
    14  N   -0.015478  -0.218232   0.307428   0.032026  -0.010645  -0.000224
    15  N    0.222891  -0.010413   0.053667  -0.027023   0.034912  -0.002660
    16  C   -0.341034   0.109681  -0.436665   0.016011  -0.073097  -0.003293
    17  C    0.066941   0.086651  -0.028621  -0.034975   0.007845   0.004830
    18  C    0.040814   0.054810  -0.000386   0.011553   0.009810   0.003146
    19  C    0.009232   0.017520  -0.028567  -0.009714  -0.001580   0.000152
    20  Cl   0.000197   0.004299  -0.003815   0.000042  -0.000253   0.000012
    21  C   -0.115265  -0.354322   0.459870   0.023047  -0.004165  -0.000571
    22  C    0.156508  -0.170453   0.225589  -0.040167  -0.003025  -0.000254
    23  H    0.485692  -0.158568   0.055642  -0.002832  -0.000258  -0.000015
    24  H    0.454871  -0.078493  -0.023627  -0.003055   0.000498   0.000185
    25  H    0.000193   0.002215   0.006187  -0.002027  -0.027839   0.390025
    26  H   -0.002086   0.003081  -0.003220  -0.011844  -0.022677   0.389488
    27  H    0.000771  -0.000546  -0.001406  -0.009988  -0.021445   0.389172
    28  H    0.000017   0.001296   0.005197  -0.003017  -0.027365  -0.003650
    29  H   -0.000130  -0.001464  -0.002466  -0.003794  -0.020525   0.009571
    30  H    0.000459   0.004502   0.000077  -0.013013  -0.025181  -0.003829
    31  H   -0.000538  -0.002124  -0.003584  -0.007222  -0.021308   0.009581
    32  H   -0.000219   0.003593   0.000658  -0.019379  -0.022890  -0.003481
    33  H   -0.000314   0.000987   0.003961   0.002586  -0.030400  -0.005763
    34  H    0.000486   0.002889  -0.001596   0.000817   0.003159  -0.000267
    35  H   -0.000033  -0.000165   0.000071  -0.000056   0.000021   0.000000
    36  H   -0.000170   0.000346  -0.000333   0.000027  -0.000005  -0.000000
    37  H    0.000041   0.012494  -0.012961   0.000143  -0.000118   0.000003
    38  H    0.022000   0.187334  -0.162674   0.018582  -0.018499   0.000696
    39  H    0.002145   0.018297  -0.018657  -0.000918   0.005896   0.000001
               7          8          9         10         11         12
     1  C   -0.014517   0.012276  -0.307225  -2.072644  -0.588648  -0.011022
     2  C   -0.008090  -0.023068   0.067403  -0.880198  -0.040133   0.012572
     3  C   -0.019172   0.005537   0.151581   1.343384  -0.670783   0.014569
     4  C   -0.004464  -0.033800   0.025672   0.301788   0.028993  -0.000210
     5  Si   0.139751   0.217317   0.004404   0.042839   0.041617  -0.000160
     6  C   -0.067681  -0.069466  -0.001346   0.003312   0.005436   0.000005
     7  C    5.561143  -0.056560  -0.000014   0.008259   0.001009   0.000017
     8  C   -0.056560   5.440351   0.000807  -0.000969  -0.012500  -0.000010
     9  O   -0.000014   0.000807   8.353459   0.754840  -0.467031   0.018508
    10  C    0.008259  -0.000969   0.754840  15.536228  -6.549816  -0.123795
    11  C    0.001009  -0.012500  -0.467031  -6.549816  13.158244   0.423373
    12  O    0.000017  -0.000010   0.018508  -0.123795   0.423373   8.226673
    13  O    0.000115  -0.000031   0.023072  -0.545847   0.613520  -0.078567
    14  N   -0.002584   0.003860   0.145158   1.609244  -1.543614   0.011965
    15  N   -0.012621  -0.000837  -0.194678  -1.456465   0.812371  -0.012899
    16  C    0.039034  -0.009286  -0.345356  -1.488510   1.502455  -0.082370
    17  C   -0.015250   0.000925  -0.058029  -0.468784   0.304927  -0.003541
    18  C    0.000787   0.000879   0.044244   0.271695  -0.287010   0.002394
    19  C    0.001503  -0.000214  -0.072259  -0.366051   0.252594  -0.007979
    20  Cl   0.000094  -0.000001  -0.000990  -0.008419   0.005035  -0.000034
    21  C    0.001252   0.000594   0.188564   0.884302  -1.109903   0.080711
    22  C   -0.003935   0.001068  -0.035755  -0.526524  -0.047255  -0.006383
    23  H   -0.000001  -0.000009  -0.005909  -0.000607  -0.015839   0.000208
    24  H   -0.000005  -0.000051   0.002218  -0.000615   0.003414  -0.000000
    25  H   -0.002045  -0.006554   0.000001  -0.000240  -0.000014  -0.000000
    26  H    0.009858  -0.001867   0.000000   0.000533   0.000030  -0.000000
    27  H   -0.003462   0.008982   0.000001  -0.000456  -0.000026   0.000000
    28  H    0.395259  -0.005109  -0.000001  -0.000174   0.000019  -0.000000
    29  H    0.379693  -0.004217   0.000029   0.001528  -0.000077   0.000001
    30  H    0.387417   0.009665   0.000014  -0.001061  -0.000440   0.000000
    31  H   -0.004299   0.389198  -0.000004   0.001645   0.000537   0.000000
    32  H    0.009876   0.393887  -0.000004   0.000213   0.000087  -0.000000
    33  H   -0.003223   0.390970   0.000000   0.000329   0.000049  -0.000000
    34  H   -0.000984  -0.000038  -0.000100   0.003992  -0.007435  -0.000004
    35  H   -0.000027   0.000001   0.000000   0.000984  -0.000072   0.000000
    36  H    0.000000   0.000000  -0.000153   0.002037  -0.000556  -0.000016
    37  H    0.000001   0.000002  -0.000891  -0.069733   0.108344   0.000563
    38  H    0.005819  -0.000304  -0.032573  -0.118744   0.040333   0.000121
    39  H   -0.000926  -0.000882  -0.006170  -0.049527   0.019609   0.001246
              13         14         15         16         17         18
     1  C   -0.029624  -0.015478   0.222891  -0.341034   0.066941   0.040814
     2  C   -0.093456  -0.218232  -0.010413   0.109681   0.086651   0.054810
     3  C    0.045767   0.307428   0.053667  -0.436665  -0.028621  -0.000386
     4  C    0.004286   0.032026  -0.027023   0.016011  -0.034975   0.011553
     5  Si   0.000806  -0.010645   0.034912  -0.073097   0.007845   0.009810
     6  C   -0.000037  -0.000224  -0.002660  -0.003293   0.004830   0.003146
     7  C    0.000115  -0.002584  -0.012621   0.039034  -0.015250   0.000787
     8  C   -0.000031   0.003860  -0.000837  -0.009286   0.000925   0.000879
     9  O    0.023072   0.145158  -0.194678  -0.345356  -0.058029   0.044244
    10  C   -0.545847   1.609244  -1.456465  -1.488510  -0.468784   0.271695
    11  C    0.613520  -1.543614   0.812371   1.502455   0.304927  -0.287010
    12  O   -0.078567   0.011965  -0.012899  -0.082370  -0.003541   0.002394
    13  O    8.192251  -0.080021   0.031627   0.118331   0.024333  -0.018299
    14  N   -0.080021   8.868730  -0.854069  -2.185230  -0.099248   0.343282
    15  N    0.031627  -0.854069   8.430067  -0.582819   0.134840   0.186031
    16  C    0.118331  -2.185230  -0.582819  17.782099  -2.727953  -0.849735
    17  C    0.024333  -0.099248   0.134840  -2.727953  10.520081  -1.890320
    18  C   -0.018299   0.343282   0.186031  -0.849735  -1.890320  10.223080
    19  C    0.007204  -0.186007  -0.003129  -1.046068   0.659030  -0.438355
    20  Cl  -0.000417  -0.004939   0.000248  -0.192960   0.262259  -0.180428
    21  C   -0.071136   0.790529  -0.127455   0.301893  -4.620061   1.048561
    22  C    0.027114   0.152393   0.186371  -2.874477   3.127555  -2.303242
    23  H    0.000021   0.000086  -0.000661   0.001189  -0.000300   0.000018
    24  H   -0.000000  -0.000006  -0.000474   0.000398  -0.000091  -0.000068
    25  H   -0.000000  -0.000000   0.000013   0.000037  -0.000040  -0.000006
    26  H    0.000000  -0.000001  -0.000018   0.000155  -0.000070  -0.000024
    27  H   -0.000000   0.000003   0.000018  -0.000424   0.000306   0.000300
    28  H   -0.000000   0.000108  -0.000181  -0.000172  -0.000243  -0.000214
    29  H   -0.000003  -0.000440   0.002328  -0.005312   0.001515   0.002036
    30  H   -0.000006   0.000300  -0.000337  -0.007946  -0.000385   0.008241
    31  H    0.000000  -0.000014  -0.000122  -0.000326   0.000149   0.000008
    32  H    0.000000  -0.000009  -0.000028   0.000138  -0.000051  -0.000006
    33  H    0.000000  -0.000010  -0.000009   0.000127  -0.000087  -0.000007
    34  H   -0.000136  -0.005691  -0.030233   0.029293   0.303091  -0.002633
    35  H    0.000008  -0.000438   0.000146   0.045314   0.013020   0.214102
    36  H   -0.000075  -0.000721  -0.000946   0.010094   0.016181   0.032749
    37  H    0.000406  -0.001852   0.006352   0.062106  -0.011142  -0.003888
    38  H    0.000609  -0.115680   0.246225   0.233858  -0.035513  -0.025092
    39  H   -0.047340   0.121425   0.034018   0.176726  -0.011959  -0.008917
              19         20         21         22         23         24
     1  C    0.009232   0.000197  -0.115265   0.156508   0.485692   0.454871
     2  C    0.017520   0.004299  -0.354322  -0.170453  -0.158568  -0.078493
     3  C   -0.028567  -0.003815   0.459870   0.225589   0.055642  -0.023627
     4  C   -0.009714   0.000042   0.023047  -0.040167  -0.002832  -0.003055
     5  Si  -0.001580  -0.000253  -0.004165  -0.003025  -0.000258   0.000498
     6  C    0.000152   0.000012  -0.000571  -0.000254  -0.000015   0.000185
     7  C    0.001503   0.000094   0.001252  -0.003935  -0.000001  -0.000005
     8  C   -0.000214  -0.000001   0.000594   0.001068  -0.000009  -0.000051
     9  O   -0.072259  -0.000990   0.188564  -0.035755  -0.005909   0.002218
    10  C   -0.366051  -0.008419   0.884302  -0.526524  -0.000607  -0.000615
    11  C    0.252594   0.005035  -1.109903  -0.047255  -0.015839   0.003414
    12  O   -0.007979  -0.000034   0.080711  -0.006383   0.000208  -0.000000
    13  O    0.007204  -0.000417  -0.071136   0.027114   0.000021  -0.000000
    14  N   -0.186007  -0.004939   0.790529   0.152393   0.000086  -0.000006
    15  N   -0.003129   0.000248  -0.127455   0.186371  -0.000661  -0.000474
    16  C   -1.046068  -0.192960   0.301893  -2.874477   0.001189   0.000398
    17  C    0.659030   0.262259  -4.620061   3.127555  -0.000300  -0.000091
    18  C   -0.438355  -0.180428   1.048561  -2.303242   0.000018  -0.000068
    19  C    7.673980  -0.073973  -2.161475   1.445509  -0.000141   0.000034
    20  Cl  -0.073973  17.030728  -0.337473   0.224018  -0.000000   0.000000
    21  C   -2.161475  -0.337473  20.643985  -8.989481  -0.000148  -0.000070
    22  C    1.445509   0.224018  -8.989481  14.667362   0.000003   0.000122
    23  H   -0.000141  -0.000000  -0.000148   0.000003   0.512513  -0.029366
    24  H    0.000034   0.000000  -0.000070   0.000122  -0.029366   0.522103
    25  H    0.000000  -0.000000  -0.000000  -0.000002   0.000000  -0.000000
    26  H    0.000002   0.000000  -0.000002  -0.000009  -0.000000  -0.000000
    27  H   -0.000003   0.000000   0.000002  -0.000030  -0.000000   0.000000
    28  H    0.000006  -0.000000  -0.000002   0.000070  -0.000000   0.000000
    29  H   -0.000308  -0.000000   0.000288  -0.000161  -0.000000  -0.000000
    30  H    0.000473   0.000001   0.000098   0.000117  -0.000000  -0.000000
    31  H   -0.000001  -0.000000   0.000001   0.000002  -0.000000   0.000000
    32  H    0.000000   0.000000  -0.000001  -0.000009  -0.000000  -0.000000
    33  H   -0.000000  -0.000000   0.000000  -0.000004   0.000000  -0.000000
    34  H    0.025882   0.002234  -0.006204  -0.022946  -0.000000   0.000000
    35  H    0.015873  -0.005215   0.029069   0.002803  -0.000000   0.000000
    36  H    0.060795  -0.000801   0.135867   0.062321   0.000000   0.000000
    37  H   -0.033601   0.001625  -0.131702   0.376918  -0.000001   0.000000
    38  H    0.012728   0.000317  -0.033999  -0.040740  -0.000005   0.000004
    39  H    0.003215   0.000008  -0.016780  -0.020651  -0.000000  -0.000000
              25         26         27         28         29         30
     1  C    0.000193  -0.002086   0.000771   0.000017  -0.000130   0.000459
     2  C    0.002215   0.003081  -0.000546   0.001296  -0.001464   0.004502
     3  C    0.006187  -0.003220  -0.001406   0.005197  -0.002466   0.000077
     4  C   -0.002027  -0.011844  -0.009988  -0.003017  -0.003794  -0.013013
     5  Si  -0.027839  -0.022677  -0.021445  -0.027365  -0.020525  -0.025181
     6  C    0.390025   0.389488   0.389172  -0.003650   0.009571  -0.003829
     7  C   -0.002045   0.009858  -0.003462   0.395259   0.379693   0.387417
     8  C   -0.006554  -0.001867   0.008982  -0.005109  -0.004217   0.009665
     9  O    0.000001   0.000000   0.000001  -0.000001   0.000029   0.000014
    10  C   -0.000240   0.000533  -0.000456  -0.000174   0.001528  -0.001061
    11  C   -0.000014   0.000030  -0.000026   0.000019  -0.000077  -0.000440
    12  O   -0.000000  -0.000000   0.000000  -0.000000   0.000001   0.000000
    13  O   -0.000000   0.000000  -0.000000  -0.000000  -0.000003  -0.000006
    14  N   -0.000000  -0.000001   0.000003   0.000108  -0.000440   0.000300
    15  N    0.000013  -0.000018   0.000018  -0.000181   0.002328  -0.000337
    16  C    0.000037   0.000155  -0.000424  -0.000172  -0.005312  -0.007946
    17  C   -0.000040  -0.000070   0.000306  -0.000243   0.001515  -0.000385
    18  C   -0.000006  -0.000024   0.000300  -0.000214   0.002036   0.008241
    19  C    0.000000   0.000002  -0.000003   0.000006  -0.000308   0.000473
    20  Cl  -0.000000   0.000000   0.000000  -0.000000  -0.000000   0.000001
    21  C   -0.000000  -0.000002   0.000002  -0.000002   0.000288   0.000098
    22  C   -0.000002  -0.000009  -0.000030   0.000070  -0.000161   0.000117
    23  H    0.000000  -0.000000  -0.000000  -0.000000  -0.000000  -0.000000
    24  H   -0.000000  -0.000000   0.000000   0.000000  -0.000000  -0.000000
    25  H    0.521462  -0.022896  -0.023705   0.000325   0.000002   0.000008
    26  H   -0.022896   0.512207  -0.021781   0.000008  -0.000018   0.000005
    27  H   -0.023705  -0.021781   0.515829   0.000006   0.000003   0.000422
    28  H    0.000325   0.000008   0.000006   0.509077  -0.022740  -0.022864
    29  H    0.000002  -0.000018   0.000003  -0.022740   0.532964  -0.025422
    30  H    0.000008   0.000005   0.000422  -0.022864  -0.025422   0.528443
    31  H    0.000008   0.000001  -0.000017   0.000020   0.000430  -0.000000
    32  H    0.000039   0.000379   0.000001   0.000010   0.000001  -0.000017
    33  H    0.000323   0.000020   0.000008   0.000348  -0.000012   0.000004
    34  H   -0.000000  -0.000000  -0.000000   0.000002   0.000036   0.000401
    35  H   -0.000000   0.000000   0.000000   0.000000  -0.000000  -0.000000
    36  H    0.000000   0.000000   0.000000   0.000000  -0.000000  -0.000000
    37  H   -0.000000   0.000000  -0.000000  -0.000000   0.000000  -0.000000
    38  H   -0.000000   0.000000   0.000000   0.000009  -0.000003   0.000030
    39  H    0.000000   0.000000  -0.000000   0.000000  -0.000015  -0.000002
              31         32         33         34         35         36
     1  C   -0.000538  -0.000219  -0.000314   0.000486  -0.000033  -0.000170
     2  C   -0.002124   0.003593   0.000987   0.002889  -0.000165   0.000346
     3  C   -0.003584   0.000658   0.003961  -0.001596   0.000071  -0.000333
     4  C   -0.007222  -0.019379   0.002586   0.000817  -0.000056   0.000027
     5  Si  -0.021308  -0.022890  -0.030400   0.003159   0.000021  -0.000005
     6  C    0.009581  -0.003481  -0.005763  -0.000267   0.000000  -0.000000
     7  C   -0.004299   0.009876  -0.003223  -0.000984  -0.000027   0.000000
     8  C    0.389198   0.393887   0.390970  -0.000038   0.000001   0.000000
     9  O   -0.000004  -0.000004   0.000000  -0.000100   0.000000  -0.000153
    10  C    0.001645   0.000213   0.000329   0.003992   0.000984   0.002037
    11  C    0.000537   0.000087   0.000049  -0.007435  -0.000072  -0.000556
    12  O    0.000000  -0.000000  -0.000000  -0.000004   0.000000  -0.000016
    13  O    0.000000   0.000000   0.000000  -0.000136   0.000008  -0.000075
    14  N   -0.000014  -0.000009  -0.000010  -0.005691  -0.000438  -0.000721
    15  N   -0.000122  -0.000028  -0.000009  -0.030233   0.000146  -0.000946
    16  C   -0.000326   0.000138   0.000127   0.029293   0.045314   0.010094
    17  C    0.000149  -0.000051  -0.000087   0.303091   0.013020   0.016181
    18  C    0.000008  -0.000006  -0.000007  -0.002633   0.214102   0.032749
    19  C   -0.000001   0.000000  -0.000000   0.025882   0.015873   0.060795
    20  Cl  -0.000000   0.000000  -0.000000   0.002234  -0.005215  -0.000801
    21  C    0.000001  -0.000001   0.000000  -0.006204   0.029069   0.135867
    22  C    0.000002  -0.000009  -0.000004  -0.022946   0.002803   0.062321
    23  H   -0.000000  -0.000000   0.000000  -0.000000  -0.000000   0.000000
    24  H    0.000000  -0.000000  -0.000000   0.000000   0.000000   0.000000
    25  H    0.000008   0.000039   0.000323  -0.000000  -0.000000   0.000000
    26  H    0.000001   0.000379   0.000020  -0.000000   0.000000   0.000000
    27  H   -0.000017   0.000001   0.000008  -0.000000   0.000000   0.000000
    28  H    0.000020   0.000010   0.000348   0.000002   0.000000   0.000000
    29  H    0.000430   0.000001  -0.000012   0.000036  -0.000000  -0.000000
    30  H   -0.000000  -0.000017   0.000004   0.000401  -0.000000  -0.000000
    31  H    0.514814  -0.021848  -0.023535  -0.000000   0.000000  -0.000000
    32  H   -0.021848   0.510282  -0.023196  -0.000000  -0.000000   0.000000
    33  H   -0.023535  -0.023196   0.522743   0.000000   0.000000  -0.000000
    34  H   -0.000000  -0.000000   0.000000   0.573718  -0.005720   0.000013
    35  H    0.000000  -0.000000   0.000000  -0.005720   0.534966  -0.000154
    36  H   -0.000000   0.000000  -0.000000   0.000013  -0.000154   0.528165
    37  H    0.000000  -0.000000   0.000000  -0.000157   0.000013  -0.005776
    38  H   -0.000002   0.000000  -0.000000   0.007450  -0.000005   0.000004
    39  H   -0.000000   0.000000   0.000000   0.000028  -0.000000  -0.000000
              37         38         39
     1  C    0.000041   0.022000   0.002145
     2  C    0.012494   0.187334   0.018297
     3  C   -0.012961  -0.162674  -0.018657
     4  C    0.000143   0.018582  -0.000918
     5  Si  -0.000118  -0.018499   0.005896
     6  C    0.000003   0.000696   0.000001
     7  C    0.000001   0.005819  -0.000926
     8  C    0.000002  -0.000304  -0.000882
     9  O   -0.000891  -0.032573  -0.006170
    10  C   -0.069733  -0.118744  -0.049527
    11  C    0.108344   0.040333   0.019609
    12  O    0.000563   0.000121   0.001246
    13  O    0.000406   0.000609  -0.047340
    14  N   -0.001852  -0.115680   0.121425
    15  N    0.006352   0.246225   0.034018
    16  C    0.062106   0.233858   0.176726
    17  C   -0.011142  -0.035513  -0.011959
    18  C   -0.003888  -0.025092  -0.008917
    19  C   -0.033601   0.012728   0.003215
    20  Cl   0.001625   0.000317   0.000008
    21  C   -0.131702  -0.033999  -0.016780
    22  C    0.376918  -0.040740  -0.020651
    23  H   -0.000001  -0.000005  -0.000000
    24  H    0.000000   0.000004  -0.000000
    25  H   -0.000000  -0.000000   0.000000
    26  H    0.000000   0.000000   0.000000
    27  H   -0.000000   0.000000  -0.000000
    28  H   -0.000000   0.000009   0.000000
    29  H    0.000000  -0.000003  -0.000015
    30  H   -0.000000   0.000030  -0.000002
    31  H    0.000000  -0.000002  -0.000000
    32  H   -0.000000   0.000000   0.000000
    33  H    0.000000  -0.000000   0.000000
    34  H   -0.000157   0.007450   0.000028
    35  H    0.000013  -0.000005  -0.000000
    36  H   -0.005776   0.000004  -0.000000
    37  H    0.534778  -0.000129  -0.000056
    38  H   -0.000129   0.438075  -0.003467
    39  H   -0.000056  -0.003467   0.471063
 Mulliken charges:
               1
     1  C   -0.440493
     2  C    0.286629
     3  C    0.663582
     4  C   -1.157312
     5  Si   1.278028
     6  C   -0.653114
     7  C   -0.721030
     8  C   -0.650544
     9  O   -0.251491
    10  C   -0.037970
    11  C    0.019156
    12  O   -0.465934
    13  O   -0.124474
    14  N   -0.061386
    15  N   -0.064047
    16  C   -1.175907
    17  C    0.472188
    18  C   -0.489908
    19  C    0.243692
    20  Cl   0.278603
    21  C   -0.508418
    22  C    0.429659
    23  H    0.159289
    24  H    0.152074
    25  H    0.164531
    26  H    0.170744
    27  H    0.167466
    28  H    0.173953
    29  H    0.156681
    30  H    0.159826
    31  H    0.168550
    32  H    0.171974
    33  H    0.164104
    34  H    0.130652
    35  H    0.155497
    36  H    0.161105
    37  H    0.168218
    38  H    0.373234
    39  H    0.332591
 Sum of Mulliken charges =  -0.00000
 Mulliken charges with hydrogens summed into heavy atoms:
               1
     1  C   -0.129130
     2  C    0.286629
     3  C    0.663582
     4  C   -1.157312
     5  Si   1.278028
     6  C   -0.150373
     7  C   -0.230570
     8  C   -0.145916
     9  O   -0.251491
    10  C   -0.037970
    11  C    0.019156
    12  O   -0.465934
    13  O   -0.124474
    14  N    0.271205
    15  N    0.309187
    16  C   -1.175907
    17  C    0.602840
    18  C   -0.334411
    19  C    0.243692
    20  Cl   0.278603
    21  C   -0.347312
    22  C    0.597878
 Electronic spatial extent (au):  <R**2>=           9769.3362
 Charge=             -0.0000 electrons
 Dipole moment (field-independent basis, Debye):
    X=              3.4550    Y=             -7.4431    Z=             -0.0634  Tot=              8.2061
 Quadrupole moment (field-independent basis, Debye-Ang):
   XX=           -135.3674   YY=           -169.5310   ZZ=           -143.8723
   XY=             -0.2020   XZ=             -5.9891   YZ=              9.0287
 Traceless Quadrupole moment (field-independent basis, Debye-Ang):
   XX=             14.2228   YY=            -19.9408   ZZ=              5.7180
   XY=             -0.2020   XZ=             -5.9891   YZ=              9.0287
 Octapole moment (field-independent basis, Debye-Ang**2):
  XXX=             23.4089  YYY=           -132.2227  ZZZ=             16.9095  XYY=             24.2410
  XXY=             -3.7792  XXZ=              7.9288  XZZ=             19.2620  YZZ=             14.9734
  YYZ=              8.9447  XYZ=             -9.1879
 Hexadecapole moment (field-independent basis, Debye-Ang**3):
 XXXX=          -8229.9467 YYYY=          -3894.1365 ZZZZ=          -1502.7185 XXXY=           -187.7245
 XXXZ=            -71.3189 YYYX=            149.3974 YYYZ=             70.3964 ZZZX=            -14.2701
 ZZZY=             36.5849 XXYY=          -1963.4589 XXZZ=          -1648.8768 YYZZ=           -813.0390
 XXYZ=             53.4359 YYXZ=            -38.5661 ZZXY=             45.8907
 N-N= 2.001591281952D+03 E-N=-7.916212765131D+03  KE= 1.655371369143D+03
 Unable to Open any file for archive entry.
 1\1\GINC-N2\SP\RB3LYP TD-FC\6-31+G(d,p)\C15H17Cl1N2O3Si1\HPCMGAC13\21-
 Sep-2025\0\\# td=(50-50,nstates=3) b3lyp/6-31+g(d,p) geom=connectivity
 \\Title Card Required\\0,1\C,0,-1.426058,1.925256,-3.163333\C,0,-1.187
 816,1.464169,-1.927852\C,0,-2.05309,0.566107,-1.223505\C,0,-2.769879,-
 0.226671,-0.626162\Si,0,-3.965864,-1.382887,0.1865\C,0,-4.512246,-2.66
 0515,-1.089404\C,0,-3.077092,-2.228473,1.627484\C,0,-5.433972,-0.37899
 8,0.814494\O,0,0.008896,1.799354,-1.301165\C,0,-0.033181,1.938095,0.07
 556\C,0,0.627376,3.014257,0.708241\O,0,0.890722,4.154888,0.397373\O,0,
 1.035405,2.531224,2.02973\N,0,0.457563,1.261474,2.234526\N,0,0.353712,
 0.706523,0.832506\C,0,1.570213,-0.048981,0.454946\C,0,1.617037,-1.4090
 36,0.752831\C,0,2.756275,-2.145204,0.431852\C,0,3.829194,-1.497179,-0.
 184277\Cl,0,5.263389,-2.416093,-0.595055\C,0,3.777546,-0.134843,-0.484
 722\C,0,2.634545,0.598185,-0.164922\H,0,-0.726013,2.606428,-3.633198\H
 ,0,-2.312643,1.618951,-3.703161\H,0,-5.224528,-3.367525,-0.647935\H,0,
 -5.000951,-2.179592,-1.943418\H,0,-3.659424,-3.232463,-1.470231\H,0,-3
 .749051,-2.932443,2.132201\H,0,-2.741964,-1.503866,2.378677\H,0,-2.206
 02,-2.796815,1.281956\H,0,-5.117583,0.37936,1.538504\H,0,-5.93849,0.13
 7039,-0.009216\H,0,-6.167092,-1.030553,1.304576\H,0,0.778024,-1.89894,
 1.240044\H,0,2.812104,-3.204196,0.656133\H,0,4.618271,0.3489,-0.968484
 \H,0,2.577312,1.652459,-0.407778\H,0,-0.433638,0.048245,0.855183\H,0,-
 0.53605,1.472298,2.416956\\Version=ES64L-G16RevC.02\State=1-A\HF=-1666
 .5599488\RMSD=9.950e-09\PG=C01 [X(C15H17Cl1N2O3Si1)]\\@
 The archive entry for this job was punched.


 WHEN A MATHEMATICIAN ENGAGED IN INVESTIGATING
 PHYSICAL ACTIONS AND RESULTS HAS ARRIVED AT HIS
 CONCLUSIONS, MAY THEY NOT BE EXPRESSED IN COMMON
 LANGUAGE AS FULLY, CLEARLY, AND DEFINITELY AS IN
 MATHEMATICAL FORMULAE?
           - LETTER FROM M. FARADAY TO J.C. MAXWELL, 1857.
 Job cpu time:       0 days  1 hours 27 minutes 32.6 seconds.
 Elapsed time:       0 days  0 hours 11 minutes  7.3 seconds.
 File lengths (MBytes):  RWF=   1402 Int=      0 D2E=      0 Chk=     68 Scr=      2
 Normal termination of Gaussian 16 at Sun Sep 21 21:46:51 2025.
