 Entering Gaussian System, Link 0=g16
 Input=M1582e.gjf
 Output=M1582e.log
 Initial command:
 /hpc/softwares/Gaussian/g16/l1.exe "/hpc/home/hpcmgac13/pbs.12950.admin1.x8z/Gau-2438679.inp" -scrdir="/hpc/home/hpcmgac13/pbs.12950.admin1.x8z/"
 Default linda workers: n2
 Default is to use   8 SMP processors on each worker.
 Entering Link 1 = /hpc/softwares/Gaussian/g16/l1.exe PID=   2438680.
  
 Copyright (c) 1988-2021, Gaussian, Inc.  All Rights Reserved.
  
 This is part of the Gaussian(R) 16 program.  It is based on
 the Gaussian(R) 09 system (copyright 2009, Gaussian, Inc.),
 the Gaussian(R) 03 system (copyright 2003, Gaussian, Inc.),
 the Gaussian(R) 98 system (copyright 1998, Gaussian, Inc.),
 the Gaussian(R) 94 system (copyright 1995, Gaussian, Inc.),
 the Gaussian 92(TM) system (copyright 1992, Gaussian, Inc.),
 the Gaussian 90(TM) system (copyright 1990, Gaussian, Inc.),
 the Gaussian 88(TM) system (copyright 1988, Gaussian, Inc.),
 the Gaussian 86(TM) system (copyright 1986, Carnegie Mellon
 University), and the Gaussian 82(TM) system (copyright 1983,
 Carnegie Mellon University). Gaussian is a federally registered
 trademark of Gaussian, Inc.
  
 This software contains proprietary and confidential information,
 including trade secrets, belonging to Gaussian, Inc.
  
 This software is provided under written license and may be
 used, copied, transmitted, or stored only in accord with that
 written license.
  
 The following legend is applicable only to US Government
 contracts under FAR:
  
                    RESTRICTED RIGHTS LEGEND
  
 Use, reproduction and disclosure by the US Government is
 subject to restrictions as set forth in subparagraphs (a)
 and (c) of the Commercial Computer Software - Restricted
 Rights clause in FAR 52.227-19.
  
 Gaussian, Inc.
 340 Quinnipiac St., Bldg. 40, Wallingford CT 06492
  
  
 ---------------------------------------------------------------
 Warning -- This program may not be used in any manner that
 competes with the business of Gaussian, Inc. or will provide
 assistance to any competitor of Gaussian, Inc.  The licensee
 of this program is prohibited from giving any competitor of
 Gaussian, Inc. access to this program.  By using this program,
 the user acknowledges that Gaussian, Inc. is engaged in the
 business of creating and licensing software in the field of
 computational chemistry and represents and warrants to the
 licensee that it is not a competitor of Gaussian, Inc. and that
 it will not use this program in any manner prohibited above.
 ---------------------------------------------------------------
  

 Cite this work as:
 Gaussian 16, Revision C.02,
 M. J. Frisch, G. W. Trucks, H. B. Schlegel, G. E. Scuseria, 
 M. A. Robb, J. R. Cheeseman, G. Scalmani, V. Barone, 
 G. A. Petersson, H. Nakatsuji, X. Li, M. Caricato, A. V. Marenich, 
 J. Bloino, B. G. Janesko, R. Gomperts, B. Mennucci, H. P. Hratchian, 
 J. V. Ortiz, A. F. Izmaylov, J. L. Sonnenberg, D. Williams-Young, 
 F. Ding, F. Lipparini, F. Egidi, J. Goings, B. Peng, A. Petrone, 
 T. Henderson, D. Ranasinghe, V. G. Zakrzewski, J. Gao, N. Rega, 
 G. Zheng, W. Liang, M. Hada, M. Ehara, K. Toyota, R. Fukuda, 
 J. Hasegawa, M. Ishida, T. Nakajima, Y. Honda, O. Kitao, H. Nakai, 
 T. Vreven, K. Throssell, J. A. Montgomery, Jr., J. E. Peralta, 
 F. Ogliaro, M. J. Bearpark, J. J. Heyd, E. N. Brothers, K. N. Kudin, 
 V. N. Staroverov, T. A. Keith, R. Kobayashi, J. Normand, 
 K. Raghavachari, A. P. Rendell, J. C. Burant, S. S. Iyengar, 
 J. Tomasi, M. Cossi, J. M. Millam, M. Klene, C. Adamo, R. Cammi, 
 J. W. Ochterski, R. L. Martin, K. Morokuma, O. Farkas, 
 J. B. Foresman, and D. J. Fox, Gaussian, Inc., Wallingford CT, 2019.
 
 ******************************************
 Gaussian 16:  ES64L-G16RevC.02  7-Dec-2021
                 7-Aug-2025 
 ******************************************
 SetLPE:    new flags="-opt 'Tsnet.Node.lindarsharg: ssh'  -nodelist 'n2.head.cm.mguif.local' -env GAUSS_MDEF=2147483648 -env GAUSS_EXEDIR="/hpc/softwares/Gaussian/g16/bsd:/hpc/softwares/Gaussian/g16""
 Will use up to    1 processors via Linda.
 ----------------------------------------------------------
 # td=(50-50,nstates=3) b3lyp/6-31+g(d,p) geom=connectivity
 ----------------------------------------------------------
 1/38=1,57=2,172=1/1;
 2/12=2,17=6,18=5,40=1/2;
 3/5=1,6=6,7=111,11=9,25=1,30=1,74=-5/1,2,3,8;
 4//1;
 5/5=2,38=5/2;
 8/6=1,10=2,108=3/1;
 9/41=3,42=1,48=2,70=2/14;
 6/7=2,8=2,9=2,10=2/1;
 99/5=1,9=1/99;
 -------------------
 Title Card Required
 -------------------
 Symbolic Z-matrix:
 Charge =  0 Multiplicity = 1
 C                    -3.29486  -3.18899  -0.81922 
 C                    -2.42432  -1.97431  -0.77979 
 C                    -1.34007  -1.83584   0.00282 
 C                    -0.43737  -0.67648   0.01766 
 C                     0.9107   -0.91037   0.11903 
 C                     1.90156   0.11706  -0.04233 
 C                     3.26165  -0.1588    0.0776 
 C                     4.2547    0.84329  -0.13543 
 N                     5.05906   1.66786  -0.3112 
 C                     3.73535  -1.46036   0.42058 
 N                     4.10868  -2.52828   0.69953 
 C                     1.43874   1.44384  -0.38855 
 C                     0.11386   1.7185   -0.43316 
 C                    -0.88929   0.71865  -0.10243 
 C                    -2.17489   1.16362   0.18969 
 C                    -3.23574   0.39811   0.76874 
 N                    -4.15519  -0.1071    1.27515 
 C                    -2.52184   2.54448   0.02338 
 N                    -2.81888   3.66128  -0.12144 
 H                    -4.31003  -2.93208  -0.48981 
 H                    -3.3819   -3.57624  -1.8416 
 H                    -2.91464  -3.98518  -0.17331 
 H                    -2.7156   -1.15759  -1.43952 
 H                    -1.02279  -2.68115   0.61191 
 H                     1.25135  -1.93107   0.26289 
 H                     2.16559   2.22445  -0.58624 
 H                    -0.2168    2.7282   -0.65019 
 
                          Input orientation:                          
 ---------------------------------------------------------------------
 Center     Atomic      Atomic             Coordinates (Angstroms)
 Number     Number       Type             X           Y           Z
 ---------------------------------------------------------------------
      1          6           0       -3.294855   -3.188990   -0.819218
      2          6           0       -2.424317   -1.974310   -0.779788
      3          6           0       -1.340071   -1.835835    0.002818
      4          6           0       -0.437374   -0.676480    0.017660
      5          6           0        0.910697   -0.910369    0.119033
      6          6           0        1.901555    0.117055   -0.042326
      7          6           0        3.261650   -0.158799    0.077603
      8          6           0        4.254703    0.843290   -0.135434
      9          7           0        5.059059    1.667856   -0.311195
     10          6           0        3.735346   -1.460358    0.420580
     11          7           0        4.108680   -2.528284    0.699527
     12          6           0        1.438742    1.443839   -0.388547
     13          6           0        0.113856    1.718496   -0.433163
     14          6           0       -0.889291    0.718647   -0.102434
     15          6           0       -2.174886    1.163623    0.189693
     16          6           0       -3.235735    0.398111    0.768739
     17          7           0       -4.155185   -0.107096    1.275148
     18          6           0       -2.521840    2.544482    0.023383
     19          7           0       -2.818878    3.661276   -0.121440
     20          1           0       -4.310030   -2.932075   -0.489809
     21          1           0       -3.381900   -3.576236   -1.841600
     22          1           0       -2.914644   -3.985178   -0.173310
     23          1           0       -2.715602   -1.157592   -1.439524
     24          1           0       -1.022786   -2.681150    0.611908
     25          1           0        1.251351   -1.931071    0.262891
     26          1           0        2.165587    2.224446   -0.586237
     27          1           0       -0.216795    2.728195   -0.650194
 ---------------------------------------------------------------------
                    Distance matrix (angstroms):
                    1          2          3          4          5
     1  C    0.000000
     2  C    1.494938   0.000000
     3  C    2.515542   1.344335   0.000000
     4  C    3.895930   2.503643   1.469417   0.000000
     5  C    4.874330   3.614162   2.436380   1.371961   0.000000
     6  C    6.207751   4.861155   3.784700   2.470604   1.436467
     7  C    7.278331   6.030043   4.898355   3.735554   2.468512
     8  C    8.586191   7.277594   6.204701   4.934443   3.784501
     9  N    9.676514   8.335818   7.302282   5.984549   4.903187
    10  C    7.344998   6.296545   5.106404   4.264786   2.893451
    11  N    7.586531   6.721258   5.536585   4.955878   3.630664
    12  C    6.637433   5.173010   4.316391   2.860169   2.465515
    13  C    5.987635   4.494362   3.864874   2.498601   2.801929
    14  C    4.644367   3.172874   2.596085   1.471404   2.437765
    15  C    4.606243   3.293741   3.119068   2.536636   3.718502
    16  C    3.923314   2.946984   3.028315   3.090257   4.396264
    17  N    3.824213   3.271873   3.540089   3.965803   5.257852
    18  C    5.846386   4.590651   4.536979   3.836617   4.871084
    19  N    6.902144   5.687612   5.693904   4.950458   5.904870
    20  H    1.097769   2.134787   3.203916   4.510288   5.631516
    21  H    1.096723   2.147225   3.255755   4.531630   5.420085
    22  H    1.093468   2.156809   2.670202   4.137731   4.916620
    23  H    2.201566   1.089554   2.105338   2.746849   3.954777
    24  H    2.732823   2.097792   1.089136   2.171299   2.667761
    25  H    4.839557   3.820940   2.606180   2.118001   1.085621
    26  H    7.692594   6.223683   5.396527   3.944042   3.449525
    27  H    6.672039   5.196489   4.745371   3.476564   3.886142
                    6          7          8          9         10
     6  C    0.000000
     7  C    1.392960   0.000000
     8  C    2.464425   1.426787   0.000000
     9  N    3.528046   2.592009   1.165242   0.000000
    10  C    2.462784   1.426912   2.426042   3.474685   0.000000
    11  N    3.524140   2.592047   3.476492   4.419544   1.165185
    12  C    1.447211   2.471586   2.890391   3.628066   3.789912
    13  C    2.431714   3.700503   4.242787   4.946966   4.893790
    14  C    2.855582   4.246485   5.145610   6.027225   5.138956
    15  C    4.215034   5.596185   6.445769   7.268776   6.470659
    16  C    5.208509   6.557731   7.557935   8.460622   7.222956
    17  N    6.202425   7.513071   8.580163   9.516787   8.051216
    18  C    5.046102   6.384311   6.988620   7.638746   7.439683
    19  N    5.903410   7.183691   7.614249   8.128445   8.335633
    20  H    6.934063   8.083524   9.366622  10.438922   8.229388
    21  H    6.692734   7.713558   8.986708  10.054473   7.762061
    22  H    6.327815   7.269852   8.643788   9.775262   7.137912
    23  H    4.989492   6.247144   7.368129   8.348751   6.720594
    24  H    4.099969   5.000413   6.389999   7.533579   4.915970
    25  H    2.170425   2.686370   4.108024   5.270720   2.533114
    26  H    2.192407   2.705900   2.544646   2.959328   4.129843
    27  H    3.416864   4.578646   4.879768   5.392020   5.857470
                   11         12         13         14         15
    11  N    0.000000
    12  C    4.908180   0.000000
    13  C    5.939423   1.353791   0.000000
    14  C    6.013769   2.455097   1.454436   0.000000
    15  C    7.305704   3.670312   2.436016   1.391437   0.000000
    16  C    7.906264   4.927839   3.795754   2.523388   1.430630
    17  N    8.630467   6.038650   4.947305   3.639457   2.591240
    18  C    8.375794   4.131260   2.799568   2.452493   1.433460
    19  N    9.326076   4.807879   3.531642   3.518911   2.598038
    20  H    8.511888   7.225459   6.418862   5.017897   4.668544
    21  H    7.978992   7.109930   6.499092   5.261541   5.296159
    22  H    7.225750   6.962221   6.463067   5.121821   5.214323
    23  H    7.281838   5.013040   4.158182   2.939982   2.886999
    24  H    5.134490   4.906686   4.662726   3.476597   4.035824
    25  H    2.951549   3.442311   3.885579   3.425904   4.617531
    26  H    5.293132   1.084773   2.118730   3.440026   4.535099
    27  H    6.939888   2.111595   1.084401   2.188738   2.643372
                   16         17         18         19         20
    16  C    0.000000
    17  N    1.164935   0.000000
    18  C    2.381619   3.356426   0.000000
    19  N    3.407996   4.235186   1.164661   0.000000
    20  H    3.718628   3.334600   5.783914   6.769897   0.000000
    21  H    4.757170   4.727263   6.456087   7.460397   1.761734
    22  H    4.494861   4.321631   6.544421   7.647230   1.776598
    23  H    2.750850   3.247366   3.985347   4.996949   2.567674
    24  H    3.795206   4.108231   5.468158   6.632504   3.476020
    25  H    5.080838   5.795013   5.858746   6.927396   5.700660
    26  H    5.860524   6.989492   4.737724   5.208206   8.278443
    27  H    4.068988   5.220798   2.408462   2.814437   6.987056
                   21         22         23         24         25
    21  H    0.000000
    22  H    1.780099   0.000000
    23  H    2.540759   3.104538   0.000000
    24  H    3.519417   2.428206   3.065164   0.000000
    25  H    5.348127   4.665313   4.385568   2.419944   0.000000
    26  H    8.123944   8.033597   5.999357   5.972114   4.338798
    27  H    7.154243   7.250875   4.686835   5.612801   4.969702
                   26         27
    26  H    0.000000
    27  H    2.435898   0.000000
 Stoichiometry    C15H8N4
 Framework group  C1[X(C15H8N4)]
 Deg. of freedom    75
 Full point group                 C1      NOp   1
 Largest Abelian subgroup         C1      NOp   1
 Largest concise Abelian subgroup C1      NOp   1
                         Standard orientation:                         
 ---------------------------------------------------------------------
 Center     Atomic      Atomic             Coordinates (Angstroms)
 Number     Number       Type             X           Y           Z
 ---------------------------------------------------------------------
      1          6           0        3.294855    3.188990   -0.819218
      2          6           0        2.424317    1.974310   -0.779788
      3          6           0        1.340071    1.835835    0.002818
      4          6           0        0.437374    0.676480    0.017660
      5          6           0       -0.910697    0.910369    0.119033
      6          6           0       -1.901555   -0.117055   -0.042326
      7          6           0       -3.261650    0.158799    0.077603
      8          6           0       -4.254703   -0.843290   -0.135434
      9          7           0       -5.059059   -1.667856   -0.311195
     10          6           0       -3.735346    1.460358    0.420580
     11          7           0       -4.108680    2.528284    0.699527
     12          6           0       -1.438742   -1.443839   -0.388547
     13          6           0       -0.113856   -1.718496   -0.433163
     14          6           0        0.889291   -0.718647   -0.102434
     15          6           0        2.174886   -1.163623    0.189693
     16          6           0        3.235735   -0.398111    0.768739
     17          7           0        4.155185    0.107096    1.275148
     18          6           0        2.521840   -2.544482    0.023383
     19          7           0        2.818878   -3.661276   -0.121440
     20          1           0        4.310030    2.932075   -0.489809
     21          1           0        3.381900    3.576236   -1.841600
     22          1           0        2.914644    3.985178   -0.173310
     23          1           0        2.715602    1.157592   -1.439524
     24          1           0        1.022786    2.681150    0.611908
     25          1           0       -1.251351    1.931071    0.262891
     26          1           0       -2.165587   -2.224446   -0.586237
     27          1           0        0.216795   -2.728195   -0.650194
 ---------------------------------------------------------------------
 Rotational constants (GHZ):           0.5834441           0.2346505           0.1751994
 Standard basis: 6-31+G(d,p) (6D, 7F)
 There are   401 symmetry adapted cartesian basis functions of A   symmetry.
 There are   401 symmetry adapted basis functions of A   symmetry.
   401 basis functions,   664 primitive gaussians,   401 cartesian basis functions
    63 alpha electrons       63 beta electrons
       nuclear repulsion energy      1152.8672117016 Hartrees.
 NAtoms=   27 NActive=   27 NUniq=   27 SFac= 1.00D+00 NAtFMM=   60 NAOKFM=F Big=F
 Integral buffers will be    131072 words long.
 Regular integral format.
 Two-electron integral symmetry is turned on.
 One-electron integrals computed using PRISM.
 NBasis=   401 RedAO= T EigKep=  1.62D-06  NBF=   401
 NBsUse=   397 1.00D-06 EigRej=  8.15D-07 NBFU=   397
 ExpMin= 4.38D-02 ExpMax= 4.17D+03 ExpMxC= 6.27D+02 IAcc=3 IRadAn=         5 AccDes= 0.00D+00
 Harris functional with IExCor=  402 and IRadAn=       5 diagonalized for initial guess.
 HarFok:  IExCor=  402 AccDes= 0.00D+00 IRadAn=         5 IDoV= 1 UseB2=F ITyADJ=14
 ICtDFT=  3500011 ScaDFX=  1.000000  1.000000  1.000000  1.000000
 FoFCou: FMM=F IPFlag=           0 FMFlag=      100000 FMFlg1=           0
         NFxFlg=           0 DoJE=T BraDBF=F KetDBF=T FulRan=T
         wScrn=  0.000000 ICntrl=       500 IOpCl=  0 I1Cent=   200000004 NGrid=           0
         NMat0=    1 NMatS0=      1 NMatT0=    0 NMatD0=    1 NMtDS0=    0 NMtDT0=    0
 Petite list used in FoFCou.
 Requested convergence on RMS density matrix=1.00D-08 within 128 cycles.
 Requested convergence on MAX density matrix=1.00D-06.
 Requested convergence on             energy=1.00D-06.
 No special actions if energy rises.
 SCF Done:  E(RB3LYP) =  -795.326379302     A.U. after   17 cycles
            NFock= 17  Conv=0.68D-08     -V/T= 2.0097
 DoSCS=F DFT=T ScalE2(SS,OS)=  1.000000  1.000000
 ExpMin= 4.38D-02 ExpMax= 4.17D+03 ExpMxC= 6.27D+02 IAcc=3 IRadAn=         5 AccDes= 0.00D+00
 HarFok:  IExCor=  205 AccDes= 0.00D+00 IRadAn=         5 IDoV=-2 UseB2=F ITyADJ=14
 ICtDFT= 12500011 ScaDFX=  1.000000  1.000000  1.000000  1.000000
 Range of M.O.s used for correlation:    20   397
 NBasis=   401 NAE=    63 NBE=    63 NFC=    19 NFV=     0
 NROrb=    378 NOA=    44 NOB=    44 NVA=   334 NVB=   334

 **** Warning!!: The largest alpha MO coefficient is  0.17365209D+03


 **** Warning!!: The smallest alpha delta epsilon is  0.85923520D-01

 Orbital symmetries:
       Occupied  (A) (A) (A) (A) (A) (A) (A) (A) (A) (A) (A) (A)
                 (A) (A) (A) (A) (A) (A) (A) (A) (A) (A) (A) (A)
                 (A) (A) (A) (A) (A) (A) (A) (A) (A) (A) (A) (A)
                 (A) (A) (A) (A) (A) (A) (A) (A) (A) (A) (A) (A)
                 (A) (A) (A) (A) (A) (A) (A) (A) (A) (A) (A) (A)
                 (A) (A) (A)
       Virtual   (A) (A) (A) (A) (A) (A) (A) (A) (A) (A) (A) (A)
                 (A) (A) (A) (A) (A) (A) (A) (A) (A) (A) (A) (A)
                 (A) (A) (A) (A) (A) (A) (A) (A) (A) (A) (A) (A)
                 (A) (A) (A) (A) (A) (A) (A) (A) (A) (A) (A) (A)
                 (A) (A) (A) (A) (A) (A) (A) (A) (A) (A) (A) (A)
                 (A) (A) (A) (A) (A) (A) (A) (A) (A) (A) (A) (A)
                 (A) (A) (A) (A) (A) (A) (A) (A) (A) (A) (A) (A)
                 (A) (A) (A) (A) (A) (A) (A) (A) (A) (A) (A) (A)
                 (A) (A) (A) (A) (A) (A) (A) (A) (A) (A) (A) (A)
                 (A) (A) (A) (A) (A) (A) (A) (A) (A) (A) (A) (A)
                 (A) (A) (A) (A) (A) (A) (A) (A) (A) (A) (A) (A)
                 (A) (A) (A) (A) (A) (A) (A) (A) (A) (A) (A) (A)
                 (A) (A) (A) (A) (A) (A) (A) (A) (A) (A) (A) (A)
                 (A) (A) (A) (A) (A) (A) (A) (A) (A) (A) (A) (A)
                 (A) (A) (A) (A) (A) (A) (A) (A) (A) (A) (A) (A)
                 (A) (A) (A) (A) (A) (A) (A) (A) (A) (A) (A) (A)
                 (A) (A) (A) (A) (A) (A) (A) (A) (A) (A) (A) (A)
                 (A) (A) (A) (A) (A) (A) (A) (A) (A) (A) (A) (A)
                 (A) (A) (A) (A) (A) (A) (A) (A) (A) (A) (A) (A)
                 (A) (A) (A) (A) (A) (A) (A) (A) (A) (A) (A) (A)
                 (A) (A) (A) (A) (A) (A) (A) (A) (A) (A) (A) (A)
                 (A) (A) (A) (A) (A) (A) (A) (A) (A) (A) (A) (A)
                 (A) (A) (A) (A) (A) (A) (A) (A) (A) (A) (A) (A)
                 (A) (A) (A) (A) (A) (A) (A) (A) (A) (A) (A) (A)
                 (A) (A) (A) (A) (A) (A) (A) (A) (A) (A) (A) (A)
                 (A) (A) (A) (A) (A) (A) (A) (A) (A) (A) (A) (A)
                 (A) (A) (A) (A) (A) (A) (A) (A) (A) (A) (A) (A)
                 (A) (A) (A) (A) (A) (A) (A) (A) (A) (A)
    24 initial guesses have been made.
 Convergence on wavefunction:    0.001000000000000
 Iteration     1 Dimension    24 NMult     0 NNew     24
 CISAX will form    24 AO SS matrices at one time.
 New state      1 was old state      2
 New state      2 was old state      4
 New state      4 was old state      6
 New state      5 was old state      8
 New state      6 was old state      1
 New state      7 was old state     10
 New state      8 was old state      5
 New state      9 was old state      7
 New state     10 was old state     14
 New state     11 was old state     12
 New state     12 was old state     16
 Vector   5 SDiff=1.39D+00 TDiff=9.99D+00 assumed to be singlet.
 Vector  11 SDiff=1.13D+00 TDiff=6.13D+00 assumed to be singlet.
 Iteration     2 Dimension    36 NMult    24 NNew     12
 New state      5 was old state      6
 New state      6 was old state      8
 Iteration     3 Dimension    48 NMult    36 NNew     12
 New state      4 was old state      5
 New state      5 was old state      4
 Iteration     4 Dimension    60 NMult    48 NNew     12
 Iteration     5 Dimension    72 NMult    60 NNew     12
 Iteration     6 Dimension    80 NMult    72 NNew      8
 ***********************************************************************
 Excited states from <AA,BB:AA,BB> singles matrix:
 ***********************************************************************
 
 Ground to excited state transition densities written to RWF  633
 Ground to excited state transition electric dipole moments (Au):
       state          X           Y           Z        Dip. S.      Osc.
         1        -0.0000     -0.0000     -0.0000      0.0000      0.0000
         2         0.0000      0.0000     -0.0000      0.0000      0.0000
         3        -1.4375     -0.1780      0.1388      2.1173      0.1109
         4         3.1363     -0.9458      0.1704     10.7600      0.7758
         5         0.0000      0.0000     -0.0000      0.0000      0.0000
         6        -0.1983      0.2751     -0.1157      0.1284      0.0115
 Ground to excited state transition velocity dipole moments (Au):
       state          X           Y           Z        Dip. S.      Osc.
         1         0.0000      0.0000      0.0000      0.0000      0.0000
         2        -0.0000     -0.0000     -0.0000      0.0000      0.0000
         3         0.1069      0.0148     -0.0102      0.0118      0.0998
         4        -0.3288      0.0992     -0.0187      0.1183      0.7291
         5         0.0000     -0.0000      0.0000      0.0000      0.0000
         6         0.0253     -0.0355      0.0147      0.0021      0.0105
 Ground to excited state transition magnetic dipole moments (Au):
       state          X           Y           Z
         1        -0.0000     -0.0000      0.0000
         2        -0.0000     -0.0000      0.0000
         3         0.0628      0.0709     -0.2523
         4         0.0491      0.1848     -0.6257
         5         0.0000     -0.0000      0.0000
         6        -0.0726      0.0853     -0.5286
 Ground to excited state transition velocity quadrupole moments (Au):
       state          XX          YY          ZZ          XY          XZ          YZ
         1        -0.0000      0.0000      0.0000     -0.0000      0.0000     -0.0000
         2         0.0000     -0.0000     -0.0000      0.0000      0.0000      0.0000
         3        -0.3082      0.1317      0.0102      0.1610     -0.0158     -0.0644
         4         0.7509     -0.1822     -0.0315      0.3846     -0.2413      0.0441
         5        -0.0000     -0.0000     -0.0000     -0.0000      0.0000     -0.0000
         6         0.1023      0.0116      0.0012     -0.2019      0.0901      0.0334
 <0|del|b> * <b|rxdel|0> + <0|del|b> * <b|delr+rdel|0>
 Rotatory Strengths (R) in cgs (10**-40 erg-esu-cm/Gauss)
       state          XX          YY          ZZ    R(velocity)    E-M Angle
         1         0.0000     -0.0000      0.0000     -0.0000       90.00
         2        -0.0000      0.0000      0.0000      0.0000       90.00
         3         9.9405     18.1715     64.8797     30.9972       69.29
         4       152.9897    -38.3003    -23.6389     30.3502       86.45
         5         0.0000      0.0000      0.0000      0.0000       90.00
         6       -27.9545    -15.3275    -23.5326    -22.2715      120.57
 1/2[<0|r|b>*<b|rxdel|0> + (<0|rxdel|b>*<b|r|0>)*]
 Rotatory Strengths (R) in cgs (10**-40 erg-esu-cm/Gauss)
       state          XX          YY          ZZ     R(length)
         1        -0.0000     -0.0000      0.0000     -0.0000
         2         0.0000      0.0000      0.0000      0.0000
         3        63.8659      8.9250     24.7666     32.5192
         4      -108.8310    123.5966     75.3862     30.0506
         5        -0.0000      0.0000      0.0000      0.0000
         6       -10.1808    -16.5883    -43.2348    -23.3346
  1/2[<0|del|b>*<b|r|0> + (<0|r|b>*<b|del|0>)*] (Au)
       state          X           Y           Z        Dip. S.   Osc.(frdel)
         1        -0.0000     -0.0000     -0.0000      0.0000      0.0000
         2        -0.0000     -0.0000      0.0000      0.0000      0.0000
         3        -0.1537     -0.0026     -0.0014      0.1578      0.1052
         4        -1.0311     -0.0938     -0.0032      1.1281      0.7521
         5         0.0000     -0.0000     -0.0000     -0.0000     -0.0000
         6        -0.0050     -0.0098     -0.0017      0.0165      0.0110

 Excitation energies and oscillator strengths:
 
 Excited State   1:      Triplet-A      0.6247 eV 1984.83 nm  f=0.0000  <S**2>=2.000
      62 -> 64        -0.24347
      63 -> 64         0.74559
      62 <- 64        -0.13820
      63 <- 64         0.33152
 This state for optimization and/or second-order correction.
 Total Energy, E(TD-HF/TD-DFT) =  -795.303423469    
 Copying the excited state density for this state as the 1-particle RhoCI density.
 
 Excited State   2:      Triplet-A      1.8257 eV  679.11 nm  f=0.0000  <S**2>=2.000
      62 -> 64         0.66035
      63 -> 64         0.19571
 
 Excited State   3:      Singlet-A      2.1379 eV  579.95 nm  f=0.1109  <S**2>=0.000
      62 -> 64         0.46954
      63 -> 64         0.52766
 
 Excited State   4:      Singlet-A      2.9429 eV  421.30 nm  f=0.7758  <S**2>=0.000
      62 -> 64         0.52697
      63 -> 64        -0.48040
      63 <- 64         0.13379
 
 Excited State   5:      Triplet-A      2.9530 eV  419.86 nm  f=0.0000  <S**2>=2.000
      60 -> 64        -0.37140
      61 -> 64         0.54644
      63 -> 66        -0.17102
 
 Excited State   6:      Singlet-A      3.6412 eV  340.51 nm  f=0.0115  <S**2>=0.000
      60 -> 64         0.21701
      61 -> 64         0.66460
 SavETr:  write IOETrn=   770 NScale= 10 NData=  16 NLR=1 NState=    6 LETran=     118.

 **********************************************************************

            Population analysis using the SCF Density.

 **********************************************************************

 Orbital symmetries:
       Occupied  (A) (A) (A) (A) (A) (A) (A) (A) (A) (A) (A) (A)
                 (A) (A) (A) (A) (A) (A) (A) (A) (A) (A) (A) (A)
                 (A) (A) (A) (A) (A) (A) (A) (A) (A) (A) (A) (A)
                 (A) (A) (A) (A) (A) (A) (A) (A) (A) (A) (A) (A)
                 (A) (A) (A) (A) (A) (A) (A) (A) (A) (A) (A) (A)
                 (A) (A) (A)
       Virtual   (A) (A) (A) (A) (A) (A) (A) (A) (A) (A) (A) (A)
                 (A) (A) (A) (A) (A) (A) (A) (A) (A) (A) (A) (A)
                 (A) (A) (A) (A) (A) (A) (A) (A) (A) (A) (A) (A)
                 (A) (A) (A) (A) (A) (A) (A) (A) (A) (A) (A) (A)
                 (A) (A) (A) (A) (A) (A) (A) (A) (A) (A) (A) (A)
                 (A) (A) (A) (A) (A) (A) (A) (A) (A) (A) (A) (A)
                 (A) (A) (A) (A) (A) (A) (A) (A) (A) (A) (A) (A)
                 (A) (A) (A) (A) (A) (A) (A) (A) (A) (A) (A) (A)
                 (A) (A) (A) (A) (A) (A) (A) (A) (A) (A) (A) (A)
                 (A) (A) (A) (A) (A) (A) (A) (A) (A) (A) (A) (A)
                 (A) (A) (A) (A) (A) (A) (A) (A) (A) (A) (A) (A)
                 (A) (A) (A) (A) (A) (A) (A) (A) (A) (A) (A) (A)
                 (A) (A) (A) (A) (A) (A) (A) (A) (A) (A) (A) (A)
                 (A) (A) (A) (A) (A) (A) (A) (A) (A) (A) (A) (A)
                 (A) (A) (A) (A) (A) (A) (A) (A) (A) (A) (A) (A)
                 (A) (A) (A) (A) (A) (A) (A) (A) (A) (A) (A) (A)
                 (A) (A) (A) (A) (A) (A) (A) (A) (A) (A) (A) (A)
                 (A) (A) (A) (A) (A) (A) (A) (A) (A) (A) (A) (A)
                 (A) (A) (A) (A) (A) (A) (A) (A) (A) (A) (A) (A)
                 (A) (A) (A) (A) (A) (A) (A) (A) (A) (A) (A) (A)
                 (A) (A) (A) (A) (A) (A) (A) (A) (A) (A) (A) (A)
                 (A) (A) (A) (A) (A) (A) (A) (A) (A) (A) (A) (A)
                 (A) (A) (A) (A) (A) (A) (A) (A) (A) (A) (A) (A)
                 (A) (A) (A) (A) (A) (A) (A) (A) (A) (A) (A) (A)
                 (A) (A) (A) (A) (A) (A) (A) (A) (A) (A) (A) (A)
                 (A) (A) (A) (A) (A) (A) (A) (A) (A) (A) (A) (A)
                 (A) (A) (A) (A) (A) (A) (A) (A) (A) (A) (A) (A)
                 (A) (A) (A) (A) (A) (A) (A) (A) (A) (A)
 The electronic state is 1-A.
 Alpha  occ. eigenvalues --  -14.38882 -14.38549 -14.38523 -14.38462 -10.32061
 Alpha  occ. eigenvalues --  -10.31266 -10.30167 -10.29288 -10.28036 -10.27951
 Alpha  occ. eigenvalues --  -10.27949 -10.27674 -10.27630 -10.26590 -10.26470
 Alpha  occ. eigenvalues --  -10.25894 -10.24457 -10.23736 -10.21632  -0.96689
 Alpha  occ. eigenvalues --   -0.96087  -0.94675  -0.94440  -0.93624  -0.89243
 Alpha  occ. eigenvalues --   -0.85929  -0.84040  -0.81361  -0.77025  -0.73326
 Alpha  occ. eigenvalues --   -0.68854  -0.67872  -0.63986  -0.61523  -0.59995
 Alpha  occ. eigenvalues --   -0.58251  -0.57020  -0.51385  -0.51086  -0.49575
 Alpha  occ. eigenvalues --   -0.47988  -0.46126  -0.45527  -0.45269  -0.44648
 Alpha  occ. eigenvalues --   -0.42859  -0.41401  -0.40986  -0.40809  -0.40800
 Alpha  occ. eigenvalues --   -0.40382  -0.40128  -0.39324  -0.38711  -0.38316
 Alpha  occ. eigenvalues --   -0.38198  -0.38072  -0.37280  -0.36992  -0.34886
 Alpha  occ. eigenvalues --   -0.34153  -0.29080  -0.26554
 Alpha virt. eigenvalues --   -0.17962  -0.08610  -0.07261  -0.04590  -0.03804
 Alpha virt. eigenvalues --   -0.02066  -0.01641  -0.00655  -0.00505   0.00026
 Alpha virt. eigenvalues --    0.00521   0.00776   0.00982   0.01576   0.01986
 Alpha virt. eigenvalues --    0.02180   0.02627   0.02952   0.03883   0.04188
 Alpha virt. eigenvalues --    0.04615   0.05343   0.05682   0.06109   0.06254
 Alpha virt. eigenvalues --    0.06765   0.07096   0.07764   0.08285   0.08519
 Alpha virt. eigenvalues --    0.08725   0.09209   0.09477   0.09506   0.09731
 Alpha virt. eigenvalues --    0.09975   0.11393   0.11559   0.11948   0.11959
 Alpha virt. eigenvalues --    0.12576   0.12682   0.12914   0.13655   0.14078
 Alpha virt. eigenvalues --    0.14233   0.15096   0.15375   0.16070   0.16155
 Alpha virt. eigenvalues --    0.16974   0.17348   0.17772   0.18275   0.18525
 Alpha virt. eigenvalues --    0.18606   0.19442   0.19520   0.19807   0.20357
 Alpha virt. eigenvalues --    0.20566   0.21005   0.21123   0.21970   0.22581
 Alpha virt. eigenvalues --    0.22940   0.23014   0.23373   0.24118   0.24180
 Alpha virt. eigenvalues --    0.24672   0.24754   0.24791   0.25029   0.25345
 Alpha virt. eigenvalues --    0.25480   0.25933   0.26329   0.26787   0.26881
 Alpha virt. eigenvalues --    0.27291   0.27571   0.27715   0.28064   0.28122
 Alpha virt. eigenvalues --    0.28710   0.29225   0.29692   0.30109   0.30362
 Alpha virt. eigenvalues --    0.30943   0.31442   0.31761   0.32148   0.33104
 Alpha virt. eigenvalues --    0.33254   0.34021   0.34637   0.35047   0.38184
 Alpha virt. eigenvalues --    0.38532   0.39459   0.40026   0.42058   0.43547
 Alpha virt. eigenvalues --    0.45647   0.50959   0.54098   0.55465   0.60716
 Alpha virt. eigenvalues --    0.61612   0.62315   0.63760   0.64488   0.65544
 Alpha virt. eigenvalues --    0.65772   0.66781   0.67789   0.68738   0.69045
 Alpha virt. eigenvalues --    0.69868   0.70449   0.71096   0.71786   0.72083
 Alpha virt. eigenvalues --    0.72613   0.73467   0.73725   0.74319   0.75271
 Alpha virt. eigenvalues --    0.75574   0.76187   0.76875   0.77855   0.78876
 Alpha virt. eigenvalues --    0.79696   0.80152   0.80556   0.83200   0.83360
 Alpha virt. eigenvalues --    0.83986   0.84533   0.85893   0.87916   0.88493
 Alpha virt. eigenvalues --    0.89528   0.90390   0.92591   0.92830   0.94060
 Alpha virt. eigenvalues --    0.94363   0.95208   0.97604   0.97806   0.98715
 Alpha virt. eigenvalues --    0.98830   0.99431   0.99497   1.00741   1.01458
 Alpha virt. eigenvalues --    1.02180   1.02479   1.03096   1.03967   1.04454
 Alpha virt. eigenvalues --    1.06136   1.07319   1.07380   1.07989   1.09715
 Alpha virt. eigenvalues --    1.10326   1.11780   1.12314   1.12845   1.13894
 Alpha virt. eigenvalues --    1.15205   1.16742   1.17723   1.19687   1.21573
 Alpha virt. eigenvalues --    1.22462   1.23803   1.24909   1.25842   1.27366
 Alpha virt. eigenvalues --    1.28626   1.29515   1.30069   1.32036   1.32965
 Alpha virt. eigenvalues --    1.34525   1.35273   1.37878   1.38734   1.39943
 Alpha virt. eigenvalues --    1.40262   1.43598   1.44304   1.46253   1.48636
 Alpha virt. eigenvalues --    1.49023   1.49166   1.50365   1.51048   1.52335
 Alpha virt. eigenvalues --    1.53372   1.55202   1.57738   1.59028   1.62488
 Alpha virt. eigenvalues --    1.64583   1.66274   1.66792   1.68261   1.69829
 Alpha virt. eigenvalues --    1.70925   1.73443   1.74798   1.75758   1.76858
 Alpha virt. eigenvalues --    1.77493   1.78972   1.82274   1.83479   1.83671
 Alpha virt. eigenvalues --    1.86057   1.87065   1.87715   1.88363   1.89283
 Alpha virt. eigenvalues --    1.90935   1.91498   1.92424   1.93047   1.94115
 Alpha virt. eigenvalues --    1.94477   1.95183   1.97778   1.98485   1.99474
 Alpha virt. eigenvalues --    2.00227   2.01370   2.01598   2.03268   2.03577
 Alpha virt. eigenvalues --    2.05776   2.08003   2.08512   2.09450   2.10570
 Alpha virt. eigenvalues --    2.11830   2.14422   2.15842   2.17433   2.20280
 Alpha virt. eigenvalues --    2.22165   2.24594   2.25902   2.26553   2.28384
 Alpha virt. eigenvalues --    2.30840   2.33617   2.35951   2.38061   2.39256
 Alpha virt. eigenvalues --    2.40783   2.43977   2.45520   2.47836   2.50830
 Alpha virt. eigenvalues --    2.52700   2.52990   2.54223   2.55475   2.58833
 Alpha virt. eigenvalues --    2.59801   2.61331   2.63387   2.63888   2.66301
 Alpha virt. eigenvalues --    2.67527   2.70470   2.72508   2.74284   2.76223
 Alpha virt. eigenvalues --    2.79579   2.79760   2.81036   2.82959   2.84134
 Alpha virt. eigenvalues --    2.85754   2.88770   2.91919   2.93905   2.95590
 Alpha virt. eigenvalues --    2.99719   3.01338   3.04596   3.05492   3.08408
 Alpha virt. eigenvalues --    3.08636   3.12619   3.18199   3.22093   3.24248
 Alpha virt. eigenvalues --    3.25460   3.29183   3.41755   3.42230   3.42769
 Alpha virt. eigenvalues --    3.43743   3.45174   3.48873   3.53359   3.70217
 Alpha virt. eigenvalues --    4.17139   4.21236   4.21839   4.23288   4.25513
 Alpha virt. eigenvalues --    4.28852   4.29640   4.30940   4.33960   4.37474
 Alpha virt. eigenvalues --    4.40036   4.42832   4.50356   4.57095   4.60198
 Alpha virt. eigenvalues --    4.61344   4.63911   4.78340   4.89480
          Condensed to atoms (all electrons):
               1          2          3          4          5          6
     1  C    6.373497  -1.101488   1.067031  -0.819550   0.003709   0.006028
     2  C   -1.101488   7.171757  -1.552753   1.294267  -0.310003  -0.146738
     3  C    1.067031  -1.552753  12.317326  -4.152692   0.199432  -0.512498
     4  C   -0.819550   1.294267  -4.152692  15.199229  -1.855283  -3.587124
     5  C    0.003709  -0.310003   0.199432  -1.855283  10.165645   1.840837
     6  C    0.006028  -0.146738  -0.512498  -3.587124   1.840837  11.244710
     7  C   -0.011834  -0.027121  -0.052431   1.324806  -1.215987  -1.455514
     8  C   -0.005919   0.012721  -0.328558   0.038203  -0.574558  -0.684986
     9  N    0.000018  -0.000101   0.005347   0.011905   0.039014  -0.007380
    10  C    0.013687  -0.022363   0.335565  -0.964495   0.147700  -0.790971
    11  N   -0.000141   0.000683  -0.002266   0.097491   0.085595  -0.060564
    12  C    0.029957  -0.072302   1.004267  -0.385871  -1.057724  -0.292004
    13  C   -0.007874   0.026698   0.355239  -0.852625  -1.018764  -0.967077
    14  C    0.114061   0.028351  -1.270556  -2.103870   1.489586  -0.005916
    15  C   -0.272093   0.624057  -1.424847   3.680081  -2.197675  -0.220029
    16  C    0.115948  -0.347913   0.490639  -0.088796   0.287462  -0.166685
    17  N   -0.038779   0.054911  -0.080497   0.085943   0.004440   0.010179
    18  C   -0.042304   0.228713  -0.404395  -0.842741  -0.212034  -0.022885
    19  N    0.000859  -0.003398   0.012184   0.066302   0.004318   0.006891
    20  H    0.454957  -0.107093   0.010767  -0.004675  -0.002607  -0.000379
    21  H    0.435510  -0.110516   0.047203  -0.021058   0.010950   0.001888
    22  H    0.488553  -0.151839   0.043988  -0.019169  -0.008822  -0.000643
    23  H   -0.003342   0.316342   0.011515  -0.043461   0.010172  -0.001321
    24  H   -0.047059   0.020290   0.202320   0.078455   0.031905  -0.008556
    25  H    0.002057   0.002020   0.017021  -0.071752   0.360126  -0.038324
    26  H   -0.000007   0.000079  -0.002509  -0.010944   0.015852  -0.022485
    27  H    0.000026   0.000371   0.006208  -0.012415  -0.000260   0.006381
               7          8          9         10         11         12
     1  C   -0.011834  -0.005919   0.000018   0.013687  -0.000141   0.029957
     2  C   -0.027121   0.012721  -0.000101  -0.022363   0.000683  -0.072302
     3  C   -0.052431  -0.328558   0.005347   0.335565  -0.002266   1.004267
     4  C    1.324806   0.038203   0.011905  -0.964495   0.097491  -0.385871
     5  C   -1.215987  -0.574558   0.039014   0.147700   0.085595  -1.057724
     6  C   -1.455514  -0.684986  -0.007380  -0.790971  -0.060564  -0.292004
     7  C    9.396804  -0.953121   0.289741  -1.735354   0.270966   0.183958
     8  C   -0.953121  11.809296  -0.370023  -2.193297   0.058134  -0.526415
     9  N    0.289741  -0.370023   7.295143   0.074545  -0.002597   0.063136
    10  C   -1.735354  -2.193297   0.074545  12.107976  -0.309147  -0.095063
    11  N    0.270966   0.058134  -0.002597  -0.309147   7.294630   0.013243
    12  C    0.183958  -0.526415   0.063136  -0.095063   0.013243  10.848547
    13  C    0.427157  -0.463991   0.070163   0.491751  -0.013127  -0.976723
    14  C   -1.567886   0.241971  -0.007207  -0.470793   0.024093  -0.454322
    15  C    0.562924   0.163998  -0.000962  -0.182163   0.002524  -1.816229
    16  C   -0.036441  -0.009172   0.000162   0.004268  -0.000184   0.246264
    17  N    0.000603   0.000145  -0.000001  -0.000299   0.000004  -0.006418
    18  C   -0.050896   0.017773  -0.000228  -0.022448   0.000213  -0.508155
    19  N    0.003146  -0.000376   0.000006   0.000362  -0.000001   0.031728
    20  H   -0.000062  -0.000002   0.000000   0.000002  -0.000000   0.000301
    21  H    0.000109  -0.000001  -0.000000   0.000036   0.000000  -0.000275
    22  H   -0.000056  -0.000007   0.000000   0.000012   0.000000   0.000191
    23  H    0.001104   0.000078  -0.000000  -0.000328   0.000002   0.004423
    24  H    0.010197   0.001155  -0.000000  -0.003750  -0.000030  -0.001903
    25  H   -0.016559   0.004538  -0.000052   0.032019   0.002557  -0.007582
    26  H   -0.016240  -0.000769   0.002186   0.008579  -0.000062   0.261416
    27  H   -0.002196  -0.000926   0.000047   0.000379   0.000001   0.074525
              13         14         15         16         17         18
     1  C   -0.007874   0.114061  -0.272093   0.115948  -0.038779  -0.042304
     2  C    0.026698   0.028351   0.624057  -0.347913   0.054911   0.228713
     3  C    0.355239  -1.270556  -1.424847   0.490639  -0.080497  -0.404395
     4  C   -0.852625  -2.103870   3.680081  -0.088796   0.085943  -0.842741
     5  C   -1.018764   1.489586  -2.197675   0.287462   0.004440  -0.212034
     6  C   -0.967077  -0.005916  -0.220029  -0.166685   0.010179  -0.022885
     7  C    0.427157  -1.567886   0.562924  -0.036441   0.000603  -0.050896
     8  C   -0.463991   0.241971   0.163998  -0.009172   0.000145   0.017773
     9  N    0.070163  -0.007207  -0.000962   0.000162  -0.000001  -0.000228
    10  C    0.491751  -0.470793  -0.182163   0.004268  -0.000299  -0.022448
    11  N   -0.013127   0.024093   0.002524  -0.000184   0.000004   0.000213
    12  C   -0.976723  -0.454322  -1.816229   0.246264  -0.006418  -0.508155
    13  C   10.408751  -2.490669   1.883554  -1.144143   0.059375   0.235305
    14  C   -2.490669  26.364677 -12.797561   0.447412   0.030115  -1.976205
    15  C    1.883554 -12.797561  20.072441  -3.802366   0.349358   0.205704
    16  C   -1.144143   0.447412  -3.802366  11.583266  -0.226100  -1.040028
    17  N    0.059375   0.030115   0.349358  -0.226100   7.270644  -0.057100
    18  C    0.235305  -1.976205   0.205704  -1.040028  -0.057100  10.878567
    19  N    0.034874  -0.001890   0.209744   0.009840   0.000512  -0.180366
    20  H   -0.000756   0.012156  -0.032572   0.029374  -0.002085  -0.003406
    21  H    0.000403  -0.010722   0.006646  -0.005319   0.000105   0.000224
    22  H    0.000132   0.001828   0.001039  -0.002282   0.000809  -0.000214
    23  H   -0.010286   0.035665  -0.034943   0.016440  -0.000457  -0.015117
    24  H   -0.006645  -0.013429   0.007239   0.026902  -0.001391   0.000947
    25  H   -0.005439   0.023611   0.000289  -0.001548   0.000008   0.000971
    26  H    0.019814   0.044186   0.014942   0.000286   0.000003   0.000392
    27  H    0.295834   0.028413  -0.131538   0.008247  -0.000161   0.043730
              19         20         21         22         23         24
     1  C    0.000859   0.454957   0.435510   0.488553  -0.003342  -0.047059
     2  C   -0.003398  -0.107093  -0.110516  -0.151839   0.316342   0.020290
     3  C    0.012184   0.010767   0.047203   0.043988   0.011515   0.202320
     4  C    0.066302  -0.004675  -0.021058  -0.019169  -0.043461   0.078455
     5  C    0.004318  -0.002607   0.010950  -0.008822   0.010172   0.031905
     6  C    0.006891  -0.000379   0.001888  -0.000643  -0.001321  -0.008556
     7  C    0.003146  -0.000062   0.000109  -0.000056   0.001104   0.010197
     8  C   -0.000376  -0.000002  -0.000001  -0.000007   0.000078   0.001155
     9  N    0.000006   0.000000  -0.000000   0.000000  -0.000000  -0.000000
    10  C    0.000362   0.000002   0.000036   0.000012  -0.000328  -0.003750
    11  N   -0.000001  -0.000000   0.000000   0.000000   0.000002  -0.000030
    12  C    0.031728   0.000301  -0.000275   0.000191   0.004423  -0.001903
    13  C    0.034874  -0.000756   0.000403   0.000132  -0.010286  -0.006645
    14  C   -0.001890   0.012156  -0.010722   0.001828   0.035665  -0.013429
    15  C    0.209744  -0.032572   0.006646   0.001039  -0.034943   0.007239
    16  C    0.009840   0.029374  -0.005319  -0.002282   0.016440   0.026902
    17  N    0.000512  -0.002085   0.000105   0.000809  -0.000457  -0.001391
    18  C   -0.180366  -0.003406   0.000224  -0.000214  -0.015117   0.000947
    19  N    7.257928   0.000004   0.000001   0.000000   0.000027  -0.000008
    20  H    0.000004   0.515467  -0.028661  -0.023850  -0.001689   0.000141
    21  H    0.000001  -0.028661   0.535524  -0.025842  -0.002593   0.000128
    22  H    0.000000  -0.023850  -0.025842   0.532053   0.003944   0.003426
    23  H    0.000027  -0.001689  -0.002593   0.003944   0.575334   0.005098
    24  H   -0.000008   0.000141   0.000128   0.003426   0.005098   0.555420
    25  H    0.000002   0.000000   0.000000   0.000002   0.000002   0.002656
    26  H   -0.000000   0.000000  -0.000000   0.000000  -0.000000  -0.000000
    27  H    0.000871   0.000000   0.000000  -0.000000   0.000003   0.000001
              25         26         27
     1  C    0.002057  -0.000007   0.000026
     2  C    0.002020   0.000079   0.000371
     3  C    0.017021  -0.002509   0.006208
     4  C   -0.071752  -0.010944  -0.012415
     5  C    0.360126   0.015852  -0.000260
     6  C   -0.038324  -0.022485   0.006381
     7  C   -0.016559  -0.016240  -0.002196
     8  C    0.004538  -0.000769  -0.000926
     9  N   -0.000052   0.002186   0.000047
    10  C    0.032019   0.008579   0.000379
    11  N    0.002557  -0.000062   0.000001
    12  C   -0.007582   0.261416   0.074525
    13  C   -0.005439   0.019814   0.295834
    14  C    0.023611   0.044186   0.028413
    15  C    0.000289   0.014942  -0.131538
    16  C   -0.001548   0.000286   0.008247
    17  N    0.000008   0.000003  -0.000161
    18  C    0.000971   0.000392   0.043730
    19  N    0.000002  -0.000000   0.000871
    20  H    0.000000   0.000000   0.000000
    21  H    0.000000  -0.000000   0.000000
    22  H    0.000002   0.000000  -0.000000
    23  H    0.000002  -0.000000   0.000003
    24  H    0.002656  -0.000000   0.000001
    25  H    0.529917  -0.000096   0.000013
    26  H   -0.000096   0.516469  -0.004592
    27  H    0.000013  -0.004592   0.515873
 Mulliken charges:
               1
     1  C   -0.755509
     2  C    0.172367
     3  C   -0.342049
     4  C   -0.040162
     5  C   -0.243026
     6  C    1.875165
     7  C    0.670183
     8  C   -0.235893
     9  N   -0.462862
    10  C   -0.426409
    11  N   -0.462020
    12  C   -0.560973
    13  C   -0.350933
    14  C    0.284900
    15  C    1.128439
    16  C   -0.395533
    17  N   -0.453868
    18  C   -0.234014
    19  N   -0.453561
    20  H    0.184668
    21  H    0.166261
    22  H    0.156745
    23  H    0.133387
    24  H    0.136491
    25  H    0.163544
    26  H    0.173500
    27  H    0.171163
 Sum of Mulliken charges =  -0.00000
 Mulliken charges with hydrogens summed into heavy atoms:
               1
     1  C   -0.247835
     2  C    0.305753
     3  C   -0.205557
     4  C   -0.040162
     5  C   -0.079482
     6  C    1.875165
     7  C    0.670183
     8  C   -0.235893
     9  N   -0.462862
    10  C   -0.426409
    11  N   -0.462020
    12  C   -0.387473
    13  C   -0.179770
    14  C    0.284900
    15  C    1.128439
    16  C   -0.395533
    17  N   -0.453868
    18  C   -0.234014
    19  N   -0.453561
 Electronic spatial extent (au):  <R**2>=           5776.3435
 Charge=             -0.0000 electrons
 Dipole moment (field-independent basis, Debye):
    X=              2.1475    Y=              2.3048    Z=             -2.0707  Tot=              3.7698
 Quadrupole moment (field-independent basis, Debye-Ang):
   XX=           -152.2058   YY=           -123.0325   ZZ=           -111.0907
   XY=             14.4926   XZ=             -6.7318   YZ=             -3.7549
 Traceless Quadrupole moment (field-independent basis, Debye-Ang):
   XX=            -23.4295   YY=              5.7439   ZZ=             17.6857
   XY=             14.4926   XZ=             -6.7318   YZ=             -3.7549
 Octapole moment (field-independent basis, Debye-Ang**2):
  XXX=            105.0954  YYY=             61.6159  ZZZ=             -5.5655  XYY=             29.1072
  XXY=             45.6283  XXZ=            -39.2291  XZZ=             -0.8751  YZZ=              0.1600
  YYZ=             -6.9143  XYZ=              1.7850
 Hexadecapole moment (field-independent basis, Debye-Ang**3):
 XXXX=          -6876.6346 YYYY=          -2566.0337 ZZZZ=           -311.1243 XXXY=             31.3473
 XXXZ=           -166.6822 YYYX=            349.6342 YYYZ=            -27.7476 ZZZX=            -23.7189
 ZZZY=            -11.8775 XXYY=          -1660.7076 XXZZ=          -1032.0381 YYZZ=           -434.5326
 XXYZ=           -106.9229 YYXZ=             23.2961 ZZXY=             14.9501
 N-N= 1.152867211702D+03 E-N=-4.146577759731D+03  KE= 7.877006767448D+02
 Unable to Open any file for archive entry.
 1\1\GINC-N2\SP\RB3LYP TD-FC\6-31+G(d,p)\C15H8N4\HPCMGAC13\07-Aug-2025\
 0\\# td=(50-50,nstates=3) b3lyp/6-31+g(d,p) geom=connectivity\\Title C
 ard Required\\0,1\C,0,-3.294855,-3.18899,-0.819218\C,0,-2.424317,-1.97
 431,-0.779788\C,0,-1.340071,-1.835835,0.002818\C,0,-0.437374,-0.67648,
 0.01766\C,0,0.910697,-0.910369,0.119033\C,0,1.901555,0.117055,-0.04232
 6\C,0,3.26165,-0.158799,0.077603\C,0,4.254703,0.84329,-0.135434\N,0,5.
 059059,1.667856,-0.311195\C,0,3.735346,-1.460358,0.42058\N,0,4.10868,-
 2.528284,0.699527\C,0,1.438742,1.443839,-0.388547\C,0,0.113856,1.71849
 6,-0.433163\C,0,-0.889291,0.718647,-0.102434\C,0,-2.174886,1.163623,0.
 189693\C,0,-3.235735,0.398111,0.768739\N,0,-4.155185,-0.107096,1.27514
 8\C,0,-2.52184,2.544482,0.023383\N,0,-2.818878,3.661276,-0.12144\H,0,-
 4.31003,-2.932075,-0.489809\H,0,-3.3819,-3.576236,-1.8416\H,0,-2.91464
 4,-3.985178,-0.17331\H,0,-2.715602,-1.157592,-1.439524\H,0,-1.022786,-
 2.68115,0.611908\H,0,1.251351,-1.931071,0.262891\H,0,2.165587,2.224446
 ,-0.586237\H,0,-0.216795,2.728195,-0.650194\\Version=ES64L-G16RevC.02\
 State=1-A\HF=-795.3263793\RMSD=6.775e-09\PG=C01 [X(C15H8N4)]\\@
 The archive entry for this job was punched.


 UNDER MOST GREENE GRASSE LY MOST GREATE SNAKES.
 -- PROVERBS AND REASONS OF THE YEAR 1585
           AS REPRINTED IN PAISLEY MAGAZINE 1828.
 Job cpu time:       0 days  0 hours 50 minutes  4.4 seconds.
 Elapsed time:       0 days  0 hours  6 minutes 21.7 seconds.
 File lengths (MBytes):  RWF=    894 Int=      0 D2E=      0 Chk=     42 Scr=      2
 Normal termination of Gaussian 16 at Thu Aug  7 22:33:19 2025.
