 Entering Gaussian System, Link 0=g16
 Input=M1646e.gjf
 Output=M1646e.log
 Initial command:
 /hpc/softwares/Gaussian/g16/l1.exe "/hpc/home/hpcmgac13/pbs.14221.admin1.x8z/Gau-7057.inp" -scrdir="/hpc/home/hpcmgac13/pbs.14221.admin1.x8z/"
 Default linda workers: n2
 Default is to use   8 SMP processors on each worker.
 Entering Link 1 = /hpc/softwares/Gaussian/g16/l1.exe PID=      7058.
  
 Copyright (c) 1988-2021, Gaussian, Inc.  All Rights Reserved.
  
 This is part of the Gaussian(R) 16 program.  It is based on
 the Gaussian(R) 09 system (copyright 2009, Gaussian, Inc.),
 the Gaussian(R) 03 system (copyright 2003, Gaussian, Inc.),
 the Gaussian(R) 98 system (copyright 1998, Gaussian, Inc.),
 the Gaussian(R) 94 system (copyright 1995, Gaussian, Inc.),
 the Gaussian 92(TM) system (copyright 1992, Gaussian, Inc.),
 the Gaussian 90(TM) system (copyright 1990, Gaussian, Inc.),
 the Gaussian 88(TM) system (copyright 1988, Gaussian, Inc.),
 the Gaussian 86(TM) system (copyright 1986, Carnegie Mellon
 University), and the Gaussian 82(TM) system (copyright 1983,
 Carnegie Mellon University). Gaussian is a federally registered
 trademark of Gaussian, Inc.
  
 This software contains proprietary and confidential information,
 including trade secrets, belonging to Gaussian, Inc.
  
 This software is provided under written license and may be
 used, copied, transmitted, or stored only in accord with that
 written license.
  
 The following legend is applicable only to US Government
 contracts under FAR:
  
                    RESTRICTED RIGHTS LEGEND
  
 Use, reproduction and disclosure by the US Government is
 subject to restrictions as set forth in subparagraphs (a)
 and (c) of the Commercial Computer Software - Restricted
 Rights clause in FAR 52.227-19.
  
 Gaussian, Inc.
 340 Quinnipiac St., Bldg. 40, Wallingford CT 06492
  
  
 ---------------------------------------------------------------
 Warning -- This program may not be used in any manner that
 competes with the business of Gaussian, Inc. or will provide
 assistance to any competitor of Gaussian, Inc.  The licensee
 of this program is prohibited from giving any competitor of
 Gaussian, Inc. access to this program.  By using this program,
 the user acknowledges that Gaussian, Inc. is engaged in the
 business of creating and licensing software in the field of
 computational chemistry and represents and warrants to the
 licensee that it is not a competitor of Gaussian, Inc. and that
 it will not use this program in any manner prohibited above.
 ---------------------------------------------------------------
  

 Cite this work as:
 Gaussian 16, Revision C.02,
 M. J. Frisch, G. W. Trucks, H. B. Schlegel, G. E. Scuseria, 
 M. A. Robb, J. R. Cheeseman, G. Scalmani, V. Barone, 
 G. A. Petersson, H. Nakatsuji, X. Li, M. Caricato, A. V. Marenich, 
 J. Bloino, B. G. Janesko, R. Gomperts, B. Mennucci, H. P. Hratchian, 
 J. V. Ortiz, A. F. Izmaylov, J. L. Sonnenberg, D. Williams-Young, 
 F. Ding, F. Lipparini, F. Egidi, J. Goings, B. Peng, A. Petrone, 
 T. Henderson, D. Ranasinghe, V. G. Zakrzewski, J. Gao, N. Rega, 
 G. Zheng, W. Liang, M. Hada, M. Ehara, K. Toyota, R. Fukuda, 
 J. Hasegawa, M. Ishida, T. Nakajima, Y. Honda, O. Kitao, H. Nakai, 
 T. Vreven, K. Throssell, J. A. Montgomery, Jr., J. E. Peralta, 
 F. Ogliaro, M. J. Bearpark, J. J. Heyd, E. N. Brothers, K. N. Kudin, 
 V. N. Staroverov, T. A. Keith, R. Kobayashi, J. Normand, 
 K. Raghavachari, A. P. Rendell, J. C. Burant, S. S. Iyengar, 
 J. Tomasi, M. Cossi, J. M. Millam, M. Klene, C. Adamo, R. Cammi, 
 J. W. Ochterski, R. L. Martin, K. Morokuma, O. Farkas, 
 J. B. Foresman, and D. J. Fox, Gaussian, Inc., Wallingford CT, 2019.
 
 ******************************************
 Gaussian 16:  ES64L-G16RevC.02  7-Dec-2021
                21-Sep-2025 
 ******************************************
 SetLPE:    new flags="-opt 'Tsnet.Node.lindarsharg: ssh'  -nodelist 'n2.head.cm.mguif.local' -env GAUSS_MDEF=2147483648 -env GAUSS_EXEDIR="/hpc/softwares/Gaussian/g16/bsd:/hpc/softwares/Gaussian/g16""
 Will use up to    1 processors via Linda.
 ----------------------------------------------------------
 # td=(50-50,nstates=3) b3lyp/6-31+g(d,p) geom=connectivity
 ----------------------------------------------------------
 1/38=1,57=2,172=1/1;
 2/12=2,17=6,18=5,40=1/2;
 3/5=1,6=6,7=111,11=9,25=1,30=1,74=-5/1,2,3,8;
 4//1;
 5/5=2,38=5/2;
 8/6=1,10=2,108=3/1;
 9/41=3,42=1,48=2,70=2/14;
 6/7=2,8=2,9=2,10=2/1;
 99/5=1,9=1/99;
 -------------------
 Title Card Required
 -------------------
 Symbolic Z-matrix:
 Charge =  0 Multiplicity = 1
 C                    -2.68386  -1.58805   2.25859 
 C                    -1.74331  -0.88078   1.25955 
 C                    -2.08071   0.61086   1.18696 
 C                    -1.3872    1.51926   2.00032 
 C                    -1.71156   2.87893   2.00136 
 C                    -2.74021   3.35297   1.18342 
 C                    -3.43879   2.45718   0.36931 
 C                    -3.11096   1.09953   0.37142 
 C                    -1.69146  -1.54876  -0.11712 
 C                    -2.73682  -2.36376  -0.57511 
 C                    -2.71052  -2.961    -1.83699 
 C                    -1.62211  -2.75803  -2.68388 
 C                    -0.56798  -1.95364  -2.25435 
 C                    -0.59171  -1.3557   -0.98633 
 C                     0.57013  -0.48868  -0.62033 
 C                     1.64373  -0.89728   0.13006 
 N                     1.66437  -2.29744   0.62258 
 O                     2.1372   -3.13883  -0.13131 
 O                     1.21371  -2.50053   1.74598 
 C                     2.77763  -0.06881   0.47108 
 Cl                    4.05719  -0.73627   1.4459 
 C                     2.8593    1.22533   0.03196 
 C                     1.78334   1.67322  -0.76765 
 C                     0.66319   0.86238  -1.10668 
 N                    -0.18815   1.51075  -1.88684 
 O                     0.34598   2.75433  -2.07062 
 N                     1.6013    2.86415  -1.35874 
 O                     2.23491   3.91213  -1.40476 
 H                    -2.44451  -2.65339   2.33991 
 H                    -2.56882  -1.13507   3.24742 
 H                    -3.73621  -1.48383   1.97613 
 H                    -0.73895  -0.95622   1.68777 
 H                    -0.588     1.15737   2.64388 
 H                    -1.16046   3.56517   2.63848 
 H                    -2.99172   4.40944   1.17682 
 H                    -4.23523   2.81662  -0.27611 
 H                    -3.6522    0.41882  -0.27957 
 H                    -3.59144  -2.5427    0.06745 
 H                    -3.54065  -3.58621  -2.15273 
 H                    -1.58802  -3.22056  -3.66526 
 H                     0.28868  -1.79123  -2.90165 
 H                     3.69755   1.86825   0.27038 
 
                          Input orientation:                          
 ---------------------------------------------------------------------
 Center     Atomic      Atomic             Coordinates (Angstroms)
 Number     Number       Type             X           Y           Z
 ---------------------------------------------------------------------
      1          6           0       -2.683860   -1.588052    2.258592
      2          6           0       -1.743314   -0.880780    1.259548
      3          6           0       -2.080706    0.610860    1.186959
      4          6           0       -1.387200    1.519259    2.000320
      5          6           0       -1.711562    2.878929    2.001360
      6          6           0       -2.740210    3.352974    1.183424
      7          6           0       -3.438790    2.457181    0.369308
      8          6           0       -3.110962    1.099532    0.371420
      9          6           0       -1.691456   -1.548759   -0.117123
     10          6           0       -2.736824   -2.363762   -0.575114
     11          6           0       -2.710517   -2.961001   -1.836990
     12          6           0       -1.622108   -2.758026   -2.683879
     13          6           0       -0.567977   -1.953644   -2.254349
     14          6           0       -0.591708   -1.355700   -0.986334
     15          6           0        0.570125   -0.488677   -0.620325
     16          6           0        1.643725   -0.897283    0.130057
     17          7           0        1.664367   -2.297444    0.622582
     18          8           0        2.137201   -3.138827   -0.131313
     19          8           0        1.213714   -2.500532    1.745978
     20          6           0        2.777629   -0.068806    0.471075
     21         17           0        4.057194   -0.736267    1.445900
     22          6           0        2.859295    1.225328    0.031960
     23          6           0        1.783337    1.673215   -0.767646
     24          6           0        0.663189    0.862381   -1.106679
     25          7           0       -0.188153    1.510753   -1.886842
     26          8           0        0.345977    2.754331   -2.070622
     27          7           0        1.601301    2.864153   -1.358740
     28          8           0        2.234911    3.912132   -1.404758
     29          1           0       -2.444509   -2.653390    2.339908
     30          1           0       -2.568823   -1.135069    3.247415
     31          1           0       -3.736212   -1.483834    1.976130
     32          1           0       -0.738950   -0.956219    1.687772
     33          1           0       -0.587995    1.157371    2.643883
     34          1           0       -1.160461    3.565166    2.638476
     35          1           0       -2.991722    4.409442    1.176819
     36          1           0       -4.235228    2.816619   -0.276112
     37          1           0       -3.652201    0.418823   -0.279571
     38          1           0       -3.591437   -2.542697    0.067450
     39          1           0       -3.540646   -3.586207   -2.152731
     40          1           0       -1.588022   -3.220559   -3.665259
     41          1           0        0.288682   -1.791228   -2.901652
     42          1           0        3.697551    1.868245    0.270383
 ---------------------------------------------------------------------
                    Distance matrix (angstroms):
                    1          2          3          4          5
     1  C    0.000000
     2  C    1.543680   0.000000
     3  C    2.519406   1.531043   0.000000
     4  C    3.376894   2.536878   1.402746   0.000000
     5  C    4.578805   3.832324   2.437961   1.397825   0.000000
     6  C    5.056965   4.350203   2.820310   2.420840   1.397088
     7  C    4.528049   3.848266   2.433484   2.783688   2.413458
     8  C    3.311637   2.565320   1.401903   2.408494   2.789494
     9  C    2.574962   1.531048   2.552665   3.740170   4.908441
    10  C    2.938439   2.559743   3.519058   4.851000   5.930868
    11  C    4.319663   3.853745   4.722194   6.045564   7.059435
    12  C    5.188851   4.369137   5.151999   6.347603   7.330398
    13  C    4.997725   3.857451   4.550564   5.552872   6.540077
    14  C    3.867898   2.568216   3.287503   4.221173   5.302119
    15  C    4.481652   3.006604   3.391484   3.838060   4.839432
    16  C    4.871942   3.570442   4.154867   4.303959   5.386975
    17  N    4.699664   3.744990   4.775178   5.077149   6.331885
    18  O    5.599927   4.700177   5.795579   6.217960   7.454841
    19  O    4.035651   3.406498   4.565793   4.794597   6.128708
    20  C    5.944004   4.660463   4.957606   4.712360   5.584241
    21  Cl   6.843085   5.805300   6.289326   5.919139   6.830573
    22  C    6.602997   5.208327   5.110304   4.689729   5.244584
    23  C    6.304746   4.803090   4.458689   4.211608   4.619032
    24  C    5.341574   3.798539   3.585108   3.780083   4.400661
    25  N    5.745935   4.247084   3.720190   4.067900   4.394405
    26  O    6.839466   5.354363   4.592939   4.593678   4.563993
    27  N    7.160295   5.662721   5.011496   4.692884   4.718639
    28  O    8.238111   6.774718   6.019962   5.517253   5.314489
    29  H    1.094918   2.191118   3.480944   4.317896   5.590919
    30  H    1.093708   2.167428   2.744450   3.161793   4.289491
    31  H    1.094573   2.202001   2.784104   3.812743   4.809734
    32  H    2.123140   1.094447   2.122937   2.577965   3.968964
    33  H    3.475406   2.721251   2.156267   1.088056   2.153834
    34  H    5.387088   4.691225   3.417847   2.155084   1.086531
    35  H    6.102044   5.436158   3.906313   3.406729   2.158969
    36  H    5.313435   4.715787   3.412904   3.869955   3.399949
    37  H    3.377500   2.775195   2.158051   3.396924   3.875674
    38  H    2.556589   2.756560   3.671584   5.009405   6.055408
    39  H    4.917975   4.710986   5.558806   6.924662   7.899367
    40  H    6.241630   5.454577   6.202139   7.389519   8.326439
    41  H    5.958641   4.719482   5.301016   6.147946   7.060515
    42  H    7.524717   6.175646   5.984094   5.382301   5.768558
                    6          7          8          9         10
     6  C    0.000000
     7  C    1.397585   0.000000
     8  C    2.423800   1.396670   0.000000
     9  C    5.178638   4.397425   3.044194   0.000000
    10  C    5.981098   4.962477   3.609752   1.402419   0.000000
    11  C    6.999290   5.895323   4.639543   2.447622   1.396323
    12  C    7.317821   6.310362   5.141234   2.838199   2.417628
    13  C    6.685587   5.880520   4.762701   2.448239   2.773432
    14  C    5.612087   4.947899   3.770716   1.415007   2.405580
    15  C    5.382389   5.072362   4.129936   2.547888   3.801828
    16  C    6.196221   6.094393   5.162613   3.407191   4.673011
    17  N    7.186241   6.979457   5.865688   3.516993   4.561727
    18  O    8.225640   7.915656   6.764587   4.145737   4.955180
    19  O    7.086149   6.936853   5.792469   3.580088   4.583986
    20  C    6.531659   6.710800   6.004203   4.744361   6.063871
    21  Cl   7.936970   8.218694   7.477107   6.012500   7.272683
    22  C    6.099771   6.426285   5.981223   5.331709   6.675826
    23  C    5.204877   5.401655   5.057741   4.783146   6.063506
    24  C    4.799036   4.641999   4.060201   3.512431   4.717059
    25  N    4.396966   4.068486   3.716405   3.840890   4.819566
    26  O    4.524571   4.512872   4.544486   5.146249   6.159146
    27  N    5.054727   5.343622   5.320974   5.644258   6.838457
    28  O    5.635883   6.120055   6.296339   6.848043   8.049429
    29  H    6.123831   5.566848   4.289933   2.797195   2.943924
    30  H    4.942870   4.684507   3.682214   3.501575   4.018661
    31  H    5.001511   4.266373   3.104805   2.926935   2.877828
    32  H    4.777923   4.547393   3.403724   2.125092   3.330665
    33  H    3.403769   3.871722   3.395997   4.020438   5.232379
    34  H    2.158196   3.401108   3.875996   5.833310   6.925624
    35  H    1.086014   2.159460   3.408576   6.234191   7.000752
    36  H    2.157082   1.086313   2.152129   5.054956   5.401015
    37  H    3.403134   2.149765   1.086321   2.782497   2.944154
    38  H    6.060439   5.011307   3.686338   2.152187   1.084099
    39  H    7.740986   6.549320   5.339674   3.422630   2.151599
    40  H    8.249158   7.206928   6.105515   3.923631   3.406295
    41  H    7.233592   6.530100   5.534173   3.425396   3.859308
    42  H    6.669545   7.161284   6.852516   6.392767   7.747640
                   11         12         13         14         15
    11  C    0.000000
    12  C    1.393935   0.000000
    13  C    2.404045   1.393814   0.000000
    14  C    2.791050   2.431029   1.402128   0.000000
    15  C    4.284305   3.770157   2.472132   1.495175   0.000000
    16  C    5.204578   4.695345   3.419491   2.540401   1.372097
    17  N    5.062550   4.684628   3.657635   2.926665   2.452309
    18  O    5.142113   4.559935   3.637297   3.370096   3.117396
    19  O    5.333787   5.266101   4.413176   3.469253   3.171933
    20  C    6.619041   6.045107   4.708888   3.890060   2.498103
    21  Cl   7.844024   7.307329   6.046987   5.283157   4.060817
    22  C    7.213954   6.582238   5.203774   4.428098   2.933187
    23  C    6.543254   5.908037   4.570894   3.855255   2.483418
    24  C    5.151067   4.562619   3.280688   2.551300   1.438944
    25  N    5.134334   4.573179   3.504479   3.031555   2.485311
    26  O    6.485504   5.885195   4.799385   4.352848   3.559593
    27  N    7.263120   6.614776   5.359016   4.770234   3.584697
    28  O    8.478446   7.810490   6.556319   5.992905   4.770112
    29  H    4.196649   5.091731   5.011807   4.022531   4.747313
    30  H    5.404191   6.221777   5.911248   4.677851   5.022970
    31  H    4.215917   5.273394   5.306165   4.322096   5.126056
    32  H    4.508899   4.810178   4.069939   2.707787   2.694362
    33  H    6.445488   6.692143   5.802714   4.415203   3.834810
    34  H    8.063704   8.277882   7.399192   6.138212   5.481638
    35  H    7.967782   8.255509   7.624718   6.608794   6.317282
    36  H    6.175919   6.610779   6.333842   5.584613   5.842506
    37  H    3.838689   4.471504   4.363575   3.607640   4.332171
    38  H    2.139600   3.390344   3.857336   3.393788   4.691549
    39  H    1.086135   2.156105   3.392985   3.877097   5.370419
    40  H    2.161003   1.085452   2.153191   3.412767   4.625192
    41  H    3.390733   2.152497   1.085930   2.152490   2.642026
    42  H    8.296142   7.643875   6.259060   5.510980   4.016122
                   16         17         18         19         20
    16  C    0.000000
    17  N    1.484405   0.000000
    18  O    2.310055   1.224686   0.000000
    19  O    2.316575   1.227335   2.187343   0.000000
    20  C    1.445132   2.495823   3.193438   3.159826   0.000000
    21  Cl   2.753580   2.973339   3.456337   3.359770   1.741572
    22  C    2.448001   3.766512   4.426503   4.419030   1.369041
    23  C    2.726320   4.208684   4.866815   4.905399   2.357474
    24  C    2.363765   3.738609   4.374210   4.444087   2.797726
    25  N    3.636248   4.922540   5.487053   5.590440   4.104953
    26  O    4.456616   5.874686   6.457454   6.552327   4.510350
    27  N    4.045580   5.529168   6.150572   6.210422   3.651605
    28  O    5.082876   6.557016   7.165698   7.217495   4.434091
    29  H    4.967999   4.467524   5.228255   3.709274   6.119096
    30  H    5.245953   5.114759   6.130050   4.292597   6.117968
    31  H    5.718020   5.626749   6.455796   5.058499   6.833566
    32  H    2.847295   2.951177   4.042906   2.490218   3.825465
    33  H    3.939733   4.592879   5.795319   4.175242   4.189514
    34  H    5.836872   6.812758   7.968050   6.574645   5.780306
    35  H    7.123511   8.183438   9.219188   8.109092   7.337451
    36  H    6.965639   7.859167   8.723311   7.877304   7.619982
    37  H    5.472364   6.038036   6.796766   6.025165   6.491838
    38  H    5.488008   5.290727   5.763000   5.090060   6.844564
    39  H    6.270497   6.037833   6.043528   6.243602   7.692663
    40  H    5.499657   5.460381   5.135440   6.135931   6.789824
    41  H    3.438973   3.816935   3.592746   4.791582   4.531764
    42  H    3.447613   4.648747   5.259926   5.237656   2.153764
                   21         22         23         24         25
    21  Cl   0.000000
    22  C    2.698526   0.000000
    23  C    3.984447   1.413385   0.000000
    24  C    4.537687   2.500222   1.423772   0.000000
    25  N    5.846301   3.612507   2.272832   1.324320   0.000000
    26  O    6.190584   3.616002   2.220937   2.146924   1.365854
    27  N    5.182706   2.490450   1.341962   2.225012   2.304936
    28  O    5.749311   3.110133   2.371198   3.443856   3.445325
    29  H    6.837160   6.964296   6.800815   5.822147   6.347964
    30  H    6.878125   6.736103   6.553508   5.778741   6.247284
    31  H    7.847113   7.390539   6.925365   5.862010   6.039770
    32  H    4.807273   4.521972   4.393738   3.616940   4.378035
    33  H    5.157403   4.325571   4.186626   3.964744   4.562041
    34  H    6.866476   5.331717   4.883348   4.965575   5.064040
    35  H    8.731434   6.758971   5.836872   5.581611   5.064427
    36  H    9.184366   7.277319   6.145901   5.338855   4.547368
    37  H    7.984125   6.568644   5.599713   4.416270   3.971808
    38  H    7.979027   7.470690   6.881824   5.574493   5.641990
    39  H    8.876907   8.299578   7.610833   6.209379   6.106464
    40  H    8.010251   7.294790   6.611448   5.318334   5.244780
    41  H    5.849430   4.930897   4.334783   3.225496   3.487161
    42  H    2.880046   1.082987   2.186265   3.480720   4.458712
                   26         27         28         29         30
    26  O    0.000000
    27  N    1.447299   0.000000
    28  O    2.313428   1.225496   0.000000
    29  H    7.515520   7.777651   8.889633   0.000000
    30  H    7.204513   7.389207   8.378115   1.773224   0.000000
    31  H    7.141604   7.649536   8.729328   1.780082   1.760852
    32  H    5.391732   5.417864   6.489101   2.492910   2.410997
    33  H    5.064498   4.871048   5.652345   4.249817   3.089209
    34  H    5.010231   4.908817   5.291189   6.356757   4.944340
    35  H    4.942216   5.469263   5.850602   7.178845   5.933617
    36  H    4.920527   5.936279   6.658580   6.322281   5.550494
    37  H    4.964664   5.894364   6.937387   4.214105   4.003488
    38  H    6.937801   7.631027   8.819215   2.547894   3.624822
    39  H    7.437406   8.287170   9.494294   4.717570   6.009500
    40  H    6.479393   7.246760   8.402378   6.092395   7.286721
    41  H    4.621255   5.077019   6.209413   5.973911   6.812261
    42  H    4.183121   2.835514   3.020412   7.902722   7.559766
                   31         32         33         34         35
    31  H    0.000000
    32  H    3.056977   0.000000
    33  H    4.163307   2.324693   0.000000
    34  H    5.706627   4.639443   2.474919   0.000000
    35  H    5.993652   5.841778   4.301877   2.490534   0.000000
    36  H    4.880113   5.505916   4.958002   4.302248   2.488855
    37  H    2.952177   3.774680   4.298999   4.962181   4.299110
    38  H    2.187512   3.644041   5.417488   7.058740   7.065592
    39  H    4.637425   5.432845   7.363911   8.931018   8.678573
    40  H    6.281417   5.873934   7.744133   9.271782   9.145108
    41  H    6.331431   4.776618   6.341589   7.841173   8.114388
    42  H    8.331077   5.446938   4.950227   5.664599   7.212883
                   36         37         38         39         40
    36  H    0.000000
    37  H    2.467662   0.000000
    38  H    5.408768   2.982401   0.000000
    39  H    6.708228   4.422831   2.453711   0.000000
    40  H    7.412256   5.382269   4.290255   2.496834   0.000000
    41  H    6.970759   5.224002   4.943237   4.294949   2.479536
    42  H    8.007937   7.511466   8.522144   9.381579   8.326013
                   41         42
    41  H    0.000000
    42  H    5.922325   0.000000
 Stoichiometry    C20H14ClN3O4
 Framework group  C1[X(C20H14ClN3O4)]
 Deg. of freedom   120
 Full point group                 C1      NOp   1
 Largest Abelian subgroup         C1      NOp   1
 Largest concise Abelian subgroup C1      NOp   1
                         Standard orientation:                         
 ---------------------------------------------------------------------
 Center     Atomic      Atomic             Coordinates (Angstroms)
 Number     Number       Type             X           Y           Z
 ---------------------------------------------------------------------
      1          6           0        2.683860   -1.588053   -2.258592
      2          6           0        1.743314   -0.880781   -1.259548
      3          6           0        2.080706    0.610859   -1.186959
      4          6           0        1.387200    1.519259   -2.000320
      5          6           0        1.711563    2.878928   -2.001360
      6          6           0        2.740211    3.352973   -1.183424
      7          6           0        3.438791    2.457180   -0.369308
      8          6           0        3.110962    1.099531   -0.371420
      9          6           0        1.691456   -1.548759    0.117123
     10          6           0        2.736823   -2.363763    0.575114
     11          6           0        2.710516   -2.961002    1.836990
     12          6           0        1.622107   -2.758026    2.683879
     13          6           0        0.567976   -1.953644    2.254349
     14          6           0        0.591708   -1.355700    0.986334
     15          6           0       -0.570125   -0.488677    0.620325
     16          6           0       -1.643725   -0.897283   -0.130057
     17          7           0       -1.664368   -2.297444   -0.622582
     18          8           0       -2.137202   -3.138826    0.131313
     19          8           0       -1.213715   -2.500532   -1.745978
     20          6           0       -2.777629   -0.068805   -0.471075
     21         17           0       -4.057194   -0.736266   -1.445900
     22          6           0       -2.859295    1.225329   -0.031960
     23          6           0       -1.783337    1.673215    0.767646
     24          6           0       -0.663189    0.862381    1.106679
     25          7           0        0.188153    1.510753    1.886842
     26          8           0       -0.345976    2.754331    2.070622
     27          7           0       -1.601300    2.864153    1.358740
     28          8           0       -2.234910    3.912133    1.404758
     29          1           0        2.444508   -2.653391   -2.339908
     30          1           0        2.568823   -1.135070   -3.247415
     31          1           0        3.736212   -1.483835   -1.976130
     32          1           0        0.738950   -0.956219   -1.687772
     33          1           0        0.587995    1.157371   -2.643883
     34          1           0        1.160462    3.565166   -2.638476
     35          1           0        2.991723    4.409441   -1.176819
     36          1           0        4.235229    2.816618    0.276112
     37          1           0        3.652201    0.418822    0.279571
     38          1           0        3.591436   -2.542698   -0.067450
     39          1           0        3.540645   -3.586208    2.152731
     40          1           0        1.588021   -3.220559    3.665259
     41          1           0       -0.288683   -1.791228    2.901652
     42          1           0       -3.697551    1.868246   -0.270383
 ---------------------------------------------------------------------
 Rotational constants (GHZ):           0.1949071           0.1768262           0.1321844
 Standard basis: 6-31+G(d,p) (6D, 7F)
 There are   606 symmetry adapted cartesian basis functions of A   symmetry.
 There are   606 symmetry adapted basis functions of A   symmetry.
   606 basis functions,  1018 primitive gaussians,   606 cartesian basis functions
   102 alpha electrons      102 beta electrons
       nuclear repulsion energy      2805.8588572969 Hartrees.
 NAtoms=   42 NActive=   42 NUniq=   42 SFac= 1.00D+00 NAtFMM=   60 NAOKFM=F Big=F
 Integral buffers will be    131072 words long.
 Regular integral format.
 Two-electron integral symmetry is turned on.
 One-electron integrals computed using PRISM.
 NBasis=   606 RedAO= T EigKep=  1.06D-06  NBF=   606
 NBsUse=   601 1.00D-06 EigRej=  7.43D-07 NBFU=   601
 ExpMin= 4.38D-02 ExpMax= 2.52D+04 ExpMxC= 3.78D+03 IAcc=3 IRadAn=         5 AccDes= 0.00D+00
 Harris functional with IExCor=  402 and IRadAn=       5 diagonalized for initial guess.
 HarFok:  IExCor=  402 AccDes= 0.00D+00 IRadAn=         5 IDoV= 1 UseB2=F ITyADJ=14
 ICtDFT=  3500011 ScaDFX=  1.000000  1.000000  1.000000  1.000000
 FoFCou: FMM=F IPFlag=           0 FMFlag=      100000 FMFlg1=           0
         NFxFlg=           0 DoJE=T BraDBF=F KetDBF=T FulRan=T
         wScrn=  0.000000 ICntrl=       500 IOpCl=  0 I1Cent=   200000004 NGrid=           0
         NMat0=    1 NMatS0=      1 NMatT0=    0 NMatD0=    1 NMtDS0=    0 NMtDT0=    0
 Petite list used in FoFCou.
 Requested convergence on RMS density matrix=1.00D-08 within 128 cycles.
 Requested convergence on MAX density matrix=1.00D-06.
 Requested convergence on             energy=1.00D-06.
 No special actions if energy rises.
 EnCoef did     2 forward-backward iterations
 EnCoef did     1 forward-backward iterations
 Restarting incremental Fock formation.
 SCF Done:  E(RB3LYP) =  -1695.70807855     A.U. after   22 cycles
            NFock= 22  Conv=0.60D-08     -V/T= 2.0076
 DoSCS=F DFT=T ScalE2(SS,OS)=  1.000000  1.000000
 ExpMin= 4.38D-02 ExpMax= 2.52D+04 ExpMxC= 3.78D+03 IAcc=3 IRadAn=         5 AccDes= 0.00D+00
 HarFok:  IExCor=  205 AccDes= 0.00D+00 IRadAn=         5 IDoV=-2 UseB2=F ITyADJ=14
 ICtDFT= 12500011 ScaDFX=  1.000000  1.000000  1.000000  1.000000
 GSVD:  LWork=       -1280 too small for GESVD, short by        5600 words or        5600 for optimal perf.
 Range of M.O.s used for correlation:    33   601
 NBasis=   606 NAE=   102 NBE=   102 NFC=    32 NFV=     0
 NROrb=    569 NOA=    70 NOB=    70 NVA=   499 NVB=   499

 **** Warning!!: The largest alpha MO coefficient is  0.15417975D+03

 Orbital symmetries:
       Occupied  (A) (A) (A) (A) (A) (A) (A) (A) (A) (A) (A) (A)
                 (A) (A) (A) (A) (A) (A) (A) (A) (A) (A) (A) (A)
                 (A) (A) (A) (A) (A) (A) (A) (A) (A) (A) (A) (A)
                 (A) (A) (A) (A) (A) (A) (A) (A) (A) (A) (A) (A)
                 (A) (A) (A) (A) (A) (A) (A) (A) (A) (A) (A) (A)
                 (A) (A) (A) (A) (A) (A) (A) (A) (A) (A) (A) (A)
                 (A) (A) (A) (A) (A) (A) (A) (A) (A) (A) (A) (A)
                 (A) (A) (A) (A) (A) (A) (A) (A) (A) (A) (A) (A)
                 (A) (A) (A) (A) (A) (A)
       Virtual   (A) (A) (A) (A) (A) (A) (A) (A) (A) (A) (A) (A)
                 (A) (A) (A) (A) (A) (A) (A) (A) (A) (A) (A) (A)
                 (A) (A) (A) (A) (A) (A) (A) (A) (A) (A) (A) (A)
                 (A) (A) (A) (A) (A) (A) (A) (A) (A) (A) (A) (A)
                 (A) (A) (A) (A) (A) (A) (A) (A) (A) (A) (A) (A)
                 (A) (A) (A) (A) (A) (A) (A) (A) (A) (A) (A) (A)
                 (A) (A) (A) (A) (A) (A) (A) (A) (A) (A) (A) (A)
                 (A) (A) (A) (A) (A) (A) (A) (A) (A) (A) (A) (A)
                 (A) (A) (A) (A) (A) (A) (A) (A) (A) (A) (A) (A)
                 (A) (A) (A) (A) (A) (A) (A) (A) (A) (A) (A) (A)
                 (A) (A) (A) (A) (A) (A) (A) (A) (A) (A) (A) (A)
                 (A) (A) (A) (A) (A) (A) (A) (A) (A) (A) (A) (A)
                 (A) (A) (A) (A) (A) (A) (A) (A) (A) (A) (A) (A)
                 (A) (A) (A) (A) (A) (A) (A) (A) (A) (A) (A) (A)
                 (A) (A) (A) (A) (A) (A) (A) (A) (A) (A) (A) (A)
                 (A) (A) (A) (A) (A) (A) (A) (A) (A) (A) (A) (A)
                 (A) (A) (A) (A) (A) (A) (A) (A) (A) (A) (A) (A)
                 (A) (A) (A) (A) (A) (A) (A) (A) (A) (A) (A) (A)
                 (A) (A) (A) (A) (A) (A) (A) (A) (A) (A) (A) (A)
                 (A) (A) (A) (A) (A) (A) (A) (A) (A) (A) (A) (A)
                 (A) (A) (A) (A) (A) (A) (A) (A) (A) (A) (A) (A)
                 (A) (A) (A) (A) (A) (A) (A) (A) (A) (A) (A) (A)
                 (A) (A) (A) (A) (A) (A) (A) (A) (A) (A) (A) (A)
                 (A) (A) (A) (A) (A) (A) (A) (A) (A) (A) (A) (A)
                 (A) (A) (A) (A) (A) (A) (A) (A) (A) (A) (A) (A)
                 (A) (A) (A) (A) (A) (A) (A) (A) (A) (A) (A) (A)
                 (A) (A) (A) (A) (A) (A) (A) (A) (A) (A) (A) (A)
                 (A) (A) (A) (A) (A) (A) (A) (A) (A) (A) (A) (A)
                 (A) (A) (A) (A) (A) (A) (A) (A) (A) (A) (A) (A)
                 (A) (A) (A) (A) (A) (A) (A) (A) (A) (A) (A) (A)
                 (A) (A) (A) (A) (A) (A) (A) (A) (A) (A) (A) (A)
                 (A) (A) (A) (A) (A) (A) (A) (A) (A) (A) (A) (A)
                 (A) (A) (A) (A) (A) (A) (A) (A) (A) (A) (A) (A)
                 (A) (A) (A) (A) (A) (A) (A) (A) (A) (A) (A) (A)
                 (A) (A) (A) (A) (A) (A) (A) (A) (A) (A) (A) (A)
                 (A) (A) (A) (A) (A) (A) (A) (A) (A) (A) (A) (A)
                 (A) (A) (A) (A) (A) (A) (A) (A) (A) (A) (A) (A)
                 (A) (A) (A) (A) (A) (A) (A) (A) (A) (A) (A) (A)
                 (A) (A) (A) (A) (A) (A) (A) (A) (A) (A) (A) (A)
                 (A) (A) (A) (A) (A) (A) (A) (A) (A) (A) (A) (A)
                 (A) (A) (A) (A) (A) (A) (A) (A) (A) (A) (A) (A)
                 (A) (A) (A) (A) (A) (A) (A)
    24 initial guesses have been made.
 Convergence on wavefunction:    0.001000000000000
 Iteration     1 Dimension    24 NMult     0 NNew     24
 CISAX will form    24 AO SS matrices at one time.
 New state      1 was old state      2
 New state      2 was old state      4
 New state      4 was old state      6
 New state      6 was old state      8
 New state      8 was old state     12
 New state      9 was old state     11
 New state     11 was old state      9
 New state     12 was old state     14
 Vector   6 SDiff=6.28D+00 TDiff=6.32D+00 assumed to be singlet.
 Vector  12 SDiff=6.30D+00 TDiff=6.28D+00 assumed to be triplet.
 Iteration     2 Dimension    36 NMult    24 NNew     12
 New state      6 was old state      7
 Iteration     3 Dimension    48 NMult    36 NNew     12
 New state      4 was old state      5
 New state      5 was old state      4
 Iteration     4 Dimension    60 NMult    48 NNew     12
 Iteration     5 Dimension    72 NMult    60 NNew     12
 New state      4 was old state      5
 New state      5 was old state      4
 Iteration     6 Dimension    80 NMult    72 NNew      8
 Iteration     7 Dimension    88 NMult    80 NNew      8
 Iteration     8 Dimension    92 NMult    88 NNew      4
 Iteration     9 Dimension    96 NMult    92 NNew      4
 Iteration    10 Dimension   100 NMult    96 NNew      4
 Iteration    11 Dimension   104 NMult   100 NNew      4
 Iteration    12 Dimension   106 NMult   104 NNew      2
 Iteration    13 Dimension   108 NMult   106 NNew      2
 ***********************************************************************
 Excited states from <AA,BB:AA,BB> singles matrix:
 ***********************************************************************
 
 Ground to excited state transition densities written to RWF  633
 Ground to excited state transition electric dipole moments (Au):
       state          X           Y           Z        Dip. S.      Osc.
         1         0.0000     -0.0000      0.0000      0.0000      0.0000
         2        -0.0000      0.0000     -0.0000      0.0000      0.0000
         3        -0.0309      0.1180     -0.0252      0.0155      0.0011
         4        -0.0000     -0.0000     -0.0000      0.0000      0.0000
         5         0.5106     -0.3769     -0.1211      0.4175      0.0311
         6        -0.1764      0.2540     -0.0325      0.0967      0.0074
 Ground to excited state transition velocity dipole moments (Au):
       state          X           Y           Z        Dip. S.      Osc.
         1        -0.0000     -0.0000     -0.0000      0.0000      0.0000
         2         0.0000     -0.0000      0.0000      0.0000      0.0000
         3         0.0037     -0.0121      0.0021      0.0002      0.0011
         4        -0.0000      0.0000     -0.0000      0.0000      0.0000
         5        -0.0574      0.0440      0.0133      0.0054      0.0322
         6         0.0206     -0.0313      0.0054      0.0014      0.0083
 Ground to excited state transition magnetic dipole moments (Au):
       state          X           Y           Z
         1         0.0000      0.0000      0.0000
         2         0.0000      0.0000      0.0000
         3        -0.0905      0.1416      0.0493
         4         0.0000     -0.0000      0.0000
         5         0.1004     -0.0709     -0.3780
         6        -0.0441      0.0449      0.2333
 Ground to excited state transition velocity quadrupole moments (Au):
       state          XX          YY          ZZ          XY          XZ          YZ
         1         0.0000      0.0000     -0.0000     -0.0000     -0.0000     -0.0000
         2        -0.0000      0.0000     -0.0000      0.0000      0.0000      0.0000
         3        -0.0420     -0.0504      0.0262     -0.0189      0.0227     -0.0028
         4        -0.0000     -0.0000      0.0000     -0.0000      0.0000      0.0000
         5         0.0223      0.2386     -0.0747     -0.3133     -0.0900      0.1973
         6        -0.0469     -0.1631      0.0449      0.1158      0.0808     -0.0759
 <0|del|b> * <b|rxdel|0> + <0|del|b> * <b|delr+rdel|0>
 Rotatory Strengths (R) in cgs (10**-40 erg-esu-cm/Gauss)
       state          XX          YY          ZZ    R(velocity)    E-M Angle
         1        -0.0000     -0.0000     -0.0000     -0.0000       90.00
         2         0.0000      0.0000     -0.0000      0.0000       90.00
         3        -4.7043     -0.6915     -7.9011     -4.4323      150.04
         4        -0.0000     -0.0000     -0.0000     -0.0000       90.00
         5       -26.3045    -56.6487     -4.8091    -29.2541      118.38
         6         9.2740     -5.6468    -10.0625     -2.1451       96.57
 1/2[<0|r|b>*<b|rxdel|0> + (<0|rxdel|b>*<b|r|0>)*]
 Rotatory Strengths (R) in cgs (10**-40 erg-esu-cm/Gauss)
       state          XX          YY          ZZ     R(length)
         1        -0.0000      0.0000     -0.0000      0.0000
         2         0.0000     -0.0000      0.0000     -0.0000
         3        -1.9763    -11.8168      0.8800     -4.3044
         4         0.0000     -0.0000      0.0000     -0.0000
         5       -36.2406    -18.8857    -32.3632    -29.1632
         6        -5.5003     -8.0677      5.3654     -2.7342
  1/2[<0|del|b>*<b|r|0> + (<0|r|b>*<b|del|0>)*] (Au)
       state          X           Y           Z        Dip. S.   Osc.(frdel)
         1        -0.0000      0.0000     -0.0000      0.0000      0.0000
         2        -0.0000     -0.0000     -0.0000      0.0000      0.0000
         3        -0.0001     -0.0014     -0.0001      0.0016      0.0011
         4         0.0000     -0.0000      0.0000      0.0000      0.0000
         5        -0.0293     -0.0166     -0.0016      0.0475      0.0317
         6        -0.0036     -0.0079     -0.0002      0.0118      0.0078

 Excitation energies and oscillator strengths:
 
 Excited State   1:      Triplet-A      1.2169 eV 1018.82 nm  f=0.0000  <S**2>=2.000
     100 ->103         0.13325
     101 ->103        -0.33670
     102 ->103         0.62285
     101 <-103        -0.11157
     102 <-103         0.20201
 This state for optimization and/or second-order correction.
 Total Energy, E(TD-HF/TD-DFT) =  -1695.66335680    
 Copying the excited state density for this state as the 1-particle RhoCI density.
 
 Excited State   2:      Triplet-A      2.7956 eV  443.50 nm  f=0.0000  <S**2>=2.000
     101 ->103         0.61926
     102 ->103         0.32807
 
 Excited State   3:      Singlet-A      2.8089 eV  441.40 nm  f=0.0011  <S**2>=0.000
     101 ->103         0.57804
     102 ->103         0.40449
 
 Excited State   4:      Triplet-A      2.8565 eV  434.04 nm  f=0.0000  <S**2>=2.000
      89 ->104         0.21618
      91 ->104        -0.55056
      92 ->104        -0.27077
      93 ->104        -0.11392
      94 ->104        -0.18539
      97 ->104        -0.10190
      91 <-104        -0.14729
 
 Excited State   5:      Singlet-A      3.0450 eV  407.17 nm  f=0.0311  <S**2>=0.000
     100 ->103         0.52697
     101 ->103         0.27099
     102 ->103        -0.36203
 
 Excited State   6:      Singlet-A      3.1320 eV  395.86 nm  f=0.0074  <S**2>=0.000
     100 ->103         0.29840
     101 ->103        -0.10664
     101 ->104        -0.24655
     102 ->103         0.15423
     102 ->104         0.54426
 SavETr:  write IOETrn=   770 NScale= 10 NData=  16 NLR=1 NState=    6 LETran=     118.

 **********************************************************************

            Population analysis using the SCF Density.

 **********************************************************************

 Orbital symmetries:
       Occupied  (A) (A) (A) (A) (A) (A) (A) (A) (A) (A) (A) (A)
                 (A) (A) (A) (A) (A) (A) (A) (A) (A) (A) (A) (A)
                 (A) (A) (A) (A) (A) (A) (A) (A) (A) (A) (A) (A)
                 (A) (A) (A) (A) (A) (A) (A) (A) (A) (A) (A) (A)
                 (A) (A) (A) (A) (A) (A) (A) (A) (A) (A) (A) (A)
                 (A) (A) (A) (A) (A) (A) (A) (A) (A) (A) (A) (A)
                 (A) (A) (A) (A) (A) (A) (A) (A) (A) (A) (A) (A)
                 (A) (A) (A) (A) (A) (A) (A) (A) (A) (A) (A) (A)
                 (A) (A) (A) (A) (A) (A)
       Virtual   (A) (A) (A) (A) (A) (A) (A) (A) (A) (A) (A) (A)
                 (A) (A) (A) (A) (A) (A) (A) (A) (A) (A) (A) (A)
                 (A) (A) (A) (A) (A) (A) (A) (A) (A) (A) (A) (A)
                 (A) (A) (A) (A) (A) (A) (A) (A) (A) (A) (A) (A)
                 (A) (A) (A) (A) (A) (A) (A) (A) (A) (A) (A) (A)
                 (A) (A) (A) (A) (A) (A) (A) (A) (A) (A) (A) (A)
                 (A) (A) (A) (A) (A) (A) (A) (A) (A) (A) (A) (A)
                 (A) (A) (A) (A) (A) (A) (A) (A) (A) (A) (A) (A)
                 (A) (A) (A) (A) (A) (A) (A) (A) (A) (A) (A) (A)
                 (A) (A) (A) (A) (A) (A) (A) (A) (A) (A) (A) (A)
                 (A) (A) (A) (A) (A) (A) (A) (A) (A) (A) (A) (A)
                 (A) (A) (A) (A) (A) (A) (A) (A) (A) (A) (A) (A)
                 (A) (A) (A) (A) (A) (A) (A) (A) (A) (A) (A) (A)
                 (A) (A) (A) (A) (A) (A) (A) (A) (A) (A) (A) (A)
                 (A) (A) (A) (A) (A) (A) (A) (A) (A) (A) (A) (A)
                 (A) (A) (A) (A) (A) (A) (A) (A) (A) (A) (A) (A)
                 (A) (A) (A) (A) (A) (A) (A) (A) (A) (A) (A) (A)
                 (A) (A) (A) (A) (A) (A) (A) (A) (A) (A) (A) (A)
                 (A) (A) (A) (A) (A) (A) (A) (A) (A) (A) (A) (A)
                 (A) (A) (A) (A) (A) (A) (A) (A) (A) (A) (A) (A)
                 (A) (A) (A) (A) (A) (A) (A) (A) (A) (A) (A) (A)
                 (A) (A) (A) (A) (A) (A) (A) (A) (A) (A) (A) (A)
                 (A) (A) (A) (A) (A) (A) (A) (A) (A) (A) (A) (A)
                 (A) (A) (A) (A) (A) (A) (A) (A) (A) (A) (A) (A)
                 (A) (A) (A) (A) (A) (A) (A) (A) (A) (A) (A) (A)
                 (A) (A) (A) (A) (A) (A) (A) (A) (A) (A) (A) (A)
                 (A) (A) (A) (A) (A) (A) (A) (A) (A) (A) (A) (A)
                 (A) (A) (A) (A) (A) (A) (A) (A) (A) (A) (A) (A)
                 (A) (A) (A) (A) (A) (A) (A) (A) (A) (A) (A) (A)
                 (A) (A) (A) (A) (A) (A) (A) (A) (A) (A) (A) (A)
                 (A) (A) (A) (A) (A) (A) (A) (A) (A) (A) (A) (A)
                 (A) (A) (A) (A) (A) (A) (A) (A) (A) (A) (A) (A)
                 (A) (A) (A) (A) (A) (A) (A) (A) (A) (A) (A) (A)
                 (A) (A) (A) (A) (A) (A) (A) (A) (A) (A) (A) (A)
                 (A) (A) (A) (A) (A) (A) (A) (A) (A) (A) (A) (A)
                 (A) (A) (A) (A) (A) (A) (A) (A) (A) (A) (A) (A)
                 (A) (A) (A) (A) (A) (A) (A) (A) (A) (A) (A) (A)
                 (A) (A) (A) (A) (A) (A) (A) (A) (A) (A) (A) (A)
                 (A) (A) (A) (A) (A) (A) (A) (A) (A) (A) (A) (A)
                 (A) (A) (A) (A) (A) (A) (A) (A) (A) (A) (A) (A)
                 (A) (A) (A) (A) (A) (A) (A) (A) (A) (A) (A) (A)
                 (A) (A) (A) (A) (A) (A) (A)
 The electronic state is 1-A.
 Alpha  occ. eigenvalues -- -101.59630 -19.30654 -19.22936 -19.22891 -19.21539
 Alpha  occ. eigenvalues --  -14.61128 -14.57245 -14.43659 -10.31659 -10.30601
 Alpha  occ. eigenvalues --  -10.29433 -10.28627 -10.27626 -10.26620 -10.23373
 Alpha  occ. eigenvalues --  -10.22693 -10.21793 -10.21685 -10.21411 -10.21210
 Alpha  occ. eigenvalues --  -10.21041 -10.21015 -10.20273 -10.20135 -10.20130
 Alpha  occ. eigenvalues --  -10.20030 -10.19864 -10.19104  -9.51067  -7.27525
 Alpha  occ. eigenvalues --   -7.26485  -7.26450  -1.26813  -1.24530  -1.14699
 Alpha  occ. eigenvalues --   -1.09722  -0.96519  -0.92243  -0.91514  -0.89066
 Alpha  occ. eigenvalues --   -0.87142  -0.86473  -0.81933  -0.81593  -0.79414
 Alpha  occ. eigenvalues --   -0.76179  -0.75508  -0.75339  -0.73055  -0.69578
 Alpha  occ. eigenvalues --   -0.67277  -0.66304  -0.65811  -0.61874  -0.61662
 Alpha  occ. eigenvalues --   -0.61171  -0.59949  -0.59073  -0.58075  -0.56401
 Alpha  occ. eigenvalues --   -0.55946  -0.54898  -0.54392  -0.53485  -0.52491
 Alpha  occ. eigenvalues --   -0.51932  -0.49427  -0.49162  -0.48313  -0.47311
 Alpha  occ. eigenvalues --   -0.46676  -0.46289  -0.45433  -0.44926  -0.44386
 Alpha  occ. eigenvalues --   -0.44349  -0.43901  -0.43348  -0.42709  -0.40898
 Alpha  occ. eigenvalues --   -0.39465  -0.39206  -0.38704  -0.38381  -0.38147
 Alpha  occ. eigenvalues --   -0.37312  -0.36410  -0.35779  -0.35648  -0.35440
 Alpha  occ. eigenvalues --   -0.34972  -0.34407  -0.34097  -0.33896  -0.32218
 Alpha  occ. eigenvalues --   -0.32074  -0.30887  -0.27601  -0.27088  -0.26235
 Alpha  occ. eigenvalues --   -0.25329  -0.25103
 Alpha virt. eigenvalues --   -0.12709  -0.11074  -0.04826  -0.04198  -0.03628
 Alpha virt. eigenvalues --   -0.03114  -0.02409  -0.02016  -0.01706  -0.00835
 Alpha virt. eigenvalues --    0.00022   0.00584   0.00987   0.01373   0.01904
 Alpha virt. eigenvalues --    0.02343   0.02777   0.03248   0.03643   0.04158
 Alpha virt. eigenvalues --    0.04559   0.05023   0.05446   0.05537   0.05965
 Alpha virt. eigenvalues --    0.06124   0.06282   0.07046   0.07408   0.08119
 Alpha virt. eigenvalues --    0.08194   0.08733   0.09296   0.09576   0.09632
 Alpha virt. eigenvalues --    0.10017   0.10230   0.10444   0.10565   0.10820
 Alpha virt. eigenvalues --    0.10988   0.11451   0.11582   0.12197   0.12391
 Alpha virt. eigenvalues --    0.12820   0.13185   0.13430   0.13792   0.14016
 Alpha virt. eigenvalues --    0.14226   0.14569   0.14802   0.15286   0.15373
 Alpha virt. eigenvalues --    0.15789   0.15947   0.16220   0.16486   0.16781
 Alpha virt. eigenvalues --    0.17187   0.17356   0.17610   0.18062   0.18182
 Alpha virt. eigenvalues --    0.18562   0.18882   0.18920   0.18991   0.19310
 Alpha virt. eigenvalues --    0.19468   0.19733   0.20199   0.20355   0.20585
 Alpha virt. eigenvalues --    0.20769   0.20954   0.21422   0.21628   0.21903
 Alpha virt. eigenvalues --    0.21989   0.22109   0.22426   0.22729   0.22965
 Alpha virt. eigenvalues --    0.23306   0.23741   0.23905   0.24121   0.24193
 Alpha virt. eigenvalues --    0.24769   0.24960   0.25159   0.25441   0.26034
 Alpha virt. eigenvalues --    0.26168   0.26210   0.26600   0.26848   0.27482
 Alpha virt. eigenvalues --    0.27744   0.27940   0.28029   0.28368   0.28741
 Alpha virt. eigenvalues --    0.28922   0.29111   0.29286   0.29700   0.30044
 Alpha virt. eigenvalues --    0.30119   0.30276   0.30749   0.30979   0.31831
 Alpha virt. eigenvalues --    0.31880   0.32101   0.32424   0.32759   0.33292
 Alpha virt. eigenvalues --    0.33503   0.34123   0.34216   0.34432   0.34767
 Alpha virt. eigenvalues --    0.35219   0.35731   0.35878   0.36331   0.36491
 Alpha virt. eigenvalues --    0.37003   0.37137   0.37671   0.38038   0.38511
 Alpha virt. eigenvalues --    0.38654   0.39545   0.40089   0.40238   0.40620
 Alpha virt. eigenvalues --    0.41586   0.41717   0.42352   0.42928   0.43783
 Alpha virt. eigenvalues --    0.44006   0.44359   0.45046   0.45360   0.46342
 Alpha virt. eigenvalues --    0.47507   0.48974   0.49474   0.50132   0.51631
 Alpha virt. eigenvalues --    0.52173   0.52745   0.54032   0.55211   0.56439
 Alpha virt. eigenvalues --    0.58333   0.60615   0.61654   0.62018   0.62909
 Alpha virt. eigenvalues --    0.63426   0.66594   0.67584   0.67970   0.69084
 Alpha virt. eigenvalues --    0.69293   0.70078   0.70169   0.71290   0.71598
 Alpha virt. eigenvalues --    0.72684   0.73277   0.73553   0.74096   0.74277
 Alpha virt. eigenvalues --    0.74560   0.75854   0.76680   0.77007   0.77868
 Alpha virt. eigenvalues --    0.78157   0.78502   0.78805   0.79520   0.80275
 Alpha virt. eigenvalues --    0.81021   0.81293   0.81990   0.82449   0.83131
 Alpha virt. eigenvalues --    0.84266   0.84516   0.85469   0.85973   0.86283
 Alpha virt. eigenvalues --    0.86813   0.87537   0.87847   0.88457   0.88539
 Alpha virt. eigenvalues --    0.89226   0.89657   0.90681   0.90874   0.90974
 Alpha virt. eigenvalues --    0.91532   0.91984   0.92292   0.93352   0.93632
 Alpha virt. eigenvalues --    0.94373   0.95901   0.96271   0.96918   0.98575
 Alpha virt. eigenvalues --    0.99035   0.99815   1.00236   1.00939   1.01240
 Alpha virt. eigenvalues --    1.02331   1.02927   1.03787   1.04182   1.05523
 Alpha virt. eigenvalues --    1.06724   1.06810   1.07283   1.07838   1.08725
 Alpha virt. eigenvalues --    1.09186   1.09371   1.10469   1.10984   1.12580
 Alpha virt. eigenvalues --    1.12962   1.14448   1.14510   1.15429   1.16207
 Alpha virt. eigenvalues --    1.16954   1.17726   1.17942   1.18053   1.18717
 Alpha virt. eigenvalues --    1.19065   1.19340   1.19839   1.20228   1.22091
 Alpha virt. eigenvalues --    1.23047   1.24165   1.24594   1.25271   1.25952
 Alpha virt. eigenvalues --    1.26976   1.27660   1.28155   1.28968   1.29401
 Alpha virt. eigenvalues --    1.30334   1.30678   1.32049   1.32855   1.33244
 Alpha virt. eigenvalues --    1.33535   1.34127   1.35717   1.36339   1.37169
 Alpha virt. eigenvalues --    1.37430   1.38030   1.38544   1.39533   1.40118
 Alpha virt. eigenvalues --    1.40167   1.40759   1.41030   1.41764   1.42075
 Alpha virt. eigenvalues --    1.42144   1.43208   1.43601   1.44756   1.45018
 Alpha virt. eigenvalues --    1.45604   1.46576   1.47378   1.48111   1.49608
 Alpha virt. eigenvalues --    1.52003   1.52765   1.54215   1.55323   1.55928
 Alpha virt. eigenvalues --    1.58422   1.60875   1.62580   1.64820   1.65795
 Alpha virt. eigenvalues --    1.67381   1.68022   1.69263   1.71313   1.73209
 Alpha virt. eigenvalues --    1.73529   1.74026   1.75777   1.76482   1.78069
 Alpha virt. eigenvalues --    1.78583   1.78857   1.80093   1.80463   1.81531
 Alpha virt. eigenvalues --    1.81895   1.82939   1.83431   1.84831   1.85886
 Alpha virt. eigenvalues --    1.86627   1.87751   1.88335   1.89093   1.89561
 Alpha virt. eigenvalues --    1.90002   1.90926   1.92092   1.92316   1.92631
 Alpha virt. eigenvalues --    1.94005   1.94574   1.95304   1.95552   1.96769
 Alpha virt. eigenvalues --    1.96956   1.98205   1.98721   1.99445   1.99758
 Alpha virt. eigenvalues --    1.99909   2.00893   2.01149   2.01860   2.02394
 Alpha virt. eigenvalues --    2.03380   2.03793   2.04924   2.05824   2.06756
 Alpha virt. eigenvalues --    2.07675   2.08472   2.09298   2.10582   2.11177
 Alpha virt. eigenvalues --    2.12825   2.14336   2.15140   2.15858   2.16424
 Alpha virt. eigenvalues --    2.18013   2.18934   2.20845   2.21424   2.22941
 Alpha virt. eigenvalues --    2.24871   2.25265   2.26279   2.26928   2.28703
 Alpha virt. eigenvalues --    2.29402   2.30253   2.31760   2.32437   2.35791
 Alpha virt. eigenvalues --    2.36870   2.37441   2.37949   2.38459   2.39150
 Alpha virt. eigenvalues --    2.39682   2.39813   2.40932   2.41866   2.42410
 Alpha virt. eigenvalues --    2.44094   2.45807   2.46109   2.46581   2.47064
 Alpha virt. eigenvalues --    2.48533   2.48846   2.49746   2.50749   2.51751
 Alpha virt. eigenvalues --    2.52205   2.54051   2.54610   2.55119   2.56362
 Alpha virt. eigenvalues --    2.57752   2.58011   2.58838   2.59322   2.59787
 Alpha virt. eigenvalues --    2.60708   2.61678   2.62061   2.62844   2.63326
 Alpha virt. eigenvalues --    2.64323   2.67164   2.67899   2.68696   2.70006
 Alpha virt. eigenvalues --    2.71816   2.72824   2.73497   2.74652   2.74876
 Alpha virt. eigenvalues --    2.75638   2.78419   2.80483   2.81049   2.81844
 Alpha virt. eigenvalues --    2.82451   2.84155   2.85018   2.87287   2.88435
 Alpha virt. eigenvalues --    2.89463   2.91961   2.93633   2.96569   2.98902
 Alpha virt. eigenvalues --    2.99401   3.01855   3.02752   3.03801   3.06588
 Alpha virt. eigenvalues --    3.07242   3.08326   3.08394   3.08826   3.14418
 Alpha virt. eigenvalues --    3.15292   3.19611   3.21203   3.26447   3.27018
 Alpha virt. eigenvalues --    3.27673   3.29122   3.29749   3.30953   3.32445
 Alpha virt. eigenvalues --    3.35037   3.36420   3.42964   3.45770   3.48762
 Alpha virt. eigenvalues --    3.50630   3.53266   3.55452   3.57541   3.83866
 Alpha virt. eigenvalues --    3.89310   4.17475   4.24993   4.28431   4.33495
 Alpha virt. eigenvalues --    4.35451   4.37959   4.38469   4.40276   4.41275
 Alpha virt. eigenvalues --    4.43829   4.44788   4.46365   4.49133   4.49971
 Alpha virt. eigenvalues --    4.51407   4.53404   4.53870   4.55148   4.55908
 Alpha virt. eigenvalues --    4.59726   4.63391   4.65796   4.67788   4.78313
 Alpha virt. eigenvalues --    4.84791   4.87214   4.90545   4.91414
          Condensed to atoms (all electrons):
               1          2          3          4          5          6
     1  C    8.738528  -0.785540   0.201745  -0.953412  -0.002508  -0.051499
     2  C   -0.785540  19.973622  -8.992656   1.700218  -0.567342   0.227999
     3  C    0.201745  -8.992656  41.067352 -12.845390   2.414647  -2.536071
     4  C   -0.953412   1.700218 -12.845390  32.422401  -5.091328   1.725135
     5  C   -0.002508  -0.567342   2.414647  -5.091328   8.964392  -0.157213
     6  C   -0.051499   0.227999  -2.536071   1.725135  -0.157213   5.967287
     7  C   -0.026042   0.164926  -0.280287  -1.838669   0.231181  -0.025622
     8  C    0.388589   2.012993  -6.885759 -11.940696   0.624327   0.552773
     9  C    0.690721  -5.345203   1.825002  -0.396024  -0.178481  -0.297400
    10  C   -1.501583  -0.149102  -4.464276   1.219565  -0.438959   0.296501
    11  C    0.424905  -0.419601   1.271744   0.014724   0.001303  -0.024628
    12  C   -0.136542   0.361168  -0.566999  -0.141970   0.033612   0.004331
    13  C   -0.428403  -3.686497  -2.081031   1.753871  -0.259736   0.111300
    14  C   -0.818430   2.579288  -2.372555   0.937045  -0.150683   0.090995
    15  C    0.192572   2.725586   0.159248  -0.824923   0.700557  -0.103572
    16  C   -0.664796  -4.870914   1.038760  -1.710108   0.191959  -0.049636
    17  N    0.195837   0.411445   0.047640   0.030785   0.017917   0.000666
    18  O   -0.008409   0.021637   0.022241  -0.012314  -0.001284  -0.000050
    19  O   -0.035654  -0.150168  -0.086801   0.027165  -0.007313   0.000042
    20  C   -0.274963  -1.931655   0.343687  -0.304839  -0.116050   0.004663
    21  Cl   0.003871   0.029538   0.033362  -0.023006  -0.003419  -0.002261
    22  C    0.003496   0.069539  -1.543314   1.169288  -0.068326   0.045590
    23  C   -0.014693   0.014964   0.550040  -0.099722  -0.233470  -0.003699
    24  C    0.075598   2.970363  -1.113116   0.716892  -0.128595   0.017865
    25  N   -0.007697  -0.124065  -0.219531   0.349277  -0.104381   0.061230
    26  O    0.003744   0.046550   0.085524  -0.106268   0.037677  -0.014626
    27  N   -0.001614  -0.030366  -0.006402   0.062092  -0.008885   0.013512
    28  O    0.000112  -0.001677   0.011089  -0.006367  -0.000369   0.000926
    29  H    0.564657  -0.190744  -0.061569  -0.016985  -0.006328   0.000546
    30  H    0.452797  -0.032487  -0.080366   0.035061  -0.001215   0.001488
    31  H    0.432261  -0.144211   0.062538   0.035022   0.010394  -0.003951
    32  H   -0.100518   0.182026  -0.120698   0.106784   0.026734  -0.003000
    33  H   -0.025713  -0.049779   0.291805  -0.034341   0.009068  -0.027856
    34  H    0.002028  -0.004598   0.034729   0.038656   0.223779   0.022911
    35  H    0.000407  -0.002195  -0.016529   0.023057   0.003147   0.272099
    36  H   -0.000833  -0.014979   0.057030   0.008907   0.010057  -0.008236
    37  H   -0.009508   0.084411   0.144219   0.158844  -0.007250  -0.003088
    38  H    0.017743   0.010993  -0.139761  -0.013761   0.000247  -0.000487
    39  H    0.004000  -0.005281  -0.003704   0.000074   0.000069  -0.000070
    40  H   -0.000532   0.000519   0.001024   0.000080  -0.000013   0.000018
    41  H   -0.001418  -0.012995  -0.000699   0.002164  -0.000137   0.000027
    42  H    0.000015   0.000067  -0.000088   0.000285  -0.000026   0.000113
               7          8          9         10         11         12
     1  C   -0.026042   0.388589   0.690721  -1.501583   0.424905  -0.136542
     2  C    0.164926   2.012993  -5.345203  -0.149102  -0.419601   0.361168
     3  C   -0.280287  -6.885759   1.825002  -4.464276   1.271744  -0.566999
     4  C   -1.838669 -11.940696  -0.396024   1.219565   0.014724  -0.141970
     5  C    0.231181   0.624327  -0.178481  -0.438959   0.001303   0.033612
     6  C   -0.025622   0.552773  -0.297400   0.296501  -0.024628   0.004331
     7  C    9.571645  -2.167287   0.671392  -0.207313  -0.035731   0.020482
     8  C   -2.167287  24.407717  -2.563134   2.257464  -0.588305   0.443437
     9  C    0.671392  -2.563134  48.402437 -29.133346   1.533184  -0.185471
    10  C   -0.207313   2.257464 -29.133346  34.557997  -2.853655   0.245316
    11  C   -0.035731  -0.588305   1.533184  -2.853655   8.129714   0.154367
    12  C    0.020482   0.443437  -0.185471   0.245316   0.154367   9.067078
    13  C   -0.074594  -0.635573  -5.507765   8.343959  -1.125552  -1.017296
    14  C    0.005636   0.346334  -0.578625   0.235510  -0.237811  -1.461078
    15  C   -0.375975   0.748878  -0.585826  -2.127473  -0.324181  -0.374174
    16  C   -0.118782   1.003126  -1.999243   0.239998  -0.156122   0.121443
    17  N   -0.016035  -0.071044   0.074158  -0.372976   0.115841   0.074386
    18  O    0.000371   0.005771   0.000290  -0.047691  -0.006394  -0.060825
    19  O    0.002347   0.003681   0.046586   0.165901  -0.010347   0.028766
    20  C    0.014809   0.125341  -0.778352  -0.017361  -0.021334  -0.159006
    21  Cl   0.000939   0.005456  -0.015655  -0.004478   0.001024  -0.005083
    22  C   -0.012305  -0.268170   0.299012   0.251461   0.003546  -0.046298
    23  C    0.090848  -0.263528  -0.554163  -0.247274  -0.014425  -0.166577
    24  C    0.407940  -0.796453  -0.010734  -0.114293   0.099651  -0.547195
    25  N   -0.045799  -0.081907  -0.050356   0.111288   0.005888   0.039810
    26  O    0.018785   0.003425   0.045235  -0.021832  -0.003739  -0.009452
    27  N   -0.001733  -0.024250   0.038969  -0.008846   0.004758   0.014687
    28  O    0.002723  -0.002929   0.003214   0.001069   0.000054  -0.000580
    29  H   -0.004190   0.018726   0.023020   0.022493   0.026828   0.001841
    30  H    0.012295   0.009350  -0.012614  -0.019678  -0.012115   0.000142
    31  H   -0.012813  -0.088053   0.006461   0.016834   0.025784  -0.002516
    32  H    0.001999  -0.130648   0.321558  -0.111895   0.007070  -0.001271
    33  H    0.012019   0.034414   0.064238  -0.010774  -0.000312   0.000638
    34  H    0.005915  -0.009134  -0.005340   0.000154   0.000054  -0.000020
    35  H   -0.000448   0.031361  -0.000332   0.000213   0.000003  -0.000006
    36  H    0.222071   0.029917   0.011621  -0.005090   0.000229  -0.000167
    37  H   -0.020833   0.002265  -0.101758   0.000359   0.014689  -0.007970
    38  H    0.026203   0.058141  -0.018255   0.282382  -0.012307   0.018144
    39  H    0.000516   0.000809   0.058571   0.023273   0.267134  -0.032721
    40  H   -0.000337  -0.000482   0.007538   0.012580   0.001426   0.278049
    41  H   -0.000162  -0.003526  -0.046419   0.005486  -0.029516  -0.046388
    42  H   -0.000030   0.000120   0.000627  -0.000007   0.000010   0.000016
              13         14         15         16         17         18
     1  C   -0.428403  -0.818430   0.192572  -0.664796   0.195837  -0.008409
     2  C   -3.686497   2.579288   2.725586  -4.870914   0.411445   0.021637
     3  C   -2.081031  -2.372555   0.159248   1.038760   0.047640   0.022241
     4  C    1.753871   0.937045  -0.824923  -1.710108   0.030785  -0.012314
     5  C   -0.259736  -0.150683   0.700557   0.191959   0.017917  -0.001284
     6  C    0.111300   0.090995  -0.103572  -0.049636   0.000666  -0.000050
     7  C   -0.074594   0.005636  -0.375975  -0.118782  -0.016035   0.000371
     8  C   -0.635573   0.346334   0.748878   1.003126  -0.071044   0.005771
     9  C   -5.507765  -0.578625  -0.585826  -1.999243   0.074158   0.000290
    10  C    8.343959   0.235510  -2.127473   0.239998  -0.372976  -0.047691
    11  C   -1.125552  -0.237811  -0.324181  -0.156122   0.115841  -0.006394
    12  C   -1.017296  -1.461078  -0.374174   0.121443   0.074386  -0.060825
    13  C   22.504849  -7.841658  -2.928924  -1.849912   0.040401  -0.261738
    14  C   -7.841658  20.942443   4.649876  -1.934925  -0.177474   0.259520
    15  C   -2.928924   4.649876  28.728765  -2.337091  -0.021953  -0.001199
    16  C   -1.849912  -1.934925  -2.337091  38.590616  -0.463259   0.179862
    17  N    0.040401  -0.177474  -0.021953  -0.463259   8.519404   0.158922
    18  O   -0.261738   0.259520  -0.001199   0.179862   0.158922   7.659866
    19  O    0.199770  -0.046871  -0.046611  -0.008317   0.173060  -0.078366
    20  C   -0.175572  -5.718334 -12.297407   1.640045  -0.443063   0.008266
    21  Cl  -0.052421   0.021515   0.047331  -0.005436  -0.087300   0.021309
    22  C    1.426445  -1.487261   0.086800  -6.624840   0.297377  -0.068899
    23  C   -0.962290  -1.759263  -6.263440  -0.509513  -0.206486   0.018354
    24  C   -0.064883   0.858852  -3.085590 -13.672531  -0.835296   0.092695
    25  N    0.483886  -0.545630  -0.222758  -0.013351   0.001843  -0.003989
    26  O   -0.108094   0.210843   0.070201  -0.056376   0.003253   0.000001
    27  N    0.052118   0.084645  -0.363853  -0.075034  -0.008124   0.000412
    28  O    0.006836   0.002168   0.018671  -0.021940  -0.000212  -0.000012
    29  H    0.002669  -0.020295   0.000085  -0.007491   0.000403  -0.000068
    30  H    0.002456   0.008162   0.002674  -0.007725  -0.000695   0.000012
    31  H    0.004662  -0.000846   0.000235   0.002431   0.000181   0.000003
    32  H    0.038577  -0.014378  -0.024474   0.030252   0.012663  -0.000287
    33  H    0.002627   0.009071  -0.000210   0.036445   0.000121   0.000001
    34  H   -0.000311  -0.002063  -0.003578  -0.003597   0.000038  -0.000000
    35  H   -0.000030  -0.000272   0.000802   0.000120   0.000000  -0.000000
    36  H    0.000133  -0.001831   0.001034   0.000432   0.000003  -0.000000
    37  H    0.001022   0.023750  -0.027379  -0.013482  -0.000015  -0.000001
    38  H   -0.029435   0.066189   0.021143   0.005670  -0.000383   0.000015
    39  H    0.005272  -0.000856  -0.002444   0.001110   0.000182  -0.000009
    40  H   -0.030407   0.019360   0.010272   0.002104  -0.000620   0.000011
    41  H    0.387520  -0.205999   0.009388   0.023489  -0.018392   0.002251
    42  H   -0.000049   0.006308   0.033431   0.092824   0.002896  -0.000169
              19         20         21         22         23         24
     1  C   -0.035654  -0.274963   0.003871   0.003496  -0.014693   0.075598
     2  C   -0.150168  -1.931655   0.029538   0.069539   0.014964   2.970363
     3  C   -0.086801   0.343687   0.033362  -1.543314   0.550040  -1.113116
     4  C    0.027165  -0.304839  -0.023006   1.169288  -0.099722   0.716892
     5  C   -0.007313  -0.116050  -0.003419  -0.068326  -0.233470  -0.128595
     6  C    0.000042   0.004663  -0.002261   0.045590  -0.003699   0.017865
     7  C    0.002347   0.014809   0.000939  -0.012305   0.090848   0.407940
     8  C    0.003681   0.125341   0.005456  -0.268170  -0.263528  -0.796453
     9  C    0.046586  -0.778352  -0.015655   0.299012  -0.554163  -0.010734
    10  C    0.165901  -0.017361  -0.004478   0.251461  -0.247274  -0.114293
    11  C   -0.010347  -0.021334   0.001024   0.003546  -0.014425   0.099651
    12  C    0.028766  -0.159006  -0.005083  -0.046298  -0.166577  -0.547195
    13  C    0.199770  -0.175572  -0.052421   1.426445  -0.962290  -0.064883
    14  C   -0.046871  -5.718334   0.021515  -1.487261  -1.759263   0.858852
    15  C   -0.046611 -12.297407   0.047331   0.086800  -6.263440  -3.085590
    16  C   -0.008317   1.640045  -0.005436  -6.624840  -0.509513 -13.672531
    17  N    0.173060  -0.443063  -0.087300   0.297377  -0.206486  -0.835296
    18  O   -0.078366   0.008266   0.021309  -0.068899   0.018354   0.092695
    19  O    7.707911  -0.025915   0.010472  -0.004405   0.008452   0.075412
    20  C   -0.025915  26.560673  -0.248140  -2.256950   2.636523  -0.791144
    21  Cl   0.010472  -0.248140  17.026462  -0.179793  -0.018071   0.158189
    22  C   -0.004405  -2.256950  -0.179793  22.323928  -5.998930  -1.654080
    23  C    0.008452   2.636523  -0.018071  -5.998930  19.512222   1.022371
    24  C    0.075412  -0.791144   0.158189  -1.654080   1.022371  22.411583
    25  N    0.001850  -0.071094   0.000669   0.069753   0.772513  -0.910683
    26  O   -0.000226   0.042007  -0.002752   0.219907  -0.643126   0.385956
    27  N    0.001137   0.157296  -0.004230  -0.758651  -0.558550   0.702889
    28  O   -0.000001   0.020695   0.004567   0.056540  -0.122600  -0.078196
    29  H    0.001248  -0.000812   0.000004   0.000034   0.000112   0.001066
    30  H    0.000416  -0.001056   0.000012  -0.000039  -0.000041   0.002394
    31  H   -0.000121   0.000900  -0.000002   0.000218   0.000127   0.000969
    32  H   -0.011034   0.030597  -0.001165   0.017784   0.001621  -0.023803
    33  H   -0.000249   0.006135  -0.001362  -0.026496   0.013086  -0.022999
    34  H   -0.000002  -0.000460   0.000001  -0.000657   0.008352   0.000744
    35  H   -0.000000  -0.000058   0.000001   0.000597  -0.000505  -0.000936
    36  H   -0.000000  -0.000067  -0.000000  -0.000261  -0.001673   0.001318
    37  H   -0.000000   0.000161   0.000003   0.001086   0.005568   0.047494
    38  H    0.000014   0.000779   0.000002  -0.000159   0.000348   0.001903
    39  H   -0.000007  -0.000062   0.000000   0.000038  -0.000140  -0.003806
    40  H    0.000011   0.001130   0.000001  -0.000212   0.000771   0.010696
    41  H    0.000333   0.042808  -0.000026  -0.003120   0.037158   0.159257
    42  H   -0.000179  -0.053844  -0.021395   0.089868   0.166792   0.016531
              25         26         27         28         29         30
     1  C   -0.007697   0.003744  -0.001614   0.000112   0.564657   0.452797
     2  C   -0.124065   0.046550  -0.030366  -0.001677  -0.190744  -0.032487
     3  C   -0.219531   0.085524  -0.006402   0.011089  -0.061569  -0.080366
     4  C    0.349277  -0.106268   0.062092  -0.006367  -0.016985   0.035061
     5  C   -0.104381   0.037677  -0.008885  -0.000369  -0.006328  -0.001215
     6  C    0.061230  -0.014626   0.013512   0.000926   0.000546   0.001488
     7  C   -0.045799   0.018785  -0.001733   0.002723  -0.004190   0.012295
     8  C   -0.081907   0.003425  -0.024250  -0.002929   0.018726   0.009350
     9  C   -0.050356   0.045235   0.038969   0.003214   0.023020  -0.012614
    10  C    0.111288  -0.021832  -0.008846   0.001069   0.022493  -0.019678
    11  C    0.005888  -0.003739   0.004758   0.000054   0.026828  -0.012115
    12  C    0.039810  -0.009452   0.014687  -0.000580   0.001841   0.000142
    13  C    0.483886  -0.108094   0.052118   0.006836   0.002669   0.002456
    14  C   -0.545630   0.210843   0.084645   0.002168  -0.020295   0.008162
    15  C   -0.222758   0.070201  -0.363853   0.018671   0.000085   0.002674
    16  C   -0.013351  -0.056376  -0.075034  -0.021940  -0.007491  -0.007725
    17  N    0.001843   0.003253  -0.008124  -0.000212   0.000403  -0.000695
    18  O   -0.003989   0.000001   0.000412  -0.000012  -0.000068   0.000012
    19  O    0.001850  -0.000226   0.001137  -0.000001   0.001248   0.000416
    20  C   -0.071094   0.042007   0.157296   0.020695  -0.000812  -0.001056
    21  Cl   0.000669  -0.002752  -0.004230   0.004567   0.000004   0.000012
    22  C    0.069753   0.219907  -0.758651   0.056540   0.000034  -0.000039
    23  C    0.772513  -0.643126  -0.558550  -0.122600   0.000112  -0.000041
    24  C   -0.910683   0.385956   0.702889  -0.078196   0.001066   0.002394
    25  N    8.376600  -0.364681  -0.168164   0.045729   0.000021  -0.000008
    26  O   -0.364681   7.708747   0.097255  -0.070768   0.000000  -0.000000
    27  N   -0.168164   0.097255   8.134854   0.328579   0.000000   0.000001
    28  O    0.045729  -0.070768   0.328579   7.699861   0.000000   0.000000
    29  H    0.000021   0.000000   0.000000   0.000000   0.545563  -0.025409
    30  H   -0.000008  -0.000000   0.000001   0.000000  -0.025409   0.543840
    31  H   -0.000004  -0.000000   0.000002   0.000000  -0.029901  -0.027223
    32  H    0.000992  -0.000010   0.000289  -0.000001  -0.004538  -0.005990
    33  H   -0.000728   0.000142  -0.001416   0.000011  -0.000026   0.000019
    34  H    0.000190  -0.000037  -0.000338   0.000046  -0.000000   0.000002
    35  H   -0.000052   0.000029  -0.000008  -0.000005   0.000000  -0.000000
    36  H    0.000122  -0.000066  -0.000010  -0.000001  -0.000000   0.000000
    37  H    0.001531  -0.000224   0.000023  -0.000001  -0.000028   0.000040
    38  H   -0.000332  -0.000003  -0.000002  -0.000000  -0.000872   0.000147
    39  H    0.000031  -0.000000  -0.000000   0.000000  -0.000003  -0.000000
    40  H   -0.000597   0.000004   0.000006  -0.000000   0.000000  -0.000000
    41  H   -0.004326   0.000033   0.000152  -0.000009   0.000000  -0.000000
    42  H   -0.001386  -0.000960  -0.015915   0.004728   0.000000  -0.000000
              31         32         33         34         35         36
     1  C    0.432261  -0.100518  -0.025713   0.002028   0.000407  -0.000833
     2  C   -0.144211   0.182026  -0.049779  -0.004598  -0.002195  -0.014979
     3  C    0.062538  -0.120698   0.291805   0.034729  -0.016529   0.057030
     4  C    0.035022   0.106784  -0.034341   0.038656   0.023057   0.008907
     5  C    0.010394   0.026734   0.009068   0.223779   0.003147   0.010057
     6  C   -0.003951  -0.003000  -0.027856   0.022911   0.272099  -0.008236
     7  C   -0.012813   0.001999   0.012019   0.005915  -0.000448   0.222071
     8  C   -0.088053  -0.130648   0.034414  -0.009134   0.031361   0.029917
     9  C    0.006461   0.321558   0.064238  -0.005340  -0.000332   0.011621
    10  C    0.016834  -0.111895  -0.010774   0.000154   0.000213  -0.005090
    11  C    0.025784   0.007070  -0.000312   0.000054   0.000003   0.000229
    12  C   -0.002516  -0.001271   0.000638  -0.000020  -0.000006  -0.000167
    13  C    0.004662   0.038577   0.002627  -0.000311  -0.000030   0.000133
    14  C   -0.000846  -0.014378   0.009071  -0.002063  -0.000272  -0.001831
    15  C    0.000235  -0.024474  -0.000210  -0.003578   0.000802   0.001034
    16  C    0.002431   0.030252   0.036445  -0.003597   0.000120   0.000432
    17  N    0.000181   0.012663   0.000121   0.000038   0.000000   0.000003
    18  O    0.000003  -0.000287   0.000001  -0.000000  -0.000000  -0.000000
    19  O   -0.000121  -0.011034  -0.000249  -0.000002  -0.000000  -0.000000
    20  C    0.000900   0.030597   0.006135  -0.000460  -0.000058  -0.000067
    21  Cl  -0.000002  -0.001165  -0.001362   0.000001   0.000001  -0.000000
    22  C    0.000218   0.017784  -0.026496  -0.000657   0.000597  -0.000261
    23  C    0.000127   0.001621   0.013086   0.008352  -0.000505  -0.001673
    24  C    0.000969  -0.023803  -0.022999   0.000744  -0.000936   0.001318
    25  N   -0.000004   0.000992  -0.000728   0.000190  -0.000052   0.000122
    26  O   -0.000000  -0.000010   0.000142  -0.000037   0.000029  -0.000066
    27  N    0.000002   0.000289  -0.001416  -0.000338  -0.000008  -0.000010
    28  O    0.000000  -0.000001   0.000011   0.000046  -0.000005  -0.000001
    29  H   -0.029901  -0.004538  -0.000026  -0.000000   0.000000  -0.000000
    30  H   -0.027223  -0.005990   0.000019   0.000002  -0.000000   0.000000
    31  H    0.556470   0.005385   0.000012   0.000000  -0.000000   0.000003
    32  H    0.005385   0.627110   0.005516  -0.000010  -0.000000   0.000003
    33  H    0.000012   0.005516   0.616188  -0.006159  -0.000174   0.000016
    34  H    0.000000  -0.000010  -0.006159   0.584031  -0.005638  -0.000176
    35  H   -0.000000  -0.000000  -0.000174  -0.005638   0.576648  -0.005563
    36  H    0.000003   0.000003   0.000016  -0.000176  -0.005563   0.579249
    37  H   -0.000104  -0.000044  -0.000190   0.000015  -0.000168  -0.006082
    38  H   -0.001448   0.000040   0.000000  -0.000000   0.000000   0.000000
    39  H    0.000002   0.000003  -0.000000  -0.000000   0.000000  -0.000000
    40  H    0.000000   0.000000   0.000000   0.000000  -0.000000   0.000000
    41  H    0.000000  -0.000004  -0.000000  -0.000000  -0.000000  -0.000000
    42  H   -0.000000  -0.000000  -0.000000   0.000000  -0.000000   0.000000
              37         38         39         40         41         42
     1  C   -0.009508   0.017743   0.004000  -0.000532  -0.001418   0.000015
     2  C    0.084411   0.010993  -0.005281   0.000519  -0.012995   0.000067
     3  C    0.144219  -0.139761  -0.003704   0.001024  -0.000699  -0.000088
     4  C    0.158844  -0.013761   0.000074   0.000080   0.002164   0.000285
     5  C   -0.007250   0.000247   0.000069  -0.000013  -0.000137  -0.000026
     6  C   -0.003088  -0.000487  -0.000070   0.000018   0.000027   0.000113
     7  C   -0.020833   0.026203   0.000516  -0.000337  -0.000162  -0.000030
     8  C    0.002265   0.058141   0.000809  -0.000482  -0.003526   0.000120
     9  C   -0.101758  -0.018255   0.058571   0.007538  -0.046419   0.000627
    10  C    0.000359   0.282382   0.023273   0.012580   0.005486  -0.000007
    11  C    0.014689  -0.012307   0.267134   0.001426  -0.029516   0.000010
    12  C   -0.007970   0.018144  -0.032721   0.278049  -0.046388   0.000016
    13  C    0.001022  -0.029435   0.005272  -0.030407   0.387520  -0.000049
    14  C    0.023750   0.066189  -0.000856   0.019360  -0.205999   0.006308
    15  C   -0.027379   0.021143  -0.002444   0.010272   0.009388   0.033431
    16  C   -0.013482   0.005670   0.001110   0.002104   0.023489   0.092824
    17  N   -0.000015  -0.000383   0.000182  -0.000620  -0.018392   0.002896
    18  O   -0.000001   0.000015  -0.000009   0.000011   0.002251  -0.000169
    19  O   -0.000000   0.000014  -0.000007   0.000011   0.000333  -0.000179
    20  C    0.000161   0.000779  -0.000062   0.001130   0.042808  -0.053844
    21  Cl   0.000003   0.000002   0.000000   0.000001  -0.000026  -0.021395
    22  C    0.001086  -0.000159   0.000038  -0.000212  -0.003120   0.089868
    23  C    0.005568   0.000348  -0.000140   0.000771   0.037158   0.166792
    24  C    0.047494   0.001903  -0.003806   0.010696   0.159257   0.016531
    25  N    0.001531  -0.000332   0.000031  -0.000597  -0.004326  -0.001386
    26  O   -0.000224  -0.000003  -0.000000   0.000004   0.000033  -0.000960
    27  N    0.000023  -0.000002  -0.000000   0.000006   0.000152  -0.015915
    28  O   -0.000001  -0.000000   0.000000  -0.000000  -0.000009   0.004728
    29  H   -0.000028  -0.000872  -0.000003   0.000000   0.000000   0.000000
    30  H    0.000040   0.000147  -0.000000  -0.000000  -0.000000  -0.000000
    31  H   -0.000104  -0.001448   0.000002   0.000000   0.000000  -0.000000
    32  H   -0.000044   0.000040   0.000003   0.000000  -0.000004  -0.000000
    33  H   -0.000190   0.000000  -0.000000   0.000000  -0.000000  -0.000000
    34  H    0.000015  -0.000000  -0.000000   0.000000  -0.000000   0.000000
    35  H   -0.000168   0.000000   0.000000  -0.000000  -0.000000  -0.000000
    36  H   -0.006082   0.000000  -0.000000   0.000000  -0.000000   0.000000
    37  H    0.589994  -0.000573  -0.000016   0.000000   0.000001  -0.000000
    38  H   -0.000573   0.594558  -0.005612  -0.000187   0.000015   0.000000
    39  H   -0.000016  -0.005612   0.568058  -0.004808  -0.000183  -0.000000
    40  H    0.000000  -0.000187  -0.004808   0.565217  -0.005178   0.000000
    41  H    0.000001   0.000015  -0.000183  -0.005178   0.586188   0.000000
    42  H   -0.000000   0.000000  -0.000000   0.000000   0.000000   0.496727
 Mulliken charges:
               1
     1  C   -0.543318
     2  C   -0.075796
     3  C    0.754174
     4  C   -0.177271
     5  C    0.032245
     6  C   -0.105051
     7  C   -0.220056
     8  C   -0.593534
     9  C    0.240662
    10  C   -0.431903
    11  C   -0.227857
    12  C    0.061893
    13  C   -0.246201
    14  C    0.019625
    15  C    0.135489
    16  C   -0.026265
    17  N   -0.456092
    18  O    0.099892
    19  O    0.058016
    20  C    0.051023
    21  Cl   0.311266
    22  C    0.570859
    23  C   -0.218047
    24  C   -0.384294
    25  N   -0.381701
    26  O    0.423919
    27  N   -0.657286
    28  O    0.098050
    29  H    0.159942
    30  H    0.155352
    31  H    0.150299
    32  H    0.136765
    33  H    0.107211
    34  H    0.120474
    35  H    0.124435
    36  H    0.122888
    37  H    0.123240
    38  H    0.118899
    39  H    0.130579
    40  H    0.132556
    41  H    0.122228
    42  H    0.182692
 Sum of Mulliken charges =  -0.00000
 Mulliken charges with hydrogens summed into heavy atoms:
               1
     1  C   -0.077725
     2  C    0.060969
     3  C    0.754174
     4  C   -0.070060
     5  C    0.152719
     6  C    0.019384
     7  C   -0.097168
     8  C   -0.470294
     9  C    0.240662
    10  C   -0.313004
    11  C   -0.097278
    12  C    0.194449
    13  C   -0.123974
    14  C    0.019625
    15  C    0.135489
    16  C   -0.026265
    17  N   -0.456092
    18  O    0.099892
    19  O    0.058016
    20  C    0.051023
    21  Cl   0.311266
    22  C    0.753551
    23  C   -0.218047
    24  C   -0.384294
    25  N   -0.381701
    26  O    0.423919
    27  N   -0.657286
    28  O    0.098050
 Electronic spatial extent (au):  <R**2>=           9101.2549
 Charge=              0.0000 electrons
 Dipole moment (field-independent basis, Debye):
    X=              1.1458    Y=             -0.3829    Z=             -0.1998  Tot=              1.2245
 Quadrupole moment (field-independent basis, Debye-Ang):
   XX=           -160.1289   YY=           -183.1814   ZZ=           -168.2519
   XY=             -6.8657   XZ=              3.3324   YZ=            -12.9239
 Traceless Quadrupole moment (field-independent basis, Debye-Ang):
   XX=             10.3918   YY=            -12.6606   ZZ=              2.2688
   XY=             -6.8657   XZ=              3.3324   YZ=            -12.9239
 Octapole moment (field-independent basis, Debye-Ang**2):
  XXX=            -36.0543  YYY=             -1.2462  ZZZ=             14.5860  XYY=             57.9706
  XXY=             -8.6180  XXZ=              5.3937  XZZ=            -18.6031  YZZ=            -22.3376
  YYZ=            -12.8532  XYZ=              6.9666
 Hexadecapole moment (field-independent basis, Debye-Ang**3):
 XXXX=          -5184.7621 YYYY=          -4878.9191 ZZZZ=          -2254.7749 XXXY=            -53.9128
 XXXZ=            157.3986 YYYX=             93.5638 YYYZ=           -126.8051 ZZZX=             47.8362
 ZZZY=            -18.5047 XXYY=          -1635.1140 XXZZ=          -1298.3432 YYZZ=          -1137.4068
 XXYZ=             17.5506 YYXZ=             94.9091 ZZXY=            -35.2252
 N-N= 2.805858857297D+03 E-N=-9.576534316080D+03  KE= 1.682878759451D+03
 Unable to Open any file for archive entry.
 1\1\GINC-N2\SP\RB3LYP TD-FC\6-31+G(d,p)\C20H14Cl1N3O4\HPCMGAC13\21-Sep
 -2025\0\\# td=(50-50,nstates=3) b3lyp/6-31+g(d,p) geom=connectivity\\T
 itle Card Required\\0,1\C,0,-2.68386,-1.588052,2.258592\C,0,-1.743314,
 -0.88078,1.259548\C,0,-2.080706,0.61086,1.186959\C,0,-1.3872,1.519259,
 2.00032\C,0,-1.711562,2.878929,2.00136\C,0,-2.74021,3.352974,1.183424\
 C,0,-3.43879,2.457181,0.369308\C,0,-3.110962,1.099532,0.37142\C,0,-1.6
 91456,-1.548759,-0.117123\C,0,-2.736824,-2.363762,-0.575114\C,0,-2.710
 517,-2.961001,-1.83699\C,0,-1.622108,-2.758026,-2.683879\C,0,-0.567977
 ,-1.953644,-2.254349\C,0,-0.591708,-1.3557,-0.986334\C,0,0.570125,-0.4
 88677,-0.620325\C,0,1.643725,-0.897283,0.130057\N,0,1.664367,-2.297444
 ,0.622582\O,0,2.137201,-3.138827,-0.131313\O,0,1.213714,-2.500532,1.74
 5978\C,0,2.777629,-0.068806,0.471075\Cl,0,4.057194,-0.736267,1.4459\C,
 0,2.859295,1.225328,0.03196\C,0,1.783337,1.673215,-0.767646\C,0,0.6631
 89,0.862381,-1.106679\N,0,-0.188153,1.510753,-1.886842\O,0,0.345977,2.
 754331,-2.070622\N,0,1.601301,2.864153,-1.35874\O,0,2.234911,3.912132,
 -1.404758\H,0,-2.444509,-2.65339,2.339908\H,0,-2.568823,-1.135069,3.24
 7415\H,0,-3.736212,-1.483834,1.97613\H,0,-0.73895,-0.956219,1.687772\H
 ,0,-0.587995,1.157371,2.643883\H,0,-1.160461,3.565166,2.638476\H,0,-2.
 991722,4.409442,1.176819\H,0,-4.235228,2.816619,-0.276112\H,0,-3.65220
 1,0.418823,-0.279571\H,0,-3.591437,-2.542697,0.06745\H,0,-3.540646,-3.
 586207,-2.152731\H,0,-1.588022,-3.220559,-3.665259\H,0,0.288682,-1.791
 228,-2.901652\H,0,3.697551,1.868245,0.270383\\Version=ES64L-G16RevC.02
 \State=1-A\HF=-1695.7080786\RMSD=5.987e-09\PG=C01 [X(C20H14Cl1N3O4)]\\
 @
 The archive entry for this job was punched.


 It is also a good rule not to put too much confidence in
 experimental results until they have been confirmed by
 Theory.
                             -- Sir Arthur Eddington
 Job cpu time:       0 days  3 hours 57 minutes 19.7 seconds.
 Elapsed time:       0 days  0 hours 30 minutes  5.0 seconds.
 File lengths (MBytes):  RWF=   2011 Int=      0 D2E=      0 Chk=     95 Scr=      2
 Normal termination of Gaussian 16 at Sun Sep 21 23:39:33 2025.
