 Entering Gaussian System, Link 0=g16
 Input=M1644e.gjf
 Output=M1644e.log
 Initial command:
 /hpc/softwares/Gaussian/g16/l1.exe "/hpc/home/hpcmgac13/pbs.12875.admin1.x8z/Gau-2091268.inp" -scrdir="/hpc/home/hpcmgac13/pbs.12875.admin1.x8z/"
 Default linda workers: n2
 Default is to use  16 SMP processors on each worker.
 Entering Link 1 = /hpc/softwares/Gaussian/g16/l1.exe PID=   2091269.
  
 Copyright (c) 1988-2021, Gaussian, Inc.  All Rights Reserved.
  
 This is part of the Gaussian(R) 16 program.  It is based on
 the Gaussian(R) 09 system (copyright 2009, Gaussian, Inc.),
 the Gaussian(R) 03 system (copyright 2003, Gaussian, Inc.),
 the Gaussian(R) 98 system (copyright 1998, Gaussian, Inc.),
 the Gaussian(R) 94 system (copyright 1995, Gaussian, Inc.),
 the Gaussian 92(TM) system (copyright 1992, Gaussian, Inc.),
 the Gaussian 90(TM) system (copyright 1990, Gaussian, Inc.),
 the Gaussian 88(TM) system (copyright 1988, Gaussian, Inc.),
 the Gaussian 86(TM) system (copyright 1986, Carnegie Mellon
 University), and the Gaussian 82(TM) system (copyright 1983,
 Carnegie Mellon University). Gaussian is a federally registered
 trademark of Gaussian, Inc.
  
 This software contains proprietary and confidential information,
 including trade secrets, belonging to Gaussian, Inc.
  
 This software is provided under written license and may be
 used, copied, transmitted, or stored only in accord with that
 written license.
  
 The following legend is applicable only to US Government
 contracts under FAR:
  
                    RESTRICTED RIGHTS LEGEND
  
 Use, reproduction and disclosure by the US Government is
 subject to restrictions as set forth in subparagraphs (a)
 and (c) of the Commercial Computer Software - Restricted
 Rights clause in FAR 52.227-19.
  
 Gaussian, Inc.
 340 Quinnipiac St., Bldg. 40, Wallingford CT 06492
  
  
 ---------------------------------------------------------------
 Warning -- This program may not be used in any manner that
 competes with the business of Gaussian, Inc. or will provide
 assistance to any competitor of Gaussian, Inc.  The licensee
 of this program is prohibited from giving any competitor of
 Gaussian, Inc. access to this program.  By using this program,
 the user acknowledges that Gaussian, Inc. is engaged in the
 business of creating and licensing software in the field of
 computational chemistry and represents and warrants to the
 licensee that it is not a competitor of Gaussian, Inc. and that
 it will not use this program in any manner prohibited above.
 ---------------------------------------------------------------
  

 Cite this work as:
 Gaussian 16, Revision C.02,
 M. J. Frisch, G. W. Trucks, H. B. Schlegel, G. E. Scuseria, 
 M. A. Robb, J. R. Cheeseman, G. Scalmani, V. Barone, 
 G. A. Petersson, H. Nakatsuji, X. Li, M. Caricato, A. V. Marenich, 
 J. Bloino, B. G. Janesko, R. Gomperts, B. Mennucci, H. P. Hratchian, 
 J. V. Ortiz, A. F. Izmaylov, J. L. Sonnenberg, D. Williams-Young, 
 F. Ding, F. Lipparini, F. Egidi, J. Goings, B. Peng, A. Petrone, 
 T. Henderson, D. Ranasinghe, V. G. Zakrzewski, J. Gao, N. Rega, 
 G. Zheng, W. Liang, M. Hada, M. Ehara, K. Toyota, R. Fukuda, 
 J. Hasegawa, M. Ishida, T. Nakajima, Y. Honda, O. Kitao, H. Nakai, 
 T. Vreven, K. Throssell, J. A. Montgomery, Jr., J. E. Peralta, 
 F. Ogliaro, M. J. Bearpark, J. J. Heyd, E. N. Brothers, K. N. Kudin, 
 V. N. Staroverov, T. A. Keith, R. Kobayashi, J. Normand, 
 K. Raghavachari, A. P. Rendell, J. C. Burant, S. S. Iyengar, 
 J. Tomasi, M. Cossi, J. M. Millam, M. Klene, C. Adamo, R. Cammi, 
 J. W. Ochterski, R. L. Martin, K. Morokuma, O. Farkas, 
 J. B. Foresman, and D. J. Fox, Gaussian, Inc., Wallingford CT, 2019.
 
 ******************************************
 Gaussian 16:  ES64L-G16RevC.02  7-Dec-2021
                 6-Aug-2025 
 ******************************************
 SetLPE:    new flags="-opt 'Tsnet.Node.lindarsharg: ssh'  -nodelist 'n2.head.cm.mguif.local' -env GAUSS_MDEF=4294967296 -env GAUSS_EXEDIR="/hpc/softwares/Gaussian/g16/bsd:/hpc/softwares/Gaussian/g16""
 Will use up to    1 processors via Linda.
 ----------------------------------------------------------
 # td=(50-50,nstates=3) b3lyp/6-31+g(d,p) geom=connectivity
 ----------------------------------------------------------
 1/38=1,57=2,172=1/1;
 2/12=2,17=6,18=5,40=1/2;
 3/5=1,6=6,7=111,11=9,25=1,30=1,74=-5/1,2,3,8;
 4//1;
 5/5=2,38=5/2;
 8/6=1,10=2,108=3/1;
 9/41=3,42=1,48=2,70=2/14;
 6/7=2,8=2,9=2,10=2/1;
 99/5=1,9=1/99;
 -------------------
 Title Card Required
 -------------------
 Symbolic Z-matrix:
 Charge =  0 Multiplicity = 1
 C                    -1.33442   1.90503  -2.13283 
 C                    -1.27067   2.35361  -0.71067 
 N                    -1.5491    1.61939   0.33322 
 O                    -1.49256   2.04094   1.5571 
 C                    -1.9647    0.22357   0.21305 
 C                    -3.33446  -0.03317   0.25076 
 C                    -3.79602  -1.34665   0.18351 
 C                    -2.87662  -2.39465   0.08735 
 C                    -1.50936  -2.12446   0.06199 
 C                    -1.01295  -0.8085    0.12841 
 C                     0.45723  -0.57456   0.10359 
 C                     1.25829  -1.27072  -0.82097 
 C                     2.63988  -1.10773  -0.8423 
 C                     3.254    -0.23567   0.07282 
 C                     4.67824  -0.06229   0.05626 
 N                     5.83381   0.07758   0.03944 
 C                     2.46421   0.46613   0.99974 
 C                     1.08229   0.29828   1.01398 
 H                    -1.96811   2.58672  -2.71348 
 H                    -0.3364    1.93314  -2.58898 
 H                    -1.73107   0.89406  -2.23792 
 H                    -0.97212   3.36722  -0.46177 
 H                    -4.02348   0.80075   0.3367 
 H                    -4.86212  -1.54863   0.21159 
 H                    -3.2223   -3.42299   0.04507 
 H                    -0.80181  -2.94661   0.01801 
 H                     0.79194  -1.93464  -1.54249 
 H                     3.24545  -1.64523  -1.56443 
 H                     2.93719   1.13684   1.7094 
 H                     0.48056   0.84369   1.73469 
 
                          Input orientation:                          
 ---------------------------------------------------------------------
 Center     Atomic      Atomic             Coordinates (Angstroms)
 Number     Number       Type             X           Y           Z
 ---------------------------------------------------------------------
      1          6           0       -1.334415    1.905031   -2.132834
      2          6           0       -1.270669    2.353607   -0.710666
      3          7           0       -1.549101    1.619392    0.333220
      4          8           0       -1.492558    2.040939    1.557100
      5          6           0       -1.964698    0.223574    0.213054
      6          6           0       -3.334456   -0.033169    0.250764
      7          6           0       -3.796017   -1.346652    0.183508
      8          6           0       -2.876615   -2.394645    0.087353
      9          6           0       -1.509356   -2.124464    0.061985
     10          6           0       -1.012946   -0.808504    0.128410
     11          6           0        0.457230   -0.574559    0.103592
     12          6           0        1.258289   -1.270715   -0.820966
     13          6           0        2.639877   -1.107732   -0.842303
     14          6           0        3.253999   -0.235671    0.072821
     15          6           0        4.678237   -0.062287    0.056264
     16          7           0        5.833811    0.077577    0.039436
     17          6           0        2.464211    0.466133    0.999736
     18          6           0        1.082290    0.298283    1.013985
     19          1           0       -1.968109    2.586720   -2.713478
     20          1           0       -0.336399    1.933137   -2.588979
     21          1           0       -1.731068    0.894061   -2.237922
     22          1           0       -0.972123    3.367218   -0.461770
     23          1           0       -4.023479    0.800750    0.336697
     24          1           0       -4.862121   -1.548632    0.211593
     25          1           0       -3.222300   -3.422992    0.045069
     26          1           0       -0.801806   -2.946608    0.018009
     27          1           0        0.791937   -1.934641   -1.542492
     28          1           0        3.245453   -1.645225   -1.564428
     29          1           0        2.937186    1.136844    1.709395
     30          1           0        0.480560    0.843687    1.734692
 ---------------------------------------------------------------------
                    Distance matrix (angstroms):
                    1          2          3          4          5
     1  C    0.000000
     2  C    1.492597   0.000000
     3  N    2.491807   1.306252   0.000000
     4  O    3.695821   2.299948   1.295678   0.000000
     5  C    2.954276   2.423216   1.461324   2.309154   0.000000
     6  C    3.665832   3.298525   2.434184   3.066109   1.394122
     7  C    4.690242   4.568243   3.724038   4.320700   2.412512
     8  C    5.078861   5.075608   4.235001   4.873415   2.775331
     9  C    4.591804   4.550503   3.753879   4.425634   2.396548
    10  C    3.546807   3.281679   2.494812   3.223431   1.406478
    11  C    3.789454   3.496113   2.981864   3.571441   2.552398
    12  C    4.304471   4.420804   4.191217   4.918273   3.699965
    13  C    5.151428   5.224037   5.134841   5.722612   4.907980
    14  C    5.522777   5.271701   5.155467   5.469538   5.240741
    15  C    6.694361   6.466391   6.456352   6.689901   6.650931
    16  N    7.709851   7.497773   7.547906   7.735230   7.801808
    17  C    5.129618   4.520770   4.228584   4.294961   4.504768
    18  C    4.280721   3.568640   3.022083   3.156211   3.151382
    19  H    1.097003   2.133546   3.223920   4.331497   3.761524
    20  H    1.097677   2.139560   3.179360   4.305612   3.664062
    21  H    1.091072   2.162118   2.677683   3.971701   2.551748
    22  H    2.249822   1.085581   2.004946   2.470972   3.364980
    23  H    3.814326   3.329609   2.606287   3.071321   2.141728
    24  H    5.465239   5.382988   4.585550   5.103858   3.396436
    25  H    6.057656   6.144029   5.320551   5.927292   3.860988
    26  H    5.333685   5.370575   4.637474   5.265127   3.382368
    27  H    4.428652   4.830668   4.650796   5.534584   3.916487
    28  H    5.822593   6.092202   6.102994   6.766128   5.813564
    29  H    5.796500   5.004323   4.717360   4.523628   5.205916
    30  H    4.402084   3.365477   2.585607   2.314767   2.946050
                    6          7          8          9         10
     6  C    0.000000
     7  C    1.393843   0.000000
     8  C    2.410994   1.397439   0.000000
     9  C    2.782111   2.418383   1.393929   0.000000
    10  C    2.450617   2.835158   2.447609   1.408043   0.000000
    11  C    3.832968   4.323497   3.798355   2.504276   1.488880
    12  C    4.875801   5.153712   4.380148   3.027928   2.504688
    13  C    6.167831   6.521511   5.740391   4.366648   3.791429
    14  C    6.593968   7.137875   6.499678   5.124179   4.305583
    15  C    8.015106   8.571976   7.906747   6.522186   5.740349
    16  N    9.171371   9.735644   9.054595   7.666263   6.904429
    17  C    5.868117   6.568323   6.127064   4.835267   3.804541
    18  C    4.494442   5.214727   4.876827   3.673232   2.529671
    19  H    4.185386   5.215860   5.786539   5.487158   4.529482
    20  H    4.573712   5.514767   5.687279   4.986739   3.918994
    21  H    3.102284   3.892060   4.187454   3.801345   3.002325
    22  H    4.201304   5.532751   6.093250   5.542699   4.217420
    23  H    1.085153   2.164842   3.404118   3.866931   3.419999
    24  H    2.152190   1.085432   2.161807   3.405143   3.920568
    25  H    3.397910   2.158589   1.085718   2.149567   3.423994
    26  H    3.867379   3.398904   2.148093   1.085579   2.151338
    27  H    4.884515   4.937016   4.040578   2.811819   2.705125
    28  H    7.013476   7.261317   6.385118   5.048079   4.658301
    29  H    6.544465   7.337037   6.993048   5.755156   4.678401
    30  H    4.186319   5.049046   4.946832   3.945584   2.745986
                   11         12         13         14         15
    11  C    0.000000
    12  C    1.407528   0.000000
    13  C    2.437814   1.391332   0.000000
    14  C    2.817394   2.419304   1.405378   0.000000
    15  C    4.252242   3.731739   2.460750   1.434848   0.000000
    16  N    5.416366   4.847018   3.519039   2.598975   1.164129
    17  C    2.431890   2.790313   2.429201   1.405512   2.463996
    18  C    1.407611   2.420697   2.801564   2.426359   3.738726
    19  H    4.879737   5.373179   6.195467   6.557421   7.672198
    20  H    3.764084   3.991687   4.599563   4.967883   6.010458
    21  H    3.525362   3.953514   5.006005   5.609521   6.874379
    22  H    4.230873   5.158893   5.763378   5.579131   6.629965
    23  H    4.692821   5.790356   7.030836   7.355643   8.748905
    24  H    5.408880   6.213118   7.588482   8.222805   9.656696
    25  H    4.653594   5.045591   6.364981   7.218188   8.585625
    26  H    2.686841   2.785047   3.995846   4.878702   6.192870
    27  H    2.161352   1.085763   2.142178   3.399630   4.600550
    28  H    3.420936   2.154487   1.084936   2.160440   2.680523
    29  H    3.414335   3.875276   3.411404   2.159292   2.683657
    30  H    2.161586   3.406897   3.887363   3.408635   4.610683
                   16         17         18         19         20
    16  N    0.000000
    17  C    3.525246   0.000000
    18  C    4.855451   1.392150   0.000000
    19  H    8.645478   6.158759   5.332528   0.000000
    20  H    6.958675   4.782718   4.203186   1.762143   0.000000
    21  H    7.942317   5.316570   4.341064   1.774102   1.774266
    22  H    7.575862   4.728709   3.977038   2.582896   2.643057
    23  H    9.888251   6.530062   5.174946   4.088741   4.841120
    24  H   10.820220   7.639083   6.276221   5.833737   6.359880
    25  H    9.709128   6.955077   5.772017   6.730469   6.629838
    26  H    7.292295   4.824672   3.882152   6.280048   5.552018
    27  H    5.654380   3.875969   3.406733   5.425105   4.162689
    28  H    3.498575   3.412200   3.886478   6.812555   5.165660
    29  H    3.507313   1.084977   2.151144   6.762090   5.461361
    30  H    5.667285   2.148855   1.085801   5.368460   4.533040
                   21         22         23         24         25
    21  H    0.000000
    22  H    3.138028   0.000000
    23  H    3.448553   4.066335   0.000000
    24  H    4.665872   6.304846   2.497712   0.000000
    25  H    5.106150   7.171271   4.308936   2.495990   0.000000
    26  H    4.550109   6.334319   4.952114   4.298601   2.467076
    27  H    3.853665   5.691184   5.848243   5.932469   4.566140
    28  H    5.627373   6.642920   7.901547   8.300382   6.898026
    29  H    6.118239   4.997121   7.102684   8.383578   7.842280
    30  H    4.547032   3.647320   4.716206   6.048740   5.896656
                   26         27         28         29         30
    26  H    0.000000
    27  H    2.449338   0.000000
    28  H    4.536299   2.470624   0.000000
    29  H    5.789251   4.960936   4.307302   0.000000
    30  H    4.354055   4.307667   4.972274   2.474185   0.000000
 Stoichiometry    C15H12N2O
 Framework group  C1[X(C15H12N2O)]
 Deg. of freedom    84
 Full point group                 C1      NOp   1
 Largest Abelian subgroup         C1      NOp   1
 Largest concise Abelian subgroup C1      NOp   1
                         Standard orientation:                         
 ---------------------------------------------------------------------
 Center     Atomic      Atomic             Coordinates (Angstroms)
 Number     Number       Type             X           Y           Z
 ---------------------------------------------------------------------
      1          6           0        1.334415    1.905031    2.132834
      2          6           0        1.270669    2.353607    0.710666
      3          7           0        1.549101    1.619392   -0.333220
      4          8           0        1.492558    2.040939   -1.557100
      5          6           0        1.964698    0.223574   -0.213054
      6          6           0        3.334456   -0.033169   -0.250764
      7          6           0        3.796017   -1.346652   -0.183508
      8          6           0        2.876615   -2.394645   -0.087353
      9          6           0        1.509356   -2.124464   -0.061985
     10          6           0        1.012946   -0.808504   -0.128410
     11          6           0       -0.457230   -0.574559   -0.103592
     12          6           0       -1.258289   -1.270715    0.820966
     13          6           0       -2.639877   -1.107732    0.842303
     14          6           0       -3.253999   -0.235671   -0.072821
     15          6           0       -4.678237   -0.062287   -0.056264
     16          7           0       -5.833811    0.077577   -0.039436
     17          6           0       -2.464211    0.466133   -0.999736
     18          6           0       -1.082290    0.298283   -1.013985
     19          1           0        1.968109    2.586720    2.713478
     20          1           0        0.336399    1.933137    2.588979
     21          1           0        1.731068    0.894061    2.237922
     22          1           0        0.972123    3.367218    0.461770
     23          1           0        4.023479    0.800750   -0.336697
     24          1           0        4.862121   -1.548632   -0.211593
     25          1           0        3.222300   -3.422992   -0.045069
     26          1           0        0.801806   -2.946608   -0.018009
     27          1           0       -0.791937   -1.934641    1.542492
     28          1           0       -3.245453   -1.645225    1.564428
     29          1           0       -2.937186    1.136844   -1.709395
     30          1           0       -0.480560    0.843687   -1.734692
 ---------------------------------------------------------------------
 Rotational constants (GHZ):           0.7916667           0.2641580           0.2293994
 Standard basis: 6-31+G(d,p) (6D, 7F)
 There are   402 symmetry adapted cartesian basis functions of A   symmetry.
 There are   402 symmetry adapted basis functions of A   symmetry.
   402 basis functions,   660 primitive gaussians,   402 cartesian basis functions
    62 alpha electrons       62 beta electrons
       nuclear repulsion energy      1187.2739609483 Hartrees.
 NAtoms=   30 NActive=   30 NUniq=   30 SFac= 1.00D+00 NAtFMM=   60 NAOKFM=F Big=F
 Integral buffers will be    131072 words long.
 Regular integral format.
 Two-electron integral symmetry is turned on.
 One-electron integrals computed using PRISM.
 NBasis=   402 RedAO= T EigKep=  1.19D-06  NBF=   402
 NBsUse=   400 1.00D-06 EigRej=  7.67D-07 NBFU=   400
 ExpMin= 4.38D-02 ExpMax= 5.48D+03 ExpMxC= 8.25D+02 IAcc=3 IRadAn=         5 AccDes= 0.00D+00
 Harris functional with IExCor=  402 and IRadAn=       5 diagonalized for initial guess.
 HarFok:  IExCor=  402 AccDes= 0.00D+00 IRadAn=         5 IDoV= 1 UseB2=F ITyADJ=14
 ICtDFT=  3500011 ScaDFX=  1.000000  1.000000  1.000000  1.000000
 FoFCou: FMM=F IPFlag=           0 FMFlag=      100000 FMFlg1=           0
         NFxFlg=           0 DoJE=T BraDBF=F KetDBF=T FulRan=T
         wScrn=  0.000000 ICntrl=       500 IOpCl=  0 I1Cent=   200000004 NGrid=           0
         NMat0=    1 NMatS0=      1 NMatT0=    0 NMatD0=    1 NMtDS0=    0 NMtDT0=    0
 Petite list used in FoFCou.
 Requested convergence on RMS density matrix=1.00D-08 within 128 cycles.
 Requested convergence on MAX density matrix=1.00D-06.
 Requested convergence on             energy=1.00D-06.
 No special actions if energy rises.
 SCF Done:  E(RB3LYP) =  -763.511584315     A.U. after   17 cycles
            NFock= 17  Conv=0.80D-08     -V/T= 2.0097
 DoSCS=F DFT=T ScalE2(SS,OS)=  1.000000  1.000000
 ExpMin= 4.38D-02 ExpMax= 5.48D+03 ExpMxC= 8.25D+02 IAcc=3 IRadAn=         5 AccDes= 0.00D+00
 HarFok:  IExCor=  205 AccDes= 0.00D+00 IRadAn=         5 IDoV=-2 UseB2=F ITyADJ=14
 ICtDFT= 12500011 ScaDFX=  1.000000  1.000000  1.000000  1.000000
 Range of M.O.s used for correlation:    19   400
 NBasis=   402 NAE=    62 NBE=    62 NFC=    18 NFV=     0
 NROrb=    382 NOA=    44 NOB=    44 NVA=   338 NVB=   338

 **** Warning!!: The largest alpha MO coefficient is  0.15040431D+03

 Orbital symmetries:
       Occupied  (A) (A) (A) (A) (A) (A) (A) (A) (A) (A) (A) (A)
                 (A) (A) (A) (A) (A) (A) (A) (A) (A) (A) (A) (A)
                 (A) (A) (A) (A) (A) (A) (A) (A) (A) (A) (A) (A)
                 (A) (A) (A) (A) (A) (A) (A) (A) (A) (A) (A) (A)
                 (A) (A) (A) (A) (A) (A) (A) (A) (A) (A) (A) (A)
                 (A) (A)
       Virtual   (A) (A) (A) (A) (A) (A) (A) (A) (A) (A) (A) (A)
                 (A) (A) (A) (A) (A) (A) (A) (A) (A) (A) (A) (A)
                 (A) (A) (A) (A) (A) (A) (A) (A) (A) (A) (A) (A)
                 (A) (A) (A) (A) (A) (A) (A) (A) (A) (A) (A) (A)
                 (A) (A) (A) (A) (A) (A) (A) (A) (A) (A) (A) (A)
                 (A) (A) (A) (A) (A) (A) (A) (A) (A) (A) (A) (A)
                 (A) (A) (A) (A) (A) (A) (A) (A) (A) (A) (A) (A)
                 (A) (A) (A) (A) (A) (A) (A) (A) (A) (A) (A) (A)
                 (A) (A) (A) (A) (A) (A) (A) (A) (A) (A) (A) (A)
                 (A) (A) (A) (A) (A) (A) (A) (A) (A) (A) (A) (A)
                 (A) (A) (A) (A) (A) (A) (A) (A) (A) (A) (A) (A)
                 (A) (A) (A) (A) (A) (A) (A) (A) (A) (A) (A) (A)
                 (A) (A) (A) (A) (A) (A) (A) (A) (A) (A) (A) (A)
                 (A) (A) (A) (A) (A) (A) (A) (A) (A) (A) (A) (A)
                 (A) (A) (A) (A) (A) (A) (A) (A) (A) (A) (A) (A)
                 (A) (A) (A) (A) (A) (A) (A) (A) (A) (A) (A) (A)
                 (A) (A) (A) (A) (A) (A) (A) (A) (A) (A) (A) (A)
                 (A) (A) (A) (A) (A) (A) (A) (A) (A) (A) (A) (A)
                 (A) (A) (A) (A) (A) (A) (A) (A) (A) (A) (A) (A)
                 (A) (A) (A) (A) (A) (A) (A) (A) (A) (A) (A) (A)
                 (A) (A) (A) (A) (A) (A) (A) (A) (A) (A) (A) (A)
                 (A) (A) (A) (A) (A) (A) (A) (A) (A) (A) (A) (A)
                 (A) (A) (A) (A) (A) (A) (A) (A) (A) (A) (A) (A)
                 (A) (A) (A) (A) (A) (A) (A) (A) (A) (A) (A) (A)
                 (A) (A) (A) (A) (A) (A) (A) (A) (A) (A) (A) (A)
                 (A) (A) (A) (A) (A) (A) (A) (A) (A) (A) (A) (A)
                 (A) (A) (A) (A) (A) (A) (A) (A) (A) (A) (A) (A)
                 (A) (A) (A) (A) (A) (A) (A) (A) (A) (A) (A) (A)
                 (A) (A)
    24 initial guesses have been made.
 Convergence on wavefunction:    0.001000000000000
 Iteration     1 Dimension    24 NMult     0 NNew     24
 CISAX will form    24 AO SS matrices at one time.
 New state      1 was old state      6
 New state      3 was old state      1
 New state      5 was old state     14
 New state      6 was old state      8
 New state      7 was old state      3
 New state      8 was old state     13
 New state      9 was old state     18
 New state     11 was old state      9
 Vector   5 SDiff=1.22D+00 TDiff=7.34D+00 assumed to be singlet.
 Vector   6 SDiff=5.81D+00 TDiff=2.83D+00 assumed to be triplet.
 Vector  11 SDiff=1.22D+00 TDiff=6.77D+00 assumed to be singlet.
 Vector  12 SDiff=5.77D+00 TDiff=2.53D+00 assumed to be triplet.
 Iteration     2 Dimension    36 NMult    24 NNew     12
 New state      2 was old state      4
 New state      3 was old state      2
 New state      4 was old state      3
 New state      5 was old state      7
 New state      6 was old state      8
 Iteration     3 Dimension    48 NMult    36 NNew     12
 Iteration     4 Dimension    60 NMult    48 NNew     12
 Iteration     5 Dimension    72 NMult    60 NNew     12
 Iteration     6 Dimension    80 NMult    72 NNew      8
 Iteration     7 Dimension    84 NMult    80 NNew      4
 ***********************************************************************
 Excited states from <AA,BB:AA,BB> singles matrix:
 ***********************************************************************
 
 Ground to excited state transition densities written to RWF  633
 Ground to excited state transition electric dipole moments (Au):
       state          X           Y           Z        Dip. S.      Osc.
         1         0.0000     -0.0000     -0.0000      0.0000      0.0000
         2         0.0000      0.0000     -0.0000      0.0000      0.0000
         3        -0.0000     -0.0000      0.0000      0.0000      0.0000
         4         0.0728      0.1808      0.0471      0.0402      0.0035
         5        -0.7110     -0.3260     -0.1070      0.6233      0.0622
         6        -0.2306      0.0017      0.0063      0.0532      0.0054
 Ground to excited state transition velocity dipole moments (Au):
       state          X           Y           Z        Dip. S.      Osc.
         1        -0.0000     -0.0000     -0.0000      0.0000      0.0000
         2         0.0000     -0.0000      0.0000      0.0000      0.0000
         3         0.0000      0.0000     -0.0000      0.0000      0.0000
         4        -0.0073     -0.0168     -0.0087      0.0004      0.0021
         5         0.1035      0.0477      0.0138      0.0132      0.0587
         6         0.0400      0.0014     -0.0007      0.0016      0.0070
 Ground to excited state transition magnetic dipole moments (Au):
       state          X           Y           Z
         1        -0.0000      0.0000     -0.0000
         2         0.0000     -0.0000     -0.0000
         3        -0.0000      0.0000      0.0000
         4        -0.0313      0.0210      0.0136
         5         0.0260     -0.0229      0.3402
         6         0.0294     -0.1904      0.7856
 Ground to excited state transition velocity quadrupole moments (Au):
       state          XX          YY          ZZ          XY          XZ          YZ
         1         0.0000     -0.0000      0.0000     -0.0000     -0.0000     -0.0000
         2        -0.0000     -0.0000     -0.0000     -0.0000      0.0000      0.0000
         3         0.0000     -0.0000     -0.0000      0.0000     -0.0000     -0.0000
         4         0.1776     -0.0474     -0.0087     -0.0594     -0.0147     -0.0223
         5        -0.4057      0.1486      0.0593      0.0983      0.0213      0.0869
         6        -0.0075     -0.0056     -0.0026     -0.0745     -0.0180     -0.0078
 <0|del|b> * <b|rxdel|0> + <0|del|b> * <b|delr+rdel|0>
 Rotatory Strengths (R) in cgs (10**-40 erg-esu-cm/Gauss)
       state          XX          YY          ZZ    R(velocity)    E-M Angle
         1        -0.0000      0.0000     -0.0000     -0.0000       90.00
         2         0.0000      0.0000      0.0000      0.0000       90.00
         3         0.0000     -0.0000      0.0000     -0.0000       90.00
         4        -0.5407     -0.6560     -0.1093     -0.4353      107.35
         5         9.3518     35.5124    -15.0559      9.9361       80.75
         6        -1.7889      0.5177      2.7565      0.4951       89.43
 1/2[<0|r|b>*<b|rxdel|0> + (<0|rxdel|b>*<b|r|0>)*]
 Rotatory Strengths (R) in cgs (10**-40 erg-esu-cm/Gauss)
       state          XX          YY          ZZ     R(length)
         1         0.0000      0.0000     -0.0000      0.0000
         2        -0.0000      0.0000     -0.0000     -0.0000
         3        -0.0000      0.0000     -0.0000     -0.0000
         4         1.6111     -2.6869     -0.4545     -0.5101
         5        13.0884     -5.2700     25.7412     11.1865
         6         4.7871      0.2303     -3.5170      0.5001
  1/2[<0|del|b>*<b|r|0> + (<0|r|b>*<b|del|0>)*] (Au)
       state          X           Y           Z        Dip. S.   Osc.(frdel)
         1        -0.0000      0.0000      0.0000     -0.0000     -0.0000
         2         0.0000     -0.0000     -0.0000     -0.0000     -0.0000
         3        -0.0000     -0.0000     -0.0000      0.0000      0.0000
         4        -0.0005     -0.0030     -0.0004      0.0040      0.0027
         5        -0.0736     -0.0156     -0.0015      0.0906      0.0604
         6        -0.0092      0.0000     -0.0000      0.0092      0.0062

 Excitation energies and oscillator strengths:
 
 Excited State   1:      Triplet-A      2.2648 eV  547.45 nm  f=0.0000  <S**2>=2.000
      62 -> 64         0.59492
      62 -> 65        -0.36289
      62 -> 66         0.16439
      62 <- 64         0.14533
 This state for optimization and/or second-order correction.
 Total Energy, E(TD-HF/TD-DFT) =  -763.428355825    
 Copying the excited state density for this state as the 1-particle RhoCI density.
 
 Excited State   2:      Triplet-A      3.0990 eV  400.08 nm  f=0.0000  <S**2>=2.000
      57 -> 67        -0.15961
      59 -> 65        -0.12176
      59 -> 66        -0.14586
      60 -> 63         0.47819
      61 -> 63         0.40465
 
 Excited State   3:      Triplet-A      3.5154 eV  352.69 nm  f=0.0000  <S**2>=2.000
      62 -> 63         0.66306
 
 Excited State   4:      Singlet-A      3.5716 eV  347.14 nm  f=0.0035  <S**2>=0.000
      62 -> 63         0.70184
 
 Excited State   5:      Singlet-A      4.0748 eV  304.27 nm  f=0.0622  <S**2>=0.000
      60 -> 63        -0.14978
      61 -> 63         0.64566
      61 -> 64        -0.14147
      62 -> 64         0.13072
 
 Excited State   6:      Singlet-A      4.1569 eV  298.26 nm  f=0.0054  <S**2>=0.000
      60 -> 64        -0.16669
      60 -> 65         0.11388
      61 -> 63         0.18614
      61 -> 64         0.55610
      61 -> 65        -0.27393
      61 -> 66         0.11123
 SavETr:  write IOETrn=   770 NScale= 10 NData=  16 NLR=1 NState=    6 LETran=     118.

 **********************************************************************

            Population analysis using the SCF Density.

 **********************************************************************

 Orbital symmetries:
       Occupied  (A) (A) (A) (A) (A) (A) (A) (A) (A) (A) (A) (A)
                 (A) (A) (A) (A) (A) (A) (A) (A) (A) (A) (A) (A)
                 (A) (A) (A) (A) (A) (A) (A) (A) (A) (A) (A) (A)
                 (A) (A) (A) (A) (A) (A) (A) (A) (A) (A) (A) (A)
                 (A) (A) (A) (A) (A) (A) (A) (A) (A) (A) (A) (A)
                 (A) (A)
       Virtual   (A) (A) (A) (A) (A) (A) (A) (A) (A) (A) (A) (A)
                 (A) (A) (A) (A) (A) (A) (A) (A) (A) (A) (A) (A)
                 (A) (A) (A) (A) (A) (A) (A) (A) (A) (A) (A) (A)
                 (A) (A) (A) (A) (A) (A) (A) (A) (A) (A) (A) (A)
                 (A) (A) (A) (A) (A) (A) (A) (A) (A) (A) (A) (A)
                 (A) (A) (A) (A) (A) (A) (A) (A) (A) (A) (A) (A)
                 (A) (A) (A) (A) (A) (A) (A) (A) (A) (A) (A) (A)
                 (A) (A) (A) (A) (A) (A) (A) (A) (A) (A) (A) (A)
                 (A) (A) (A) (A) (A) (A) (A) (A) (A) (A) (A) (A)
                 (A) (A) (A) (A) (A) (A) (A) (A) (A) (A) (A) (A)
                 (A) (A) (A) (A) (A) (A) (A) (A) (A) (A) (A) (A)
                 (A) (A) (A) (A) (A) (A) (A) (A) (A) (A) (A) (A)
                 (A) (A) (A) (A) (A) (A) (A) (A) (A) (A) (A) (A)
                 (A) (A) (A) (A) (A) (A) (A) (A) (A) (A) (A) (A)
                 (A) (A) (A) (A) (A) (A) (A) (A) (A) (A) (A) (A)
                 (A) (A) (A) (A) (A) (A) (A) (A) (A) (A) (A) (A)
                 (A) (A) (A) (A) (A) (A) (A) (A) (A) (A) (A) (A)
                 (A) (A) (A) (A) (A) (A) (A) (A) (A) (A) (A) (A)
                 (A) (A) (A) (A) (A) (A) (A) (A) (A) (A) (A) (A)
                 (A) (A) (A) (A) (A) (A) (A) (A) (A) (A) (A) (A)
                 (A) (A) (A) (A) (A) (A) (A) (A) (A) (A) (A) (A)
                 (A) (A) (A) (A) (A) (A) (A) (A) (A) (A) (A) (A)
                 (A) (A) (A) (A) (A) (A) (A) (A) (A) (A) (A) (A)
                 (A) (A) (A) (A) (A) (A) (A) (A) (A) (A) (A) (A)
                 (A) (A) (A) (A) (A) (A) (A) (A) (A) (A) (A) (A)
                 (A) (A) (A) (A) (A) (A) (A) (A) (A) (A) (A) (A)
                 (A) (A) (A) (A) (A) (A) (A) (A) (A) (A) (A) (A)
                 (A) (A) (A) (A) (A) (A) (A) (A) (A) (A) (A) (A)
                 (A) (A)
 The electronic state is 1-A.
 Alpha  occ. eigenvalues --  -19.13546 -14.48772 -14.34882 -10.26242 -10.25394
 Alpha  occ. eigenvalues --  -10.25155 -10.24035 -10.23985 -10.23798 -10.23078
 Alpha  occ. eigenvalues --  -10.22760 -10.22571 -10.22524 -10.22428 -10.22365
 Alpha  occ. eigenvalues --  -10.22263 -10.21940 -10.21698  -1.10938  -0.91900
 Alpha  occ. eigenvalues --   -0.90798  -0.88709  -0.87072  -0.81800  -0.79289
 Alpha  occ. eigenvalues --   -0.77933  -0.76667  -0.74286  -0.68424  -0.66543
 Alpha  occ. eigenvalues --   -0.64359  -0.62651  -0.59099  -0.57281  -0.54213
 Alpha  occ. eigenvalues --   -0.52185  -0.51311  -0.50227  -0.48835  -0.48572
 Alpha  occ. eigenvalues --   -0.46616  -0.46268  -0.45455  -0.44935  -0.42829
 Alpha  occ. eigenvalues --   -0.42267  -0.41747  -0.41382  -0.40847  -0.39773
 Alpha  occ. eigenvalues --   -0.38857  -0.37810  -0.37247  -0.36600  -0.35741
 Alpha  occ. eigenvalues --   -0.34041  -0.29985  -0.29319  -0.28533  -0.26340
 Alpha  occ. eigenvalues --   -0.25066  -0.23388
 Alpha virt. eigenvalues --   -0.07748  -0.04832  -0.03999  -0.03983  -0.02904
 Alpha virt. eigenvalues --   -0.01230   0.00119   0.00297   0.01317   0.01992
 Alpha virt. eigenvalues --    0.02065   0.02760   0.03069   0.03645   0.03795
 Alpha virt. eigenvalues --    0.04557   0.05068   0.05171   0.05808   0.06096
 Alpha virt. eigenvalues --    0.06739   0.07149   0.07637   0.08167   0.08898
 Alpha virt. eigenvalues --    0.08976   0.09605   0.09910   0.10199   0.10390
 Alpha virt. eigenvalues --    0.10848   0.11442   0.11735   0.12239   0.12673
 Alpha virt. eigenvalues --    0.12876   0.13171   0.13940   0.14116   0.14927
 Alpha virt. eigenvalues --    0.15247   0.15794   0.16275   0.16497   0.16920
 Alpha virt. eigenvalues --    0.17155   0.17492   0.17863   0.18285   0.18836
 Alpha virt. eigenvalues --    0.19136   0.19502   0.19547   0.20000   0.20317
 Alpha virt. eigenvalues --    0.21052   0.21150   0.21648   0.22003   0.22093
 Alpha virt. eigenvalues --    0.22244   0.23223   0.24022   0.24083   0.24563
 Alpha virt. eigenvalues --    0.24740   0.25172   0.25230   0.25637   0.25844
 Alpha virt. eigenvalues --    0.26270   0.26473   0.26847   0.27169   0.27432
 Alpha virt. eigenvalues --    0.27574   0.27904   0.28969   0.29250   0.29525
 Alpha virt. eigenvalues --    0.29759   0.30076   0.30669   0.30845   0.31187
 Alpha virt. eigenvalues --    0.31848   0.31951   0.32893   0.33114   0.33573
 Alpha virt. eigenvalues --    0.34552   0.34897   0.35970   0.36677   0.37434
 Alpha virt. eigenvalues --    0.37883   0.38827   0.40045   0.40969   0.41727
 Alpha virt. eigenvalues --    0.43488   0.44184   0.46000   0.46906   0.53397
 Alpha virt. eigenvalues --    0.54456   0.57188   0.58124   0.59961   0.63320
 Alpha virt. eigenvalues --    0.64686   0.65710   0.66095   0.67456   0.68630
 Alpha virt. eigenvalues --    0.69319   0.70099   0.70599   0.71276   0.71639
 Alpha virt. eigenvalues --    0.72568   0.73131   0.73376   0.73605   0.74545
 Alpha virt. eigenvalues --    0.75814   0.76365   0.76813   0.77202   0.77931
 Alpha virt. eigenvalues --    0.78880   0.79344   0.80193   0.82113   0.82536
 Alpha virt. eigenvalues --    0.83112   0.84149   0.85653   0.86699   0.87920
 Alpha virt. eigenvalues --    0.88111   0.88344   0.89002   0.90117   0.91729
 Alpha virt. eigenvalues --    0.92122   0.92447   0.94353   0.95579   0.97738
 Alpha virt. eigenvalues --    0.97972   0.98753   1.00536   1.00706   1.01069
 Alpha virt. eigenvalues --    1.01686   1.02775   1.03203   1.04779   1.04922
 Alpha virt. eigenvalues --    1.06219   1.08431   1.09132   1.10732   1.11445
 Alpha virt. eigenvalues --    1.12104   1.14154   1.15043   1.15906   1.17879
 Alpha virt. eigenvalues --    1.18752   1.20093   1.21011   1.22609   1.24025
 Alpha virt. eigenvalues --    1.24531   1.25179   1.27948   1.28721   1.29625
 Alpha virt. eigenvalues --    1.31179   1.31982   1.34622   1.35739   1.36045
 Alpha virt. eigenvalues --    1.36690   1.37042   1.37423   1.38086   1.38506
 Alpha virt. eigenvalues --    1.39492   1.40413   1.40777   1.42009   1.44018
 Alpha virt. eigenvalues --    1.44932   1.46266   1.47240   1.49596   1.50696
 Alpha virt. eigenvalues --    1.52638   1.55391   1.57016   1.60840   1.63919
 Alpha virt. eigenvalues --    1.68808   1.71162   1.74693   1.75650   1.77140
 Alpha virt. eigenvalues --    1.77787   1.79223   1.81071   1.81945   1.83105
 Alpha virt. eigenvalues --    1.83678   1.84530   1.86583   1.87451   1.88731
 Alpha virt. eigenvalues --    1.89372   1.90539   1.92518   1.93404   1.93644
 Alpha virt. eigenvalues --    1.94337   1.95658   1.96344   1.97172   1.98450
 Alpha virt. eigenvalues --    1.99371   2.00279   2.02062   2.02557   2.03944
 Alpha virt. eigenvalues --    2.04568   2.05821   2.06117   2.07232   2.09335
 Alpha virt. eigenvalues --    2.09714   2.10686   2.11521   2.13973   2.16680
 Alpha virt. eigenvalues --    2.18602   2.21202   2.23658   2.25672   2.26560
 Alpha virt. eigenvalues --    2.27651   2.28389   2.30705   2.31570   2.34350
 Alpha virt. eigenvalues --    2.35307   2.36179   2.36660   2.37673   2.38803
 Alpha virt. eigenvalues --    2.40464   2.42729   2.42805   2.43975   2.44600
 Alpha virt. eigenvalues --    2.47697   2.48932   2.50394   2.51787   2.52263
 Alpha virt. eigenvalues --    2.53891   2.54232   2.54943   2.55819   2.57942
 Alpha virt. eigenvalues --    2.58354   2.58473   2.60413   2.61226   2.62079
 Alpha virt. eigenvalues --    2.63636   2.65991   2.67216   2.67908   2.68986
 Alpha virt. eigenvalues --    2.71110   2.72429   2.75272   2.77853   2.80565
 Alpha virt. eigenvalues --    2.82797   2.82965   2.84419   2.85122   2.93212
 Alpha virt. eigenvalues --    2.95170   2.97982   3.01469   3.02598   3.04979
 Alpha virt. eigenvalues --    3.07293   3.08046   3.17975   3.19570   3.21677
 Alpha virt. eigenvalues --    3.25030   3.26269   3.27556   3.27859   3.29137
 Alpha virt. eigenvalues --    3.34780   3.36072   3.38850   3.44091   3.45190
 Alpha virt. eigenvalues --    3.47143   3.47639   3.52530   3.79311   3.84763
 Alpha virt. eigenvalues --    4.23521   4.28216   4.30528   4.31009   4.34892
 Alpha virt. eigenvalues --    4.36633   4.39040   4.43021   4.45743   4.47979
 Alpha virt. eigenvalues --    4.49723   4.51633   4.54083   4.61402   4.63570
 Alpha virt. eigenvalues --    4.70978   4.83167   4.92688
          Condensed to atoms (all electrons):
               1          2          3          4          5          6
     1  C    5.899188  -0.848198   0.231911   0.061735  -0.865810   0.188950
     2  C   -0.848198   7.107796  -0.125363  -0.243592   0.863653  -0.220982
     3  N    0.231911  -0.125363   6.981378   0.330975   0.318638   0.068556
     4  O    0.061735  -0.243592   0.330975   7.970368  -0.138532   0.000061
     5  C   -0.865810   0.863653   0.318638  -0.138532  33.408494 -13.439000
     6  C    0.188950  -0.220982   0.068556   0.000061 -13.439000  14.949063
     7  C    0.009481  -0.053840   0.015814   0.001805   1.140608   0.017648
     8  C    0.062661  -0.080573  -0.002443   0.005612  -1.037189  -0.363048
     9  C   -0.087618   0.191450  -0.199963  -0.018110  -3.388162   3.712979
    10  C    0.297448  -0.435366  -0.283031   0.034730  -6.529381   1.700599
    11  C    0.187678  -0.238855  -0.273391  -0.059401  -4.515356  -0.147023
    12  C   -0.101316   0.031802  -0.423031   0.117786   0.279963  -0.201923
    13  C    0.009618  -0.026323   0.038428  -0.021457   0.555532  -0.085638
    14  C    0.031759  -0.072196  -0.025760   0.035433  -0.066516  -0.104431
    15  C    0.012053  -0.017337   0.006558   0.005977   0.004180  -0.012746
    16  N   -0.000001  -0.000010   0.000001  -0.000005  -0.000382  -0.000062
    17  C   -0.137180   0.241345   0.195982  -0.042338   0.016208  -0.164089
    18  C    0.268473  -0.355906   0.296495   0.109155   0.039202  -0.190378
    19  H    0.399379  -0.050677   0.003666  -0.001461  -0.020668   0.028575
    20  H    0.416214  -0.074312   0.005173   0.000739   0.024473  -0.020356
    21  H    0.398631  -0.024645  -0.010535  -0.000927  -0.055971   0.017341
    22  H   -0.060298   0.427421  -0.088345   0.009831  -0.014006  -0.004771
    23  H    0.012040  -0.015994  -0.008641   0.003206  -0.043454   0.312328
    24  H   -0.000360   0.000548   0.000739  -0.000208   0.019437   0.010875
    25  H   -0.000111   0.000075   0.000275  -0.000016   0.027281  -0.008954
    26  H   -0.000744   0.000602  -0.000438  -0.000062   0.070057  -0.027658
    27  H    0.003165  -0.003328   0.000040   0.000043  -0.114271   0.019507
    28  H   -0.000068   0.000104  -0.000002   0.000000  -0.002041  -0.000320
    29  H   -0.000413   0.001276   0.000242   0.000088  -0.007245  -0.000224
    30  H   -0.002781   0.009417   0.030749  -0.008163   0.083820  -0.032652
               7          8          9         10         11         12
     1  C    0.009481   0.062661  -0.087618   0.297448   0.187678  -0.101316
     2  C   -0.053840  -0.080573   0.191450  -0.435366  -0.238855   0.031802
     3  N    0.015814  -0.002443  -0.199963  -0.283031  -0.273391  -0.423031
     4  O    0.001805   0.005612  -0.018110   0.034730  -0.059401   0.117786
     5  C    1.140608  -1.037189  -3.388162  -6.529381  -4.515356   0.279963
     6  C    0.017648  -0.363048   3.712979   1.700599  -0.147023  -0.201923
     7  C    6.496035   0.225547   0.198972  -1.529991  -0.608516   0.269631
     8  C    0.225547   7.260392  -2.434118   1.180304   1.045891  -0.844844
     9  C    0.198972  -2.434118  16.845089  -5.978560  -2.635812   1.923566
    10  C   -1.529991   1.180304  -5.978560  15.055122   2.021332  -0.188265
    11  C   -0.608516   1.045891  -2.635812   2.021332  20.684079  -5.345725
    12  C    0.269631  -0.844844   1.923566  -0.188265  -5.345725  23.282338
    13  C    0.037371   0.136631  -0.193248   0.128749   0.824316  -5.665624
    14  C   -0.013443  -0.009067   0.018444  -0.140576  -2.616071   1.700305
    15  C   -0.002553   0.007309  -0.107217   0.112841  -0.810508  -0.101560
    16  N    0.000011  -0.000017   0.000505  -0.003756   0.024532  -0.001641
    17  C   -0.040158  -0.063853  -0.798644   0.197869   2.905641   0.976723
    18  C   -0.295436   0.547803  -0.662478  -0.185542  -5.210088 -10.068188
    19  H    0.003356   0.000823   0.003134  -0.008119  -0.000190  -0.005149
    20  H   -0.000636  -0.000211  -0.007465  -0.004199  -0.028844   0.037119
    21  H   -0.001030   0.001736  -0.002380   0.010679   0.028350  -0.035278
    22  H   -0.004070   0.000342  -0.002703   0.028036   0.013546  -0.005979
    23  H   -0.015058   0.001129  -0.032525   0.086751   0.015328   0.002802
    24  H    0.265558   0.006525   0.015676  -0.006966   0.000491  -0.003444
    25  H    0.022992   0.270887   0.013736  -0.001606  -0.006491  -0.006415
    26  H    0.015289  -0.011721   0.276147   0.011463  -0.092352   0.084719
    27  H   -0.006207   0.047992   0.069277  -0.104929   0.211962   0.174013
    28  H   -0.000019   0.000473  -0.002118  -0.002516   0.005989  -0.036163
    29  H   -0.000107   0.000117   0.000277  -0.005454   0.010065  -0.001562
    30  H    0.003035  -0.005061  -0.050317  -0.024034   0.047335   0.049190
              13         14         15         16         17         18
     1  C    0.009618   0.031759   0.012053  -0.000001  -0.137180   0.268473
     2  C   -0.026323  -0.072196  -0.017337  -0.000010   0.241345  -0.355906
     3  N    0.038428  -0.025760   0.006558   0.000001   0.195982   0.296495
     4  O   -0.021457   0.035433   0.005977  -0.000005  -0.042338   0.109155
     5  C    0.555532  -0.066516   0.004180  -0.000382   0.016208   0.039202
     6  C   -0.085638  -0.104431  -0.012746  -0.000062  -0.164089  -0.190378
     7  C    0.037371  -0.013443  -0.002553   0.000011  -0.040158  -0.295436
     8  C    0.136631  -0.009067   0.007309  -0.000017  -0.063853   0.547803
     9  C   -0.193248   0.018444  -0.107217   0.000505  -0.798644  -0.662478
    10  C    0.128749  -0.140576   0.112841  -0.003756   0.197869  -0.185542
    11  C    0.824316  -2.616071  -0.810508   0.024532   2.905641  -5.210088
    12  C   -5.665624   1.700305  -0.101560  -0.001641   0.976723 -10.068188
    13  C   12.885274  -1.025542  -0.125516  -0.035289  -3.111840   1.799931
    14  C   -1.025542  10.063743  -3.356992   0.659834  -2.251143   2.541463
    15  C   -0.125516  -3.356992  10.896896  -0.407971   0.122170  -0.008208
    16  N   -0.035289   0.659834  -0.407971   7.347736  -0.058914   0.008084
    17  C   -3.111840  -2.251143   0.122170  -0.058914  16.496227  -8.620393
    18  C    1.799931   2.541463  -0.008208   0.008084  -8.620393  26.076765
    19  H    0.001477  -0.001275  -0.000078   0.000000   0.002039  -0.006120
    20  H   -0.006577   0.010275   0.001979  -0.000000  -0.009087   0.005158
    21  H   -0.004955  -0.000587  -0.000095  -0.000000   0.000604   0.032132
    22  H   -0.000437  -0.000766  -0.000278   0.000000   0.013710   0.006627
    23  H   -0.000162  -0.000002   0.000001  -0.000000  -0.000420  -0.007132
    24  H   -0.000170   0.000003  -0.000001   0.000000   0.000066   0.003567
    25  H    0.000385  -0.000136  -0.000001  -0.000000   0.000250   0.001841
    26  H    0.063196  -0.005164  -0.000029   0.000000   0.007385  -0.090326
    27  H   -0.016807  -0.024835  -0.008162   0.000027  -0.039607   0.091016
    28  H    0.231931   0.085068  -0.022587   0.000495   0.049552  -0.001216
    29  H    0.049265   0.089082  -0.028598   0.000666   0.253898  -0.053858
    30  H   -0.023683  -0.017745   0.006939   0.000002   0.093341   0.148774
              19         20         21         22         23         24
     1  C    0.399379   0.416214   0.398631  -0.060298   0.012040  -0.000360
     2  C   -0.050677  -0.074312  -0.024645   0.427421  -0.015994   0.000548
     3  N    0.003666   0.005173  -0.010535  -0.088345  -0.008641   0.000739
     4  O   -0.001461   0.000739  -0.000927   0.009831   0.003206  -0.000208
     5  C   -0.020668   0.024473  -0.055971  -0.014006  -0.043454   0.019437
     6  C    0.028575  -0.020356   0.017341  -0.004771   0.312328   0.010875
     7  C    0.003356  -0.000636  -0.001030  -0.004070  -0.015058   0.265558
     8  C    0.000823  -0.000211   0.001736   0.000342   0.001129   0.006525
     9  C    0.003134  -0.007465  -0.002380  -0.002703  -0.032525   0.015676
    10  C   -0.008119  -0.004199   0.010679   0.028036   0.086751  -0.006966
    11  C   -0.000190  -0.028844   0.028350   0.013546   0.015328   0.000491
    12  C   -0.005149   0.037119  -0.035278  -0.005979   0.002802  -0.003444
    13  C    0.001477  -0.006577  -0.004955  -0.000437  -0.000162  -0.000170
    14  C   -0.001275   0.010275  -0.000587  -0.000766  -0.000002   0.000003
    15  C   -0.000078   0.001979  -0.000095  -0.000278   0.000001  -0.000001
    16  N    0.000000  -0.000000  -0.000000   0.000000  -0.000000   0.000000
    17  C    0.002039  -0.009087   0.000604   0.013710  -0.000420   0.000066
    18  C   -0.006120   0.005158   0.032132   0.006627  -0.007132   0.003567
    19  H    0.539753  -0.032183  -0.022007  -0.002000  -0.000038   0.000000
    20  H   -0.032183   0.533003  -0.024237  -0.000966  -0.000000  -0.000000
    21  H   -0.022007  -0.024237   0.517897   0.003489  -0.000079  -0.000005
    22  H   -0.002000  -0.000966   0.003489   0.521448  -0.000061  -0.000000
    23  H   -0.000038  -0.000000  -0.000079  -0.000061   0.547997  -0.005036
    24  H    0.000000  -0.000000  -0.000005  -0.000000  -0.005036   0.559987
    25  H    0.000000  -0.000000   0.000001   0.000000  -0.000157  -0.004978
    26  H   -0.000000   0.000001  -0.000010  -0.000000   0.000015  -0.000176
    27  H    0.000000  -0.000019   0.000001   0.000000   0.000000  -0.000000
    28  H   -0.000000   0.000001   0.000000   0.000000   0.000000  -0.000000
    29  H   -0.000000   0.000000   0.000000   0.000001   0.000000   0.000000
    30  H   -0.000002   0.000024  -0.000008  -0.000115   0.000006  -0.000000
              25         26         27         28         29         30
     1  C   -0.000111  -0.000744   0.003165  -0.000068  -0.000413  -0.002781
     2  C    0.000075   0.000602  -0.003328   0.000104   0.001276   0.009417
     3  N    0.000275  -0.000438   0.000040  -0.000002   0.000242   0.030749
     4  O   -0.000016  -0.000062   0.000043   0.000000   0.000088  -0.008163
     5  C    0.027281   0.070057  -0.114271  -0.002041  -0.007245   0.083820
     6  C   -0.008954  -0.027658   0.019507  -0.000320  -0.000224  -0.032652
     7  C    0.022992   0.015289  -0.006207  -0.000019  -0.000107   0.003035
     8  C    0.270887  -0.011721   0.047992   0.000473   0.000117  -0.005061
     9  C    0.013736   0.276147   0.069277  -0.002118   0.000277  -0.050317
    10  C   -0.001606   0.011463  -0.104929  -0.002516  -0.005454  -0.024034
    11  C   -0.006491  -0.092352   0.211962   0.005989   0.010065   0.047335
    12  C   -0.006415   0.084719   0.174013  -0.036163  -0.001562   0.049190
    13  C    0.000385   0.063196  -0.016807   0.231931   0.049265  -0.023683
    14  C   -0.000136  -0.005164  -0.024835   0.085068   0.089082  -0.017745
    15  C   -0.000001  -0.000029  -0.008162  -0.022587  -0.028598   0.006939
    16  N   -0.000000   0.000000   0.000027   0.000495   0.000666   0.000002
    17  C    0.000250   0.007385  -0.039607   0.049552   0.253898   0.093341
    18  C    0.001841  -0.090326   0.091016  -0.001216  -0.053858   0.148774
    19  H    0.000000  -0.000000   0.000000  -0.000000  -0.000000  -0.000002
    20  H   -0.000000   0.000001  -0.000019   0.000001   0.000000   0.000024
    21  H    0.000001  -0.000010   0.000001   0.000000   0.000000  -0.000008
    22  H    0.000000  -0.000000   0.000000   0.000000   0.000001  -0.000115
    23  H   -0.000157   0.000015   0.000000   0.000000   0.000000   0.000006
    24  H   -0.004978  -0.000176  -0.000000  -0.000000   0.000000  -0.000000
    25  H    0.562144  -0.005410   0.000000   0.000000   0.000000   0.000000
    26  H   -0.005410   0.568978   0.001175   0.000001   0.000000   0.000021
    27  H    0.000000   0.001175   0.576083  -0.005035   0.000017  -0.000166
    28  H    0.000000   0.000001  -0.005035   0.550578  -0.000144   0.000015
    29  H    0.000000   0.000000   0.000017  -0.000144   0.544834  -0.004580
    30  H    0.000000   0.000021  -0.000166   0.000015  -0.004580   0.514046
 Mulliken charges:
               1
     1  C   -0.385484
     2  C    0.012008
     3  N   -0.084677
     4  O   -0.153274
     5  C   -0.613565
     6  C   -0.002226
     7  C   -0.152090
     8  C    0.049970
     9  C   -0.667815
    10  C    0.566368
    11  C    0.562088
    12  C    0.106149
    13  C   -0.418837
    14  C    0.496839
    15  C   -0.166465
    16  N   -0.533848
    17  C   -0.235342
    18  C   -0.221219
    19  H    0.167762
    20  H    0.174935
    21  H    0.171887
    22  H    0.160344
    23  H    0.147155
    24  H    0.137872
    25  H    0.134408
    26  H    0.135042
    27  H    0.129046
    28  H    0.148020
    29  H    0.152357
    30  H    0.182593
 Sum of Mulliken charges =  -0.00000
 Mulliken charges with hydrogens summed into heavy atoms:
               1
     1  C    0.129100
     2  C    0.172352
     3  N   -0.084677
     4  O   -0.153274
     5  C   -0.613565
     6  C    0.144929
     7  C   -0.014218
     8  C    0.184378
     9  C   -0.532774
    10  C    0.566368
    11  C    0.562088
    12  C    0.235195
    13  C   -0.270816
    14  C    0.496839
    15  C   -0.166465
    16  N   -0.533848
    17  C   -0.082984
    18  C   -0.038626
 Electronic spatial extent (au):  <R**2>=           4786.8918
 Charge=             -0.0000 electrons
 Dipole moment (field-independent basis, Debye):
    X=              5.4772    Y=             -2.0455    Z=              3.8906  Tot=              7.0229
 Quadrupole moment (field-independent basis, Debye-Ang):
   XX=           -132.3750   YY=            -98.6546   ZZ=           -107.2584
   XY=             -2.7178   XZ=              5.1723   YZ=              5.4690
 Traceless Quadrupole moment (field-independent basis, Debye-Ang):
   XX=            -19.6123   YY=             14.1081   ZZ=              5.5042
   XY=             -2.7178   XZ=              5.1723   YZ=              5.4690
 Octapole moment (field-independent basis, Debye-Ang**2):
  XXX=            322.0031  YYY=             -2.3073  ZZZ=             11.7904  XYY=             10.1740
  XXY=            -17.8964  XXZ=              5.8722  XZZ=            -14.9476  YZZ=              2.2769
  YYZ=             24.3911  XYZ=             23.3524
 Hexadecapole moment (field-independent basis, Debye-Ang**3):
 XXXX=          -6266.7312 YYYY=          -1279.8001 ZZZZ=           -611.7478 XXXY=             12.4468
 XXXZ=            -26.7505 YYYX=            -30.7648 YYYZ=             35.5334 ZZZX=             21.4502
 ZZZY=              8.7369 XXYY=           -974.2572 XXZZ=           -908.9299 YYZZ=           -342.7367
 XXYZ=             -6.9344 YYXZ=             24.3694 ZZXY=              6.6551
 N-N= 1.187273960948D+03 E-N=-4.144802100093D+03  KE= 7.562097990111D+02
 Unable to Open any file for archive entry.
 1\1\GINC-N2\SP\RB3LYP TD-FC\6-31+G(d,p)\C15H12N2O1\HPCMGAC13\06-Aug-20
 25\0\\# td=(50-50,nstates=3) b3lyp/6-31+g(d,p) geom=connectivity\\Titl
 e Card Required\\0,1\C,0,-1.334415,1.905031,-2.132834\C,0,-1.270669,2.
 353607,-0.710666\N,0,-1.549101,1.619392,0.33322\O,0,-1.492558,2.040939
 ,1.5571\C,0,-1.964698,0.223574,0.213054\C,0,-3.334456,-0.033169,0.2507
 64\C,0,-3.796017,-1.346652,0.183508\C,0,-2.876615,-2.394645,0.087353\C
 ,0,-1.509356,-2.124464,0.061985\C,0,-1.012946,-0.808504,0.12841\C,0,0.
 45723,-0.574559,0.103592\C,0,1.258289,-1.270715,-0.820966\C,0,2.639877
 ,-1.107732,-0.842303\C,0,3.253999,-0.235671,0.072821\C,0,4.678237,-0.0
 62287,0.056264\N,0,5.833811,0.077577,0.039436\C,0,2.464211,0.466133,0.
 999736\C,0,1.08229,0.298283,1.013985\H,0,-1.968109,2.58672,-2.713478\H
 ,0,-0.336399,1.933137,-2.588979\H,0,-1.731068,0.894061,-2.237922\H,0,-
 0.972123,3.367218,-0.46177\H,0,-4.023479,0.80075,0.336697\H,0,-4.86212
 1,-1.548632,0.211593\H,0,-3.2223,-3.422992,0.045069\H,0,-0.801806,-2.9
 46608,0.018009\H,0,0.791937,-1.934641,-1.542492\H,0,3.245453,-1.645225
 ,-1.564428\H,0,2.937186,1.136844,1.709395\H,0,0.48056,0.843687,1.73469
 2\\Version=ES64L-G16RevC.02\State=1-A\HF=-763.5115843\RMSD=7.985e-09\P
 G=C01 [X(C15H12N2O1)]\\@
 The archive entry for this job was punched.


 YOU SHOULDN'T LET PEOPLE DRIVE YOU CRAZY
 WHEN YOU KNOW IT'S WITHIN WALKING DISTANCE.
 Job cpu time:       0 days  1 hours  5 minutes 28.3 seconds.
 Elapsed time:       0 days  0 hours  4 minutes 12.0 seconds.
 File lengths (MBytes):  RWF=    903 Int=      0 D2E=      0 Chk=     42 Scr=      2
 Normal termination of Gaussian 16 at Wed Aug  6 22:10:14 2025.
