 Entering Gaussian System, Link 0=g16
 Input=M1665e.gjf
 Output=M1665e.log
 Initial command:
 /hpc/softwares/Gaussian/g16/l1.exe "/hpc/home/hpcmgac13/pbs.12879.admin1.x8z/Gau-2094590.inp" -scrdir="/hpc/home/hpcmgac13/pbs.12879.admin1.x8z/"
 Default linda workers: n2
 Default is to use  16 SMP processors on each worker.
 Entering Link 1 = /hpc/softwares/Gaussian/g16/l1.exe PID=   2094591.
  
 Copyright (c) 1988-2021, Gaussian, Inc.  All Rights Reserved.
  
 This is part of the Gaussian(R) 16 program.  It is based on
 the Gaussian(R) 09 system (copyright 2009, Gaussian, Inc.),
 the Gaussian(R) 03 system (copyright 2003, Gaussian, Inc.),
 the Gaussian(R) 98 system (copyright 1998, Gaussian, Inc.),
 the Gaussian(R) 94 system (copyright 1995, Gaussian, Inc.),
 the Gaussian 92(TM) system (copyright 1992, Gaussian, Inc.),
 the Gaussian 90(TM) system (copyright 1990, Gaussian, Inc.),
 the Gaussian 88(TM) system (copyright 1988, Gaussian, Inc.),
 the Gaussian 86(TM) system (copyright 1986, Carnegie Mellon
 University), and the Gaussian 82(TM) system (copyright 1983,
 Carnegie Mellon University). Gaussian is a federally registered
 trademark of Gaussian, Inc.
  
 This software contains proprietary and confidential information,
 including trade secrets, belonging to Gaussian, Inc.
  
 This software is provided under written license and may be
 used, copied, transmitted, or stored only in accord with that
 written license.
  
 The following legend is applicable only to US Government
 contracts under FAR:
  
                    RESTRICTED RIGHTS LEGEND
  
 Use, reproduction and disclosure by the US Government is
 subject to restrictions as set forth in subparagraphs (a)
 and (c) of the Commercial Computer Software - Restricted
 Rights clause in FAR 52.227-19.
  
 Gaussian, Inc.
 340 Quinnipiac St., Bldg. 40, Wallingford CT 06492
  
  
 ---------------------------------------------------------------
 Warning -- This program may not be used in any manner that
 competes with the business of Gaussian, Inc. or will provide
 assistance to any competitor of Gaussian, Inc.  The licensee
 of this program is prohibited from giving any competitor of
 Gaussian, Inc. access to this program.  By using this program,
 the user acknowledges that Gaussian, Inc. is engaged in the
 business of creating and licensing software in the field of
 computational chemistry and represents and warrants to the
 licensee that it is not a competitor of Gaussian, Inc. and that
 it will not use this program in any manner prohibited above.
 ---------------------------------------------------------------
  

 Cite this work as:
 Gaussian 16, Revision C.02,
 M. J. Frisch, G. W. Trucks, H. B. Schlegel, G. E. Scuseria, 
 M. A. Robb, J. R. Cheeseman, G. Scalmani, V. Barone, 
 G. A. Petersson, H. Nakatsuji, X. Li, M. Caricato, A. V. Marenich, 
 J. Bloino, B. G. Janesko, R. Gomperts, B. Mennucci, H. P. Hratchian, 
 J. V. Ortiz, A. F. Izmaylov, J. L. Sonnenberg, D. Williams-Young, 
 F. Ding, F. Lipparini, F. Egidi, J. Goings, B. Peng, A. Petrone, 
 T. Henderson, D. Ranasinghe, V. G. Zakrzewski, J. Gao, N. Rega, 
 G. Zheng, W. Liang, M. Hada, M. Ehara, K. Toyota, R. Fukuda, 
 J. Hasegawa, M. Ishida, T. Nakajima, Y. Honda, O. Kitao, H. Nakai, 
 T. Vreven, K. Throssell, J. A. Montgomery, Jr., J. E. Peralta, 
 F. Ogliaro, M. J. Bearpark, J. J. Heyd, E. N. Brothers, K. N. Kudin, 
 V. N. Staroverov, T. A. Keith, R. Kobayashi, J. Normand, 
 K. Raghavachari, A. P. Rendell, J. C. Burant, S. S. Iyengar, 
 J. Tomasi, M. Cossi, J. M. Millam, M. Klene, C. Adamo, R. Cammi, 
 J. W. Ochterski, R. L. Martin, K. Morokuma, O. Farkas, 
 J. B. Foresman, and D. J. Fox, Gaussian, Inc., Wallingford CT, 2019.
 
 ******************************************
 Gaussian 16:  ES64L-G16RevC.02  7-Dec-2021
                 6-Aug-2025 
 ******************************************
 SetLPE:    new flags="-opt 'Tsnet.Node.lindarsharg: ssh'  -nodelist 'n2.head.cm.mguif.local' -env GAUSS_MDEF=4294967296 -env GAUSS_EXEDIR="/hpc/softwares/Gaussian/g16/bsd:/hpc/softwares/Gaussian/g16""
 Will use up to    1 processors via Linda.
 ----------------------------------------------------------
 # td=(50-50,nstates=3) b3lyp/6-31+g(d,p) geom=connectivity
 ----------------------------------------------------------
 1/38=1,57=2,172=1/1;
 2/12=2,17=6,18=5,40=1/2;
 3/5=1,6=6,7=111,11=9,25=1,30=1,74=-5/1,2,3,8;
 4//1;
 5/5=2,38=5/2;
 8/6=1,10=2,108=3/1;
 9/41=3,42=1,48=2,70=2/14;
 6/7=2,8=2,9=2,10=2/1;
 99/5=1,9=1/99;
 -------------------
 Title Card Required
 -------------------
 Symbolic Z-matrix:
 Charge =  0 Multiplicity = 1
 C                    -5.35616   0.61215   0.29848 
 C                    -4.44201  -0.17196  -0.30073 
 C                    -4.79892  -0.93044  -1.47384 
 N                    -5.07414  -1.53077  -2.43137 
 C                    -3.05118  -0.3194    0.17741 
 C                    -2.06671   0.57314   0.3845 
 C                    -2.1365    2.07142   0.1722 
 C                    -1.52625   2.84673   1.35587 
 C                    -1.52261   2.52152  -1.17329 
 C                    -0.87757  -0.20364   0.92398 
 C                     0.47149  -0.04809   0.19964 
 O                     1.48199  -0.52089   1.07356 
 C                     2.71121  -0.88532   0.45429 
 C                     3.40663   0.34476  -0.1206 
 Br                    5.29481   0.00667  -0.52995 
 C                    -1.37689  -1.65161   0.89284 
 O                    -0.81267  -2.67283   1.16971 
 O                    -2.68816  -1.64289   0.44514 
 H                    -5.10977   1.16037   1.20103 
 H                    -6.36032   0.70936  -0.09954 
 H                    -3.19842   2.33407   0.12332 
 H                    -1.66213   3.92351   1.21225 
 H                    -2.00012   2.57082   2.30391 
 H                    -0.45039   2.66202   1.45232 
 H                    -1.70495   3.59121  -1.32409 
 H                    -1.9706    1.98008  -2.012 
 H                    -0.44      2.36667  -1.2104 
 H                    -0.68914   0.06006   1.9749 
 H                     0.63509   1.0084   -0.0423 
 H                     0.47045  -0.61645  -0.74298 
 H                     3.31526  -1.3298    1.24774 
 H                     2.54431  -1.64361  -0.32363 
 H                     2.95974   0.6879   -1.05371 
 H                     3.40499   1.15487   0.6094 
 
                          Input orientation:                          
 ---------------------------------------------------------------------
 Center     Atomic      Atomic             Coordinates (Angstroms)
 Number     Number       Type             X           Y           Z
 ---------------------------------------------------------------------
      1          6           0       -5.356159    0.612149    0.298477
      2          6           0       -4.442008   -0.171962   -0.300728
      3          6           0       -4.798919   -0.930444   -1.473839
      4          7           0       -5.074138   -1.530774   -2.431366
      5          6           0       -3.051180   -0.319398    0.177408
      6          6           0       -2.066710    0.573137    0.384495
      7          6           0       -2.136501    2.071421    0.172201
      8          6           0       -1.526245    2.846733    1.355866
      9          6           0       -1.522608    2.521519   -1.173294
     10          6           0       -0.877573   -0.203644    0.923982
     11          6           0        0.471488   -0.048092    0.199635
     12          8           0        1.481986   -0.520887    1.073556
     13          6           0        2.711210   -0.885322    0.454294
     14          6           0        3.406628    0.344760   -0.120603
     15         35           0        5.294813    0.006665   -0.529950
     16          6           0       -1.376886   -1.651606    0.892836
     17          8           0       -0.812668   -2.672827    1.169710
     18          8           0       -2.688156   -1.642889    0.445135
     19          1           0       -5.109774    1.160369    1.201033
     20          1           0       -6.360324    0.709356   -0.099542
     21          1           0       -3.198417    2.334070    0.123323
     22          1           0       -1.662128    3.923506    1.212250
     23          1           0       -2.000122    2.570824    2.303906
     24          1           0       -0.450389    2.662018    1.452321
     25          1           0       -1.704954    3.591206   -1.324086
     26          1           0       -1.970603    1.980083   -2.011997
     27          1           0       -0.439999    2.366668   -1.210402
     28          1           0       -0.689141    0.060056    1.974897
     29          1           0        0.635089    1.008396   -0.042296
     30          1           0        0.470452   -0.616453   -0.742981
     31          1           0        3.315261   -1.329795    1.247741
     32          1           0        2.544306   -1.643609   -0.323634
     33          1           0        2.959740    0.687898   -1.053711
     34          1           0        3.404987    1.154873    0.609401
 ---------------------------------------------------------------------
                    Distance matrix (angstroms):
                    1          2          3          4          5
     1  C    0.000000
     2  C    1.345195   0.000000
     3  C    2.414791   1.441829   0.000000
     4  N    3.481910   2.604914   1.163185   0.000000
     5  C    2.489049   1.478091   2.480844   3.516460   0.000000
     6  C    3.290805   2.582004   3.630307   4.626028   1.344874
     7  C    3.537177   3.251429   4.336947   5.327671   2.559820
     8  C    4.558473   4.512039   5.743230   6.789200   3.706558
     9  C    4.528567   4.066830   4.768709   5.533280   3.497390
    10  C    4.595052   3.769100   4.653465   5.534509   2.301160
    11  C    5.865761   4.940460   5.599665   6.314624   3.533170
    12  O    6.974578   6.091314   6.790193   7.502474   4.625286
    13  C    8.206652   7.228241   7.753823   8.327982   5.796730
    14  C    8.776876   7.867689   8.413584   8.987805   6.498708
    15  Br  10.700285   9.741157  10.180988  10.653368   8.382259
    16  C    4.616542   3.606787   4.222740   4.973388   2.256075
    17  O    5.673925   4.646356   5.090623   5.694924   3.396208
    18  O    3.496419   2.407475   2.940299   3.738949   1.398246
    19  H    1.084370   2.115728   3.409262   4.520823   2.734105
    20  H    1.084535   2.120645   2.648702   3.479922   3.476416
    21  H    2.766142   2.829582   3.971094   4.998178   2.658100
    22  H    5.044396   5.175876   6.373018   7.393708   4.582859
    23  H    4.372772   4.502200   5.862039   6.978215   3.738997
    24  H    5.440579   5.199774   6.354361   7.351298   4.156724
    25  H    4.983853   4.764468   5.480909   6.229940   4.399958
    26  H    4.321056   3.696969   4.093917   4.704670   3.353916
    27  H    5.433570   4.825788   5.471794   6.177058   3.994901
    28  H    4.989614   4.395033   5.455744   6.416704   2.992354
    29  H    6.014000   5.218903   5.944481   6.689567   3.924269
    30  H    6.045121   4.952315   5.329073   5.867632   3.652020
    31  H    8.936765   7.994595   8.567753   9.162873   6.534377
    32  H    8.239710   7.139668   7.466896   7.905438   5.771832
    33  H    8.425457   7.489474   7.936771   8.447700   6.217834
    34  H    8.783445   8.010253   8.717368   9.399709   6.636429
                    6          7          8          9         10
     6  C    0.000000
     7  C    1.514858   0.000000
     8  C    2.530791   1.540968   0.000000
     9  C    2.553223   1.545901   2.549986   0.000000
    10  C    1.519369   2.706658   3.148349   3.498736   0.000000
    11  C    2.619646   3.360758   3.702407   3.530475   1.539104
    12  O    3.776895   4.541580   4.524380   4.830337   2.385484
    13  C    4.996048   5.685262   5.718137   5.672814   3.683023
    14  C    5.501337   5.813207   5.724776   5.490337   4.443679
    15  Br   7.439699   7.744718   7.625557   7.294903   6.344801
    16  C    2.384061   3.867462   4.524573   4.658873   1.531952
    17  O    3.567277   5.025480   5.568607   5.742379   2.482229
    18  O    2.302313   3.764959   4.726116   4.617370   2.361976
    19  H    3.204967   3.275494   3.963518   4.511975   4.455201
    20  H    4.322958   4.446318   5.482236   5.276398   5.651701
    21  H    2.109468   1.095006   2.139660   2.127132   3.530915
    22  H    3.474743   2.176454   1.094774   2.770533   4.210937
    23  H    2.771160   2.193666   1.095201   3.510181   3.295752
    24  H    2.848889   2.197837   1.095851   2.839586   2.945106
    25  H    3.486955   2.175972   2.787171   1.095545   4.487678
    26  H    2.780631   2.192393   3.505858   1.094201   3.818815
    27  H    2.899420   2.208366   2.827742   1.094257   3.369506
    28  H    2.165716   3.064336   2.974813   4.082227   1.099758
    29  H    2.769715   2.976196   3.163180   2.867813   2.165844
    30  H    3.020516   3.854663   4.515043   3.742235   2.183197
    31  H    5.773383   6.515118   6.394940   6.640708   4.353492
    32  H    5.164966   5.996437   6.289140   5.883027   3.916542
    33  H    5.229417   5.421132   5.530885   4.844369   4.408071
    34  H    5.507129   5.633764   5.266560   5.415433   4.503871
                   11         12         13         14         15
    11  C    0.000000
    12  O    1.417173   0.000000
    13  C    2.404612   1.423829   0.000000
    14  C    2.978579   2.424790   1.525521   0.000000
    15  Br   4.878499   4.169795   2.905061   1.961407   0.000000
    16  C    2.543280   3.079665   4.182349   5.281528   7.020381
    17  O    3.078853   3.147305   4.015559   5.345390   6.882576
    18  O    3.547816   4.363930   5.452261   6.435620   8.209727
    19  H    5.797729   6.803982   8.118514   8.656849  10.610503
    20  H    6.880181   8.024430   9.227267   9.773777  11.684231
    21  H    4.375925   5.564162   6.737783   6.902425   8.830546
    22  H    4.620746   5.445853   6.544113   6.346354   8.171654
    23  H    4.170795   4.816380   6.128838   6.329814   8.235395
    24  H    3.124704   3.742782   4.855449   4.766587   6.632318
    25  H    4.505898   5.728401   6.534864   6.173820   7.904197
    26  H    3.868930   5.262686   6.017683   5.930115   7.673142
    27  H    2.941102   4.153127   4.824600   4.480214   6.238646
    28  H    2.123749   2.421508   3.842962   4.609501   6.487281
    29  H    1.096113   2.073901   2.853603   2.850960   4.791065
    30  H    1.100709   2.081379   2.554751   3.151573   4.869098
    31  H    3.290643   2.011360   1.091784   2.164451   2.977404
    32  H    2.667594   2.083547   1.099103   2.176794   3.214228
    33  H    2.881658   2.858353   2.193369   1.090020   2.488166
    34  H    3.196944   2.592594   2.160505   1.090501   2.487558
                   16         17         18         19         20
    16  C    0.000000
    17  O    1.199122   0.000000
    18  O    1.385619   2.259034   0.000000
    19  H    4.683657   5.758428   3.780724   0.000000
    20  H    5.603000   6.620170   4.394832   1.859780   0.000000
    21  H    4.449240   5.644089   4.022453   2.488437   3.561884
    22  H    5.591535   6.650940   5.711913   4.418293   5.841627
    23  H    4.495382   5.494754   4.656586   3.588265   5.315354
    24  H    4.447333   5.354595   4.955224   4.901833   6.414710
    25  H    5.701706   6.800978   5.611825   4.886511   5.610440
    26  H    4.688253   5.754446   4.436024   4.566168   4.953976
    27  H    4.631187   5.585725   4.885853   5.392307   6.247475
    28  H    2.138606   2.851707   3.039121   4.620774   6.073484
    29  H    3.463831   4.137192   4.279119   5.879831   7.002036
    30  H    2.675836   3.087630   3.527321   6.170511   6.987938
    31  H    4.716541   4.341615   6.064917   8.785460   9.979492
    32  H    4.105558   3.815579   5.288635   8.292879   9.212985
    33  H    5.297985   5.519885   6.291092   8.391910   9.368804
    34  H    5.551844   5.723098   6.706776   8.535292   9.801142
                   21         22         23         24         25
    21  H    0.000000
    22  H    2.464194   0.000000
    23  H    2.499381   1.770791   0.000000
    24  H    3.070089   1.765587   1.770646   0.000000
    25  H    2.430188   2.558370   3.780295   3.185241   0.000000
    26  H    2.488458   3.777277   4.356244   3.844162   1.771866
    27  H    3.064108   3.128352   3.850458   2.679073   1.764236
    28  H    3.859525   4.056425   2.851469   2.664638   4.938035
    29  H    4.059632   3.917775   3.858780   2.479235   3.713448
    30  H    4.787136   5.383498   5.054304   4.051626   4.772260
    31  H    7.557528   7.236908   6.677096   5.491497   7.485526
    32  H    7.000041   7.144634   6.731808   5.537205   6.816187
    33  H    6.482144   6.079918   6.278474   4.669724   5.501061
    34  H    6.725453   5.805550   5.838790   4.224444   5.982106
                   26         27         28         29         30
    26  H    0.000000
    27  H    1.770523   0.000000
    28  H    4.606948   3.940642   0.000000
    29  H    3.407863   2.089303   2.592682   0.000000
    30  H    3.783008   3.153794   3.031366   1.777132   0.000000
    31  H    7.037154   5.814489   4.300660   3.783471   3.544682
    32  H    6.030433   5.076884   4.317511   3.279846   2.351972
    33  H    5.186168   3.794871   4.783407   2.555324   2.827444
    34  H    6.037356   4.423126   4.452537   2.849298   3.684838
                   31         32         33         34
    31  H    0.000000
    32  H    1.778221   0.000000
    33  H    3.081260   2.478210   0.000000
    34  H    2.566925   3.072918   1.783887   0.000000
 Stoichiometry    C13H16BrNO3
 Framework group  C1[X(C13H16BrNO3)]
 Deg. of freedom    96
 Full point group                 C1      NOp   1
 Largest Abelian subgroup         C1      NOp   1
 Largest concise Abelian subgroup C1      NOp   1
                         Standard orientation:                         
 ---------------------------------------------------------------------
 Center     Atomic      Atomic             Coordinates (Angstroms)
 Number     Number       Type             X           Y           Z
 ---------------------------------------------------------------------
      1          6           0        5.356159    0.612149   -0.298477
      2          6           0        4.442008   -0.171962    0.300728
      3          6           0        4.798919   -0.930444    1.473839
      4          7           0        5.074138   -1.530774    2.431366
      5          6           0        3.051180   -0.319398   -0.177408
      6          6           0        2.066710    0.573137   -0.384495
      7          6           0        2.136501    2.071421   -0.172201
      8          6           0        1.526245    2.846733   -1.355866
      9          6           0        1.522608    2.521519    1.173294
     10          6           0        0.877573   -0.203644   -0.923982
     11          6           0       -0.471488   -0.048092   -0.199635
     12          8           0       -1.481986   -0.520887   -1.073556
     13          6           0       -2.711210   -0.885322   -0.454294
     14          6           0       -3.406628    0.344760    0.120603
     15         35           0       -5.294813    0.006665    0.529950
     16          6           0        1.376886   -1.651606   -0.892836
     17          8           0        0.812668   -2.672827   -1.169710
     18          8           0        2.688156   -1.642889   -0.445135
     19          1           0        5.109774    1.160369   -1.201033
     20          1           0        6.360324    0.709356    0.099542
     21          1           0        3.198417    2.334070   -0.123323
     22          1           0        1.662128    3.923506   -1.212250
     23          1           0        2.000122    2.570824   -2.303906
     24          1           0        0.450389    2.662018   -1.452321
     25          1           0        1.704954    3.591206    1.324086
     26          1           0        1.970603    1.980083    2.011997
     27          1           0        0.439999    2.366668    1.210402
     28          1           0        0.689141    0.060056   -1.974897
     29          1           0       -0.635089    1.008396    0.042296
     30          1           0       -0.470452   -0.616453    0.742981
     31          1           0       -3.315261   -1.329795   -1.247741
     32          1           0       -2.544306   -1.643609    0.323634
     33          1           0       -2.959740    0.687898    1.053711
     34          1           0       -3.404987    1.154873   -0.609401
 ---------------------------------------------------------------------
 Rotational constants (GHZ):           0.6201019           0.1119598           0.1053437
 Standard basis: 6-31+G(d,p) (6D, 7F)
 There are   437 symmetry adapted cartesian basis functions of A   symmetry.
 There are   437 symmetry adapted basis functions of A   symmetry.
   437 basis functions,   743 primitive gaussians,   437 cartesian basis functions
    80 alpha electrons       80 beta electrons
       nuclear repulsion energy      1593.7887431925 Hartrees.
 NAtoms=   34 NActive=   34 NUniq=   34 SFac= 1.00D+00 NAtFMM=   60 NAOKFM=F Big=F
 Integral buffers will be    131072 words long.
 Regular integral format.
 Two-electron integral symmetry is turned on.
 One-electron integrals computed using PRISM.
 NBasis=   437 RedAO= T EigKep=  3.58D-06  NBF=   437
 NBsUse=   436 1.00D-06 EigRej=  7.34D-07 NBFU=   436
 ExpMin= 3.50D-02 ExpMax= 5.74D+05 ExpMxC= 5.74D+03 IAcc=3 IRadAn=         5 AccDes= 0.00D+00
 Harris functional with IExCor=  402 and IRadAn=       5 diagonalized for initial guess.
 HarFok:  IExCor=  402 AccDes= 0.00D+00 IRadAn=         5 IDoV= 1 UseB2=F ITyADJ=14
 ICtDFT=  3500011 ScaDFX=  1.000000  1.000000  1.000000  1.000000
 FoFCou: FMM=F IPFlag=           0 FMFlag=      100000 FMFlg1=           0
         NFxFlg=           0 DoJE=T BraDBF=F KetDBF=T FulRan=T
         wScrn=  0.000000 ICntrl=       500 IOpCl=  0 I1Cent=   200000004 NGrid=           0
         NMat0=    1 NMatS0=      1 NMatT0=    0 NMatD0=    1 NMtDS0=    0 NMtDT0=    0
 Petite list used in FoFCou.
 Requested convergence on RMS density matrix=1.00D-08 within 128 cycles.
 Requested convergence on MAX density matrix=1.00D-06.
 Requested convergence on             energy=1.00D-06.
 No special actions if energy rises.
 SCF Done:  E(RB3LYP) =  -3357.15290848     A.U. after   16 cycles
            NFock= 16  Conv=0.31D-08     -V/T= 2.0070
 DoSCS=F DFT=T ScalE2(SS,OS)=  1.000000  1.000000
 ExpMin= 3.50D-02 ExpMax= 5.74D+05 ExpMxC= 5.74D+03 IAcc=3 IRadAn=         5 AccDes= 0.00D+00
 HarFok:  IExCor=  205 AccDes= 0.00D+00 IRadAn=         5 IDoV=-2 UseB2=F ITyADJ=14
 ICtDFT= 12500011 ScaDFX=  1.000000  1.000000  1.000000  1.000000
 GSVD:  LWork=       -1209 too small for GESVD, short by        5270 words or        5270 for optimal perf.
 Range of M.O.s used for correlation:    32   436
 NBasis=   437 NAE=    80 NBE=    80 NFC=    31 NFV=     0
 NROrb=    405 NOA=    49 NOB=    49 NVA=   356 NVB=   356

 **** Warning!!: The largest alpha MO coefficient is  0.10036467D+03

 Orbital symmetries:
       Occupied  (A) (A) (A) (A) (A) (A) (A) (A) (A) (A) (A) (A)
                 (A) (A) (A) (A) (A) (A) (A) (A) (A) (A) (A) (A)
                 (A) (A) (A) (A) (A) (A) (A) (A) (A) (A) (A) (A)
                 (A) (A) (A) (A) (A) (A) (A) (A) (A) (A) (A) (A)
                 (A) (A) (A) (A) (A) (A) (A) (A) (A) (A) (A) (A)
                 (A) (A) (A) (A) (A) (A) (A) (A) (A) (A) (A) (A)
                 (A) (A) (A) (A) (A) (A) (A) (A)
       Virtual   (A) (A) (A) (A) (A) (A) (A) (A) (A) (A) (A) (A)
                 (A) (A) (A) (A) (A) (A) (A) (A) (A) (A) (A) (A)
                 (A) (A) (A) (A) (A) (A) (A) (A) (A) (A) (A) (A)
                 (A) (A) (A) (A) (A) (A) (A) (A) (A) (A) (A) (A)
                 (A) (A) (A) (A) (A) (A) (A) (A) (A) (A) (A) (A)
                 (A) (A) (A) (A) (A) (A) (A) (A) (A) (A) (A) (A)
                 (A) (A) (A) (A) (A) (A) (A) (A) (A) (A) (A) (A)
                 (A) (A) (A) (A) (A) (A) (A) (A) (A) (A) (A) (A)
                 (A) (A) (A) (A) (A) (A) (A) (A) (A) (A) (A) (A)
                 (A) (A) (A) (A) (A) (A) (A) (A) (A) (A) (A) (A)
                 (A) (A) (A) (A) (A) (A) (A) (A) (A) (A) (A) (A)
                 (A) (A) (A) (A) (A) (A) (A) (A) (A) (A) (A) (A)
                 (A) (A) (A) (A) (A) (A) (A) (A) (A) (A) (A) (A)
                 (A) (A) (A) (A) (A) (A) (A) (A) (A) (A) (A) (A)
                 (A) (A) (A) (A) (A) (A) (A) (A) (A) (A) (A) (A)
                 (A) (A) (A) (A) (A) (A) (A) (A) (A) (A) (A) (A)
                 (A) (A) (A) (A) (A) (A) (A) (A) (A) (A) (A) (A)
                 (A) (A) (A) (A) (A) (A) (A) (A) (A) (A) (A) (A)
                 (A) (A) (A) (A) (A) (A) (A) (A) (A) (A) (A) (A)
                 (A) (A) (A) (A) (A) (A) (A) (A) (A) (A) (A) (A)
                 (A) (A) (A) (A) (A) (A) (A) (A) (A) (A) (A) (A)
                 (A) (A) (A) (A) (A) (A) (A) (A) (A) (A) (A) (A)
                 (A) (A) (A) (A) (A) (A) (A) (A) (A) (A) (A) (A)
                 (A) (A) (A) (A) (A) (A) (A) (A) (A) (A) (A) (A)
                 (A) (A) (A) (A) (A) (A) (A) (A) (A) (A) (A) (A)
                 (A) (A) (A) (A) (A) (A) (A) (A) (A) (A) (A) (A)
                 (A) (A) (A) (A) (A) (A) (A) (A) (A) (A) (A) (A)
                 (A) (A) (A) (A) (A) (A) (A) (A) (A) (A) (A) (A)
                 (A) (A) (A) (A) (A) (A) (A) (A) (A) (A) (A) (A)
                 (A) (A) (A) (A) (A) (A) (A) (A)
    24 initial guesses have been made.
 Convergence on wavefunction:    0.001000000000000
 Iteration     1 Dimension    24 NMult     0 NNew     24
 CISAX will form    24 AO SS matrices at one time.
 New state      1 was old state      2
 New state      2 was old state     14
 New state      3 was old state      1
 New state      4 was old state     10
 New state      5 was old state      4
 New state      6 was old state      3
 New state      7 was old state      8
 New state      8 was old state      7
 New state      9 was old state      6
 New state     10 was old state      5
 New state     11 was old state     12
 New state     12 was old state     11
 Vector   5 SDiff=4.14D+01 TDiff=4.18D+01 assumed to be singlet.
 Vector  11 SDiff=3.34D+01 TDiff=2.92D+01 assumed to be triplet.
 Iteration     2 Dimension    36 NMult    24 NNew     12
 New state      5 was old state      6
 New state      6 was old state      8
 Iteration     3 Dimension    48 NMult    36 NNew     12
 Iteration     4 Dimension    60 NMult    48 NNew     12
 Iteration     5 Dimension    72 NMult    60 NNew     12
 Iteration     6 Dimension    82 NMult    72 NNew     10
 Iteration     7 Dimension    84 NMult    82 NNew      2
 ***********************************************************************
 Excited states from <AA,BB:AA,BB> singles matrix:
 ***********************************************************************
 
 Ground to excited state transition densities written to RWF  633
 Ground to excited state transition electric dipole moments (Au):
       state          X           Y           Z        Dip. S.      Osc.
         1        -0.0000     -0.0000      0.0000      0.0000      0.0000
         2        -0.0000     -0.0000      0.0000      0.0000      0.0000
         3        -0.8113      0.1404     -0.0335      0.6791      0.0666
         4         0.0000      0.0000      0.0000      0.0000      0.0000
         5         0.1724      0.0808      0.0324      0.0373      0.0043
         6        -0.2549      0.0944      0.0142      0.0741      0.0092
 Ground to excited state transition velocity dipole moments (Au):
       state          X           Y           Z        Dip. S.      Osc.
         1        -0.0000      0.0000     -0.0000      0.0000      0.0000
         2        -0.0000      0.0000     -0.0000      0.0000      0.0000
         3         0.1162     -0.0250      0.0057      0.0141      0.0641
         4         0.0000     -0.0000     -0.0000      0.0000      0.0000
         5        -0.0283     -0.0126     -0.0064      0.0010      0.0039
         6         0.0456     -0.0168     -0.0011      0.0024      0.0084
 Ground to excited state transition magnetic dipole moments (Au):
       state          X           Y           Z
         1        -0.0000      0.0000      0.0000
         2        -0.0000      0.0000      0.0000
         3         0.0301      0.0127      0.0196
         4         0.0000      0.0000     -0.0000
         5        -0.1227     -0.0857     -0.2688
         6         0.2224      0.1965     -0.0034
 Ground to excited state transition velocity quadrupole moments (Au):
       state          XX          YY          ZZ          XY          XZ          YZ
         1        -0.0000     -0.0000     -0.0000      0.0000     -0.0000      0.0000
         2        -0.0000     -0.0000     -0.0000      0.0000     -0.0000     -0.0000
         3         1.3347     -0.1281     -0.0425     -0.0021     -0.0273     -0.0093
         4         0.0000     -0.0000      0.0000     -0.0000     -0.0000      0.0000
         5        -0.4354      0.0493      0.0395     -0.0663      0.0268      0.0046
         6         0.4032      0.0154     -0.0579     -0.0020     -0.0486      0.0336
 <0|del|b> * <b|rxdel|0> + <0|del|b> * <b|delr+rdel|0>
 Rotatory Strengths (R) in cgs (10**-40 erg-esu-cm/Gauss)
       state          XX          YY          ZZ    R(velocity)    E-M Angle
         1        -0.0000     -0.0000      0.0000     -0.0000       90.00
         2        -0.0000     -0.0000     -0.0000     -0.0000       90.00
         3        -2.1657      6.1097     11.8994      5.2811       43.40
         4         0.0000      0.0000     -0.0000      0.0000       90.00
         5         7.3230      9.5534      8.9618      8.6127       49.92
         6        -7.7957     22.1613     11.6249      8.6635       61.66
 1/2[<0|r|b>*<b|rxdel|0> + (<0|rxdel|b>*<b|r|0>)*]
 Rotatory Strengths (R) in cgs (10**-40 erg-esu-cm/Gauss)
       state          XX          YY          ZZ     R(length)
         1        -0.0000      0.0000     -0.0000     -0.0000
         2        -0.0000      0.0000     -0.0000      0.0000
         3        17.2934     -1.2590      0.4649      5.4998
         4        -0.0000     -0.0000      0.0000      0.0000
         5        14.9616      4.8984      6.1640      8.6747
         6        40.0901    -13.1171      0.0341      9.0024
  1/2[<0|del|b>*<b|r|0> + (<0|r|b>*<b|del|0>)*] (Au)
       state          X           Y           Z        Dip. S.   Osc.(frdel)
         1         0.0000     -0.0000     -0.0000      0.0000      0.0000
         2         0.0000     -0.0000     -0.0000     -0.0000     -0.0000
         3        -0.0942     -0.0035     -0.0002      0.0979      0.0653
         4         0.0000     -0.0000     -0.0000     -0.0000     -0.0000
         5        -0.0049     -0.0010     -0.0002      0.0061      0.0041
         6        -0.0116     -0.0016     -0.0000      0.0132      0.0088

 Excitation energies and oscillator strengths:
 
 Excited State   1:      Triplet-A      2.8890 eV  429.16 nm  f=0.0000  <S**2>=2.000
      75 -> 81         0.30822
      76 -> 81         0.13584
      80 -> 81         0.57404
      80 -> 82         0.13200
 This state for optimization and/or second-order correction.
 Total Energy, E(TD-HF/TD-DFT) =  -3357.04673928    
 Copying the excited state density for this state as the 1-particle RhoCI density.
 
 Excited State   2:      Triplet-A      3.5667 eV  347.61 nm  f=0.0000  <S**2>=2.000
      75 -> 81         0.44325
      76 -> 81         0.22595
      77 -> 81         0.12794
      80 -> 81        -0.19405
      80 -> 82        -0.34975
      80 -> 83         0.10954
      80 -> 85         0.11346
 
 Excited State   3:      Singlet-A      4.0025 eV  309.77 nm  f=0.0666  <S**2>=0.000
      80 -> 81         0.69404
 
 Excited State   4:      Triplet-A      4.3655 eV  284.01 nm  f=0.0000  <S**2>=2.000
      75 -> 81         0.22449
      76 -> 81         0.12120
      80 -> 81        -0.34263
      80 -> 82         0.49743
      80 -> 83        -0.12123
 
 Excited State   5:      Singlet-A      4.6711 eV  265.43 nm  f=0.0043  <S**2>=0.000
      77 -> 81        -0.20866
      79 -> 81         0.65863
 
 Excited State   6:      Singlet-A      5.0662 eV  244.73 nm  f=0.0092  <S**2>=0.000
      76 -> 81         0.21612
      77 -> 81         0.52515
      77 -> 82         0.13933
      79 -> 81         0.23787
      79 -> 82        -0.11697
      80 -> 82         0.23684
 SavETr:  write IOETrn=   770 NScale= 10 NData=  16 NLR=1 NState=    6 LETran=     118.

 **********************************************************************

            Population analysis using the SCF Density.

 **********************************************************************

 Orbital symmetries:
       Occupied  (A) (A) (A) (A) (A) (A) (A) (A) (A) (A) (A) (A)
                 (A) (A) (A) (A) (A) (A) (A) (A) (A) (A) (A) (A)
                 (A) (A) (A) (A) (A) (A) (A) (A) (A) (A) (A) (A)
                 (A) (A) (A) (A) (A) (A) (A) (A) (A) (A) (A) (A)
                 (A) (A) (A) (A) (A) (A) (A) (A) (A) (A) (A) (A)
                 (A) (A) (A) (A) (A) (A) (A) (A) (A) (A) (A) (A)
                 (A) (A) (A) (A) (A) (A) (A) (A)
       Virtual   (A) (A) (A) (A) (A) (A) (A) (A) (A) (A) (A) (A)
                 (A) (A) (A) (A) (A) (A) (A) (A) (A) (A) (A) (A)
                 (A) (A) (A) (A) (A) (A) (A) (A) (A) (A) (A) (A)
                 (A) (A) (A) (A) (A) (A) (A) (A) (A) (A) (A) (A)
                 (A) (A) (A) (A) (A) (A) (A) (A) (A) (A) (A) (A)
                 (A) (A) (A) (A) (A) (A) (A) (A) (A) (A) (A) (A)
                 (A) (A) (A) (A) (A) (A) (A) (A) (A) (A) (A) (A)
                 (A) (A) (A) (A) (A) (A) (A) (A) (A) (A) (A) (A)
                 (A) (A) (A) (A) (A) (A) (A) (A) (A) (A) (A) (A)
                 (A) (A) (A) (A) (A) (A) (A) (A) (A) (A) (A) (A)
                 (A) (A) (A) (A) (A) (A) (A) (A) (A) (A) (A) (A)
                 (A) (A) (A) (A) (A) (A) (A) (A) (A) (A) (A) (A)
                 (A) (A) (A) (A) (A) (A) (A) (A) (A) (A) (A) (A)
                 (A) (A) (A) (A) (A) (A) (A) (A) (A) (A) (A) (A)
                 (A) (A) (A) (A) (A) (A) (A) (A) (A) (A) (A) (A)
                 (A) (A) (A) (A) (A) (A) (A) (A) (A) (A) (A) (A)
                 (A) (A) (A) (A) (A) (A) (A) (A) (A) (A) (A) (A)
                 (A) (A) (A) (A) (A) (A) (A) (A) (A) (A) (A) (A)
                 (A) (A) (A) (A) (A) (A) (A) (A) (A) (A) (A) (A)
                 (A) (A) (A) (A) (A) (A) (A) (A) (A) (A) (A) (A)
                 (A) (A) (A) (A) (A) (A) (A) (A) (A) (A) (A) (A)
                 (A) (A) (A) (A) (A) (A) (A) (A) (A) (A) (A) (A)
                 (A) (A) (A) (A) (A) (A) (A) (A) (A) (A) (A) (A)
                 (A) (A) (A) (A) (A) (A) (A) (A) (A) (A) (A) (A)
                 (A) (A) (A) (A) (A) (A) (A) (A) (A) (A) (A) (A)
                 (A) (A) (A) (A) (A) (A) (A) (A) (A) (A) (A) (A)
                 (A) (A) (A) (A) (A) (A) (A) (A) (A) (A) (A) (A)
                 (A) (A) (A) (A) (A) (A) (A) (A) (A) (A) (A) (A)
                 (A) (A) (A) (A) (A) (A) (A) (A) (A) (A) (A) (A)
                 (A) (A) (A) (A) (A) (A) (A) (A)
 The electronic state is 1-A.
 Alpha  occ. eigenvalues -- -482.92728 -61.88786 -56.40440 -56.40064 -56.40050
 Alpha  occ. eigenvalues --  -19.23073 -19.18651 -19.16898 -14.36253 -10.34293
 Alpha  occ. eigenvalues --  -10.29008 -10.27956 -10.27474 -10.26282 -10.25875
 Alpha  occ. eigenvalues --  -10.25348 -10.25057 -10.24519 -10.23564 -10.23479
 Alpha  occ. eigenvalues --  -10.20857 -10.20638  -8.59379  -6.54603  -6.53339
 Alpha  occ. eigenvalues --   -6.53316  -2.66150  -2.65799  -2.65780  -2.64772
 Alpha  occ. eigenvalues --   -2.64772  -1.13945  -1.06785  -1.05889  -0.92954
 Alpha  occ. eigenvalues --   -0.87525  -0.85389  -0.83184  -0.81080  -0.76670
 Alpha  occ. eigenvalues --   -0.73765  -0.71548  -0.70384  -0.67363  -0.64565
 Alpha  occ. eigenvalues --   -0.62902  -0.60670  -0.58625  -0.56178  -0.52879
 Alpha  occ. eigenvalues --   -0.51572  -0.50983  -0.50180  -0.48664  -0.48001
 Alpha  occ. eigenvalues --   -0.46791  -0.46452  -0.45292  -0.44883  -0.43988
 Alpha  occ. eigenvalues --   -0.42940  -0.42380  -0.41571  -0.40557  -0.40293
 Alpha  occ. eigenvalues --   -0.39953  -0.38622  -0.38293  -0.38027  -0.37558
 Alpha  occ. eigenvalues --   -0.37008  -0.36192  -0.35354  -0.34714  -0.31341
 Alpha  occ. eigenvalues --   -0.30716  -0.29480  -0.28987  -0.27956  -0.26214
 Alpha virt. eigenvalues --   -0.08899  -0.04464  -0.03065  -0.01780  -0.01020
 Alpha virt. eigenvalues --   -0.00684   0.00401   0.00782   0.01011   0.01620
 Alpha virt. eigenvalues --    0.02146   0.02410   0.02965   0.03680   0.03925
 Alpha virt. eigenvalues --    0.04098   0.04871   0.04948   0.05519   0.05730
 Alpha virt. eigenvalues --    0.06020   0.06435   0.06613   0.06904   0.06933
 Alpha virt. eigenvalues --    0.07213   0.08311   0.08689   0.08839   0.09257
 Alpha virt. eigenvalues --    0.09772   0.10100   0.10280   0.10755   0.11277
 Alpha virt. eigenvalues --    0.11470   0.11883   0.11998   0.12383   0.13020
 Alpha virt. eigenvalues --    0.13284   0.13775   0.14378   0.14933   0.15407
 Alpha virt. eigenvalues --    0.15847   0.16225   0.16504   0.16841   0.17264
 Alpha virt. eigenvalues --    0.17681   0.18047   0.18385   0.18509   0.18920
 Alpha virt. eigenvalues --    0.19241   0.19699   0.19912   0.20315   0.21036
 Alpha virt. eigenvalues --    0.21488   0.21570   0.22104   0.22213   0.22912
 Alpha virt. eigenvalues --    0.23279   0.23690   0.24170   0.24559   0.24710
 Alpha virt. eigenvalues --    0.24981   0.25435   0.26082   0.26639   0.27053
 Alpha virt. eigenvalues --    0.27289   0.27790   0.28128   0.28683   0.29124
 Alpha virt. eigenvalues --    0.29391   0.29458   0.30254   0.30964   0.31371
 Alpha virt. eigenvalues --    0.31801   0.32493   0.33062   0.33621   0.33659
 Alpha virt. eigenvalues --    0.34387   0.35002   0.35445   0.36183   0.36607
 Alpha virt. eigenvalues --    0.37301   0.38736   0.39775   0.40475   0.40796
 Alpha virt. eigenvalues --    0.41285   0.42374   0.43324   0.43628   0.44872
 Alpha virt. eigenvalues --    0.45787   0.46613   0.47253   0.48402   0.49079
 Alpha virt. eigenvalues --    0.49677   0.51480   0.53365   0.54134   0.56794
 Alpha virt. eigenvalues --    0.58156   0.60572   0.61411   0.62067   0.63814
 Alpha virt. eigenvalues --    0.64730   0.65244   0.66528   0.67616   0.68832
 Alpha virt. eigenvalues --    0.69502   0.70233   0.71093   0.72531   0.72961
 Alpha virt. eigenvalues --    0.73323   0.74462   0.75033   0.75942   0.76793
 Alpha virt. eigenvalues --    0.77621   0.77917   0.79002   0.80290   0.81341
 Alpha virt. eigenvalues --    0.81732   0.82168   0.83406   0.84467   0.84881
 Alpha virt. eigenvalues --    0.85677   0.86826   0.88369   0.90702   0.91385
 Alpha virt. eigenvalues --    0.91587   0.92659   0.93241   0.93964   0.94732
 Alpha virt. eigenvalues --    0.94861   0.95938   0.98356   0.99307   0.99580
 Alpha virt. eigenvalues --    1.00274   1.01488   1.02193   1.03176   1.04515
 Alpha virt. eigenvalues --    1.05100   1.05900   1.06195   1.08458   1.08660
 Alpha virt. eigenvalues --    1.09153   1.10552   1.11642   1.12803   1.13370
 Alpha virt. eigenvalues --    1.14837   1.15840   1.17211   1.18665   1.21794
 Alpha virt. eigenvalues --    1.22272   1.24696   1.25464   1.26846   1.28354
 Alpha virt. eigenvalues --    1.29013   1.30340   1.31860   1.33677   1.34464
 Alpha virt. eigenvalues --    1.36005   1.36406   1.38482   1.38592   1.39668
 Alpha virt. eigenvalues --    1.40872   1.42298   1.43746   1.45202   1.45430
 Alpha virt. eigenvalues --    1.46964   1.49630   1.50662   1.51639   1.52986
 Alpha virt. eigenvalues --    1.54084   1.56007   1.57632   1.59710   1.60395
 Alpha virt. eigenvalues --    1.61468   1.62225   1.65509   1.66618   1.68436
 Alpha virt. eigenvalues --    1.69425   1.71634   1.72978   1.74644   1.75434
 Alpha virt. eigenvalues --    1.77256   1.78823   1.79964   1.80983   1.81573
 Alpha virt. eigenvalues --    1.83502   1.84266   1.85548   1.86806   1.88545
 Alpha virt. eigenvalues --    1.89273   1.89796   1.90543   1.90946   1.92976
 Alpha virt. eigenvalues --    1.93599   1.94701   1.95530   1.97411   1.98419
 Alpha virt. eigenvalues --    1.99109   2.00016   2.01792   2.02380   2.03581
 Alpha virt. eigenvalues --    2.03637   2.05117   2.06451   2.07496   2.08372
 Alpha virt. eigenvalues --    2.09228   2.09615   2.10991   2.12100   2.12541
 Alpha virt. eigenvalues --    2.12990   2.13087   2.14446   2.15141   2.16999
 Alpha virt. eigenvalues --    2.19043   2.22138   2.23075   2.23624   2.26724
 Alpha virt. eigenvalues --    2.26959   2.30719   2.32297   2.32368   2.33394
 Alpha virt. eigenvalues --    2.34156   2.35895   2.38093   2.40150   2.41800
 Alpha virt. eigenvalues --    2.42994   2.44792   2.46311   2.49289   2.50949
 Alpha virt. eigenvalues --    2.51305   2.52245   2.54057   2.54180   2.56448
 Alpha virt. eigenvalues --    2.57983   2.60135   2.62003   2.64196   2.65926
 Alpha virt. eigenvalues --    2.67075   2.68393   2.70380   2.70709   2.71835
 Alpha virt. eigenvalues --    2.73435   2.74167   2.76125   2.78354   2.79723
 Alpha virt. eigenvalues --    2.79932   2.81084   2.82460   2.83595   2.85255
 Alpha virt. eigenvalues --    2.86683   2.86915   2.88431   2.89639   2.90163
 Alpha virt. eigenvalues --    2.94008   2.96051   2.97252   2.98394   3.02445
 Alpha virt. eigenvalues --    3.05444   3.08752   3.13184   3.23184   3.25112
 Alpha virt. eigenvalues --    3.25422   3.26006   3.26589   3.28692   3.32082
 Alpha virt. eigenvalues --    3.34814   3.37331   3.38078   3.41286   3.42752
 Alpha virt. eigenvalues --    3.43754   3.47972   3.49422   3.49732   3.51461
 Alpha virt. eigenvalues --    3.54612   3.59250   4.21967   4.28417   4.34391
 Alpha virt. eigenvalues --    4.35456   4.36511   4.39941   4.42529   4.43319
 Alpha virt. eigenvalues --    4.46174   4.52951   4.57933   4.62265   4.68061
 Alpha virt. eigenvalues --    4.71298   4.73603   4.76809   4.91898   8.91335
 Alpha virt. eigenvalues --   79.08325
          Condensed to atoms (all electrons):
               1          2          3          4          5          6
     1  C    7.486453  -1.234495  -1.604242   0.017228   1.512200  -0.862206
     2  C   -1.234495  13.116005   0.470262   0.077859  -7.352683   2.386889
     3  C   -1.604242   0.470262  10.329512   0.067129  -3.131677   0.317092
     4  N    0.017228   0.077859   0.067129   7.212738   0.130357  -0.022947
     5  C    1.512200  -7.352683  -3.131677   0.130357  19.389742  -4.588761
     6  C   -0.862206   2.386889   0.317092  -0.022947  -4.588761  11.935761
     7  C    0.246206  -0.825933  -0.156962   0.000149   1.965667  -2.878302
     8  C    0.073713  -0.251782  -0.060991   0.000504   0.210780   0.161122
     9  C   -0.122750   0.392128   0.024441   0.004154  -0.318669   0.201196
    10  C   -0.267834  -0.579662   0.047627  -0.000317  -3.716916   0.584767
    11  C    0.079735  -0.126860  -0.104581   0.000138   0.770204  -0.298922
    12  O    0.001330  -0.000830  -0.001878  -0.000000   0.031321  -0.010603
    13  C   -0.000603   0.005211  -0.000497   0.000097  -0.081998  -0.169634
    14  C    0.001607  -0.005905  -0.001972  -0.000005   0.035918   0.042541
    15  Br   0.000064  -0.000144  -0.000138   0.000002  -0.000116  -0.005292
    16  C    0.075966   0.010969  -0.163505   0.007265   0.392155  -0.474856
    17  O   -0.004018   0.016826  -0.004103   0.000091  -0.027315   0.017384
    18  O   -0.003975  -0.175459  -0.002403   0.000088   0.143054   0.062256
    19  H    0.446545  -0.056086  -0.018378  -0.000090  -0.028841   0.012646
    20  H    0.463339  -0.088974  -0.014922  -0.000039  -0.005926  -0.001450
    21  H   -0.002952   0.024477  -0.010908   0.000254   0.030768  -0.003508
    22  H   -0.002433   0.010313   0.000301   0.000002  -0.029717   0.024231
    23  H   -0.000383  -0.000906  -0.000202   0.000002  -0.017683  -0.005494
    24  H   -0.000188  -0.013347   0.000137  -0.000001   0.037647   0.071161
    25  H   -0.003209  -0.003560  -0.000730   0.000018  -0.013656  -0.018202
    26  H   -0.003448   0.037769  -0.011822   0.000437  -0.016139   0.016816
    27  H   -0.000193   0.009486   0.001757  -0.000014   0.017837   0.090816
    28  H    0.003712   0.001757  -0.004671   0.000017   0.016794  -0.015563
    29  H   -0.000063  -0.016510   0.000032  -0.000009   0.013948   0.015926
    30  H   -0.000055   0.029454  -0.001161   0.000075  -0.015499   0.021526
    31  H   -0.000001   0.000025  -0.000002   0.000000   0.000003   0.001756
    32  H   -0.000003   0.000613  -0.000020   0.000001   0.001432  -0.008820
    33  H   -0.000004  -0.000019   0.000021  -0.000000  -0.000472   0.001573
    34  H    0.000000   0.000060  -0.000006   0.000000   0.000533  -0.002640
               7          8          9         10         11         12
     1  C    0.246206   0.073713  -0.122750  -0.267834   0.079735   0.001330
     2  C   -0.825933  -0.251782   0.392128  -0.579662  -0.126860  -0.000830
     3  C   -0.156962  -0.060991   0.024441   0.047627  -0.104581  -0.001878
     4  N    0.000149   0.000504   0.004154  -0.000317   0.000138  -0.000000
     5  C    1.965667   0.210780  -0.318669  -3.716916   0.770204   0.031321
     6  C   -2.878302   0.161122   0.201196   0.584767  -0.298922  -0.010603
     7  C    9.218793  -0.504346  -0.310394  -0.648460   0.134419  -0.003608
     8  C   -0.504346   5.909884  -0.269700  -0.037773  -0.087915   0.011113
     9  C   -0.310394  -0.269700   5.819967  -0.082672  -0.099836   0.003549
    10  C   -0.648460  -0.037773  -0.082672  13.287348  -2.451763  -0.077828
    11  C    0.134419  -0.087915  -0.099836  -2.451763   8.263546   0.216615
    12  O   -0.003608   0.011113   0.003549  -0.077828   0.216615   8.318606
    13  C    0.046266  -0.008367  -0.019671   0.402915  -0.596244   0.100691
    14  C   -0.002354  -0.005762   0.001049  -0.276418   0.246945  -0.066811
    15  Br   0.002254  -0.000986  -0.000707   0.001277  -0.071803   0.016337
    16  C   -0.054287   0.055581  -0.008952  -0.099755  -0.356871  -0.052028
    17  O    0.022633  -0.002378  -0.000806  -0.191391   0.027253   0.010952
    18  O   -0.103775  -0.000276   0.005093  -0.103392   0.027134  -0.000093
    19  H    0.003857   0.001616  -0.001776  -0.005800  -0.000526   0.000000
    20  H    0.003039   0.001197  -0.001612  -0.002016  -0.000143   0.000000
    21  H    0.215918  -0.001042   0.032210  -0.028312  -0.001474   0.000084
    22  H   -0.082398   0.428780  -0.009935   0.012341   0.006720   0.000003
    23  H   -0.097767   0.457926  -0.002164   0.038310  -0.016251  -0.000143
    24  H   -0.145782   0.469811  -0.005821  -0.058758  -0.017671   0.001024
    25  H   -0.063090   0.000104   0.438488   0.024964  -0.004005  -0.000022
    26  H   -0.096331  -0.003219   0.457423  -0.022150   0.004619   0.000024
    27  H   -0.180097  -0.016867   0.488764  -0.065512  -0.006892   0.000343
    28  H   -0.035801   0.031055  -0.005129   0.328142   0.008177  -0.004904
    29  H    0.055283  -0.022831  -0.010819  -0.112202   0.480661  -0.061530
    30  H   -0.025233   0.008041   0.002454   0.011747   0.328183  -0.048765
    31  H   -0.000559   0.000216   0.000104  -0.008885   0.033292  -0.060414
    32  H    0.000259  -0.000046  -0.000129   0.002614  -0.044861  -0.044428
    33  H   -0.000104   0.000125   0.000096   0.013607   0.027587  -0.007616
    34  H   -0.000374  -0.000284  -0.000083  -0.016958  -0.006093   0.003996
              13         14         15         16         17         18
     1  C   -0.000603   0.001607   0.000064   0.075966  -0.004018  -0.003975
     2  C    0.005211  -0.005905  -0.000144   0.010969   0.016826  -0.175459
     3  C   -0.000497  -0.001972  -0.000138  -0.163505  -0.004103  -0.002403
     4  N    0.000097  -0.000005   0.000002   0.007265   0.000091   0.000088
     5  C   -0.081998   0.035918  -0.000116   0.392155  -0.027315   0.143054
     6  C   -0.169634   0.042541  -0.005292  -0.474856   0.017384   0.062256
     7  C    0.046266  -0.002354   0.002254  -0.054287   0.022633  -0.103775
     8  C   -0.008367  -0.005762  -0.000986   0.055581  -0.002378  -0.000276
     9  C   -0.019671   0.001049  -0.000707  -0.008952  -0.000806   0.005093
    10  C    0.402915  -0.276418   0.001277  -0.099755  -0.191391  -0.103392
    11  C   -0.596244   0.246945  -0.071803  -0.356871   0.027253   0.027134
    12  O    0.100691  -0.066811   0.016337  -0.052028   0.010952  -0.000093
    13  C    5.529007  -0.015098  -0.035338   0.005659  -0.000523  -0.000021
    14  C   -0.015098   5.467691   0.259922   0.010678   0.000310   0.001438
    15  Br  -0.035338   0.259922  34.966349   0.004340   0.000063   0.000094
    16  C    0.005659   0.010678   0.004340   5.757405   0.478321   0.022868
    17  O   -0.000523   0.000310   0.000063   0.478321   8.159331  -0.073366
    18  O   -0.000021   0.001438   0.000094   0.022868  -0.073366   8.430999
    19  H   -0.000002  -0.000001  -0.000000  -0.000257   0.000015   0.000399
    20  H    0.000000  -0.000000  -0.000000   0.000476  -0.000001  -0.000110
    21  H   -0.000182   0.000157   0.000002   0.003888  -0.000016   0.000998
    22  H    0.000237  -0.000357  -0.000011  -0.001990  -0.000001   0.000032
    23  H   -0.000174  -0.000150  -0.000007   0.004771   0.000024  -0.000275
    24  H   -0.001224   0.002799   0.000127   0.007225  -0.000072   0.000133
    25  H   -0.000034  -0.000242  -0.000010   0.000097  -0.000001  -0.000016
    26  H    0.000207  -0.000313  -0.000014  -0.003463   0.000016  -0.000300
    27  H   -0.002446   0.002749   0.000118   0.000881  -0.000012   0.000287
    28  H    0.000871  -0.005373  -0.000112  -0.050282   0.001785   0.011087
    29  H   -0.032709   0.013374  -0.001166  -0.018389  -0.000311  -0.000262
    30  H    0.037900  -0.036840   0.000176  -0.018429   0.005481  -0.000781
    31  H    0.405468  -0.041112  -0.000525  -0.000527  -0.000081  -0.000008
    32  H    0.452085  -0.069004   0.008895   0.005978   0.000847  -0.000118
    33  H   -0.047540   0.364136  -0.043082  -0.000711  -0.000004  -0.000000
    34  H   -0.046583   0.410053  -0.028166   0.000031   0.000016   0.000000
              19         20         21         22         23         24
     1  C    0.446545   0.463339  -0.002952  -0.002433  -0.000383  -0.000188
     2  C   -0.056086  -0.088974   0.024477   0.010313  -0.000906  -0.013347
     3  C   -0.018378  -0.014922  -0.010908   0.000301  -0.000202   0.000137
     4  N   -0.000090  -0.000039   0.000254   0.000002   0.000002  -0.000001
     5  C   -0.028841  -0.005926   0.030768  -0.029717  -0.017683   0.037647
     6  C    0.012646  -0.001450  -0.003508   0.024231  -0.005494   0.071161
     7  C    0.003857   0.003039   0.215918  -0.082398  -0.097767  -0.145782
     8  C    0.001616   0.001197  -0.001042   0.428780   0.457926   0.469811
     9  C   -0.001776  -0.001612   0.032210  -0.009935  -0.002164  -0.005821
    10  C   -0.005800  -0.002016  -0.028312   0.012341   0.038310  -0.058758
    11  C   -0.000526  -0.000143  -0.001474   0.006720  -0.016251  -0.017671
    12  O    0.000000   0.000000   0.000084   0.000003  -0.000143   0.001024
    13  C   -0.000002   0.000000  -0.000182   0.000237  -0.000174  -0.001224
    14  C   -0.000001  -0.000000   0.000157  -0.000357  -0.000150   0.002799
    15  Br  -0.000000  -0.000000   0.000002  -0.000011  -0.000007   0.000127
    16  C   -0.000257   0.000476   0.003888  -0.001990   0.004771   0.007225
    17  O    0.000015  -0.000001  -0.000016  -0.000001   0.000024  -0.000072
    18  O    0.000399  -0.000110   0.000998   0.000032  -0.000275   0.000133
    19  H    0.519797  -0.029955  -0.000099  -0.000003   0.000097  -0.000001
    20  H   -0.029955   0.507493  -0.000013   0.000000   0.000000  -0.000000
    21  H   -0.000099  -0.000013   0.618932  -0.004063  -0.004569   0.005316
    22  H   -0.000003   0.000000  -0.004063   0.545748  -0.025668  -0.027451
    23  H    0.000097   0.000000  -0.004569  -0.025668   0.548941  -0.030135
    24  H   -0.000001  -0.000000   0.005316  -0.027451  -0.030135   0.547568
    25  H   -0.000000  -0.000001  -0.004984   0.002980   0.000104  -0.000125
    26  H   -0.000001  -0.000001  -0.004046   0.000099  -0.000143   0.000015
    27  H   -0.000001   0.000000   0.005591  -0.000167   0.000016   0.002669
    28  H    0.000004  -0.000000  -0.000015   0.000032  -0.000090  -0.000853
    29  H    0.000000  -0.000000  -0.000009  -0.000001   0.000060   0.001112
    30  H    0.000000  -0.000000   0.000003   0.000000  -0.000002   0.000017
    31  H    0.000000  -0.000000   0.000000   0.000000  -0.000000   0.000000
    32  H   -0.000000   0.000000  -0.000000   0.000000   0.000000  -0.000000
    33  H    0.000000  -0.000000   0.000000   0.000000  -0.000000  -0.000001
    34  H   -0.000000  -0.000000  -0.000000   0.000000   0.000000  -0.000001
              25         26         27         28         29         30
     1  C   -0.003209  -0.003448  -0.000193   0.003712  -0.000063  -0.000055
     2  C   -0.003560   0.037769   0.009486   0.001757  -0.016510   0.029454
     3  C   -0.000730  -0.011822   0.001757  -0.004671   0.000032  -0.001161
     4  N    0.000018   0.000437  -0.000014   0.000017  -0.000009   0.000075
     5  C   -0.013656  -0.016139   0.017837   0.016794   0.013948  -0.015499
     6  C   -0.018202   0.016816   0.090816  -0.015563   0.015926   0.021526
     7  C   -0.063090  -0.096331  -0.180097  -0.035801   0.055283  -0.025233
     8  C    0.000104  -0.003219  -0.016867   0.031055  -0.022831   0.008041
     9  C    0.438488   0.457423   0.488764  -0.005129  -0.010819   0.002454
    10  C    0.024964  -0.022150  -0.065512   0.328142  -0.112202   0.011747
    11  C   -0.004005   0.004619  -0.006892   0.008177   0.480661   0.328183
    12  O   -0.000022   0.000024   0.000343  -0.004904  -0.061530  -0.048765
    13  C   -0.000034   0.000207  -0.002446   0.000871  -0.032709   0.037900
    14  C   -0.000242  -0.000313   0.002749  -0.005373   0.013374  -0.036840
    15  Br  -0.000010  -0.000014   0.000118  -0.000112  -0.001166   0.000176
    16  C    0.000097  -0.003463   0.000881  -0.050282  -0.018389  -0.018429
    17  O   -0.000001   0.000016  -0.000012   0.001785  -0.000311   0.005481
    18  O   -0.000016  -0.000300   0.000287   0.011087  -0.000262  -0.000781
    19  H   -0.000000  -0.000001  -0.000001   0.000004   0.000000   0.000000
    20  H   -0.000001  -0.000001   0.000000  -0.000000  -0.000000  -0.000000
    21  H   -0.004984  -0.004046   0.005591  -0.000015  -0.000009   0.000003
    22  H    0.002980   0.000099  -0.000167   0.000032  -0.000001   0.000000
    23  H    0.000104  -0.000143   0.000016  -0.000090   0.000060  -0.000002
    24  H   -0.000125   0.000015   0.002669  -0.000853   0.001112   0.000017
    25  H    0.547479  -0.025786  -0.029298   0.000004   0.000073   0.000003
    26  H   -0.025786   0.539498  -0.028569  -0.000004  -0.000038  -0.000026
    27  H   -0.029298  -0.028569   0.569166   0.000054   0.003053   0.000215
    28  H    0.000004  -0.000004   0.000054   0.516821  -0.004890   0.005043
    29  H    0.000073  -0.000038   0.003053  -0.004890   0.634548  -0.053982
    30  H    0.000003  -0.000026   0.000215   0.005043  -0.053982   0.607473
    31  H   -0.000000  -0.000000   0.000000   0.000001  -0.000258  -0.000120
    32  H    0.000000   0.000000  -0.000001   0.000032  -0.001031   0.009995
    33  H   -0.000000  -0.000000   0.000031   0.000001  -0.001837  -0.000301
    34  H    0.000000  -0.000000  -0.000008   0.000015   0.000275   0.000306
              31         32         33         34
     1  C   -0.000001  -0.000003  -0.000004   0.000000
     2  C    0.000025   0.000613  -0.000019   0.000060
     3  C   -0.000002  -0.000020   0.000021  -0.000006
     4  N    0.000000   0.000001  -0.000000   0.000000
     5  C    0.000003   0.001432  -0.000472   0.000533
     6  C    0.001756  -0.008820   0.001573  -0.002640
     7  C   -0.000559   0.000259  -0.000104  -0.000374
     8  C    0.000216  -0.000046   0.000125  -0.000284
     9  C    0.000104  -0.000129   0.000096  -0.000083
    10  C   -0.008885   0.002614   0.013607  -0.016958
    11  C    0.033292  -0.044861   0.027587  -0.006093
    12  O   -0.060414  -0.044428  -0.007616   0.003996
    13  C    0.405468   0.452085  -0.047540  -0.046583
    14  C   -0.041112  -0.069004   0.364136   0.410053
    15  Br  -0.000525   0.008895  -0.043082  -0.028166
    16  C   -0.000527   0.005978  -0.000711   0.000031
    17  O   -0.000081   0.000847  -0.000004   0.000016
    18  O   -0.000008  -0.000118  -0.000000   0.000000
    19  H    0.000000  -0.000000   0.000000  -0.000000
    20  H   -0.000000   0.000000  -0.000000  -0.000000
    21  H    0.000000  -0.000000   0.000000  -0.000000
    22  H    0.000000   0.000000   0.000000   0.000000
    23  H   -0.000000   0.000000  -0.000000   0.000000
    24  H    0.000000  -0.000000  -0.000001  -0.000001
    25  H   -0.000000   0.000000  -0.000000   0.000000
    26  H   -0.000000   0.000000  -0.000000  -0.000000
    27  H    0.000000  -0.000001   0.000031  -0.000008
    28  H    0.000001   0.000032   0.000001   0.000015
    29  H   -0.000258  -0.001031  -0.001837   0.000275
    30  H   -0.000120   0.009995  -0.000301   0.000306
    31  H    0.540970  -0.030627   0.004575  -0.005001
    32  H   -0.030627   0.568785  -0.007046   0.004647
    33  H    0.004575  -0.007046   0.555709  -0.036761
    34  H   -0.005001   0.004647  -0.036761   0.531685
 Mulliken charges:
               1
     1  C   -0.295044
     2  C    0.143051
     3  C    0.037459
     4  N   -0.495183
     5  C    0.645706
     6  C   -0.598258
     7  C    0.301212
     8  C   -0.547006
     9  C   -0.599494
    10  C    0.099115
    11  C   -0.362518
    12  O   -0.274487
    13  C    0.072272
    14  C   -0.333650
    15  Br  -0.072405
    16  C    0.459749
    17  O   -0.436949
    18  O   -0.241333
    19  H    0.156838
    20  H    0.169617
    21  H    0.127593
    22  H    0.152376
    23  H    0.151954
    24  H    0.154671
    25  H    0.152656
    26  H    0.158890
    27  H    0.136243
    28  H    0.202281
    29  H    0.120503
    30  H    0.133099
    31  H    0.161711
    32  H    0.149954
    33  H    0.178038
    34  H    0.191340
 Sum of Mulliken charges =  -0.00000
 Mulliken charges with hydrogens summed into heavy atoms:
               1
     1  C    0.031411
     2  C    0.143051
     3  C    0.037459
     4  N   -0.495183
     5  C    0.645706
     6  C   -0.598258
     7  C    0.428804
     8  C   -0.088005
     9  C   -0.151704
    10  C    0.301396
    11  C   -0.108917
    12  O   -0.274487
    13  C    0.383937
    14  C    0.035728
    15  Br  -0.072405
    16  C    0.459749
    17  O   -0.436949
    18  O   -0.241333
 Electronic spatial extent (au):  <R**2>=           9293.8335
 Charge=             -0.0000 electrons
 Dipole moment (field-independent basis, Debye):
    X=              1.1631    Y=              6.9431    Z=             -1.8336  Tot=              7.2748
 Quadrupole moment (field-independent basis, Debye-Ang):
   XX=           -130.0567   YY=           -130.9514   ZZ=           -129.8130
   XY=             19.3067   XZ=            -14.8556   YZ=             -0.2387
 Traceless Quadrupole moment (field-independent basis, Debye-Ang):
   XX=              0.2170   YY=             -0.6777   ZZ=              0.4607
   XY=             19.3067   XZ=            -14.8556   YZ=             -0.2387
 Octapole moment (field-independent basis, Debye-Ang**2):
  XXX=            -92.7167  YYY=             36.0336  ZZZ=            -22.4415  XYY=            -81.3586
  XXY=             73.0247  XXZ=            -89.3652  XZZ=            -95.2218  YZZ=             16.6200
  YYZ=              3.6194  XYZ=             20.9408
 Hexadecapole moment (field-independent basis, Debye-Ang**3):
 XXXX=          -8792.1027 YYYY=          -1681.0530 ZZZZ=           -890.2987 XXXY=            441.2173
 XXXZ=           -481.8328 YYYX=             84.8999 YYYZ=             -5.2952 ZZZX=           -238.0806
 ZZZY=             55.3604 XXYY=          -1817.1922 XXZZ=          -1828.5482 YYZZ=           -446.7481
 XXYZ=            127.1993 YYXZ=            -72.9454 ZZXY=             85.6425
 N-N= 1.593788743192D+03 E-N=-1.114583569807D+04  KE= 3.333653553312D+03
 Unable to Open any file for archive entry.
 1\1\GINC-N2\SP\RB3LYP TD-FC\6-31+G(d,p)\C13H16Br1N1O3\HPCMGAC13\06-Aug
 -2025\0\\# td=(50-50,nstates=3) b3lyp/6-31+g(d,p) geom=connectivity\\T
 itle Card Required\\0,1\C,0,-5.356159,0.612149,0.298477\C,0,-4.442008,
 -0.171962,-0.300728\C,0,-4.798919,-0.930444,-1.473839\N,0,-5.074138,-1
 .530774,-2.431366\C,0,-3.05118,-0.319398,0.177408\C,0,-2.06671,0.57313
 7,0.384495\C,0,-2.136501,2.071421,0.172201\C,0,-1.526245,2.846733,1.35
 5866\C,0,-1.522608,2.521519,-1.173294\C,0,-0.877573,-0.203644,0.923982
 \C,0,0.471488,-0.048092,0.199635\O,0,1.481986,-0.520887,1.073556\C,0,2
 .71121,-0.885322,0.454294\C,0,3.406628,0.34476,-0.120603\Br,0,5.294813
 ,0.006665,-0.52995\C,0,-1.376886,-1.651606,0.892836\O,0,-0.812668,-2.6
 72827,1.16971\O,0,-2.688156,-1.642889,0.445135\H,0,-5.109774,1.160369,
 1.201033\H,0,-6.360324,0.709356,-0.099542\H,0,-3.198417,2.33407,0.1233
 23\H,0,-1.662128,3.923506,1.21225\H,0,-2.000122,2.570824,2.303906\H,0,
 -0.450389,2.662018,1.452321\H,0,-1.704954,3.591206,-1.324086\H,0,-1.97
 0603,1.980083,-2.011997\H,0,-0.439999,2.366668,-1.210402\H,0,-0.689141
 ,0.060056,1.974897\H,0,0.635089,1.008396,-0.042296\H,0,0.470452,-0.616
 453,-0.742981\H,0,3.315261,-1.329795,1.247741\H,0,2.544306,-1.643609,-
 0.323634\H,0,2.95974,0.687898,-1.053711\H,0,3.404987,1.154873,0.609401
 \\Version=ES64L-G16RevC.02\State=1-A\HF=-3357.1529085\RMSD=3.138e-09\P
 G=C01 [X(C13H16Br1N1O3)]\\@
 The archive entry for this job was punched.


 MAN IS THE MEASURE OF ALL THINGS.
  -- PROTAGORAS (5TH CENTURY B.C.)
 Job cpu time:       0 days  1 hours 26 minutes 30.6 seconds.
 Elapsed time:       0 days  0 hours  5 minutes 33.1 seconds.
 File lengths (MBytes):  RWF=   1076 Int=      0 D2E=      0 Chk=     50 Scr=      2
 Normal termination of Gaussian 16 at Wed Aug  6 22:51:17 2025.
