 Entering Gaussian System, Link 0=g16
 Input=M1671e.gjf
 Output=M1671e.log
 Initial command:
 /hpc/softwares/Gaussian/g16/l1.exe "/hpc/home/hpcmgac13/pbs.12881.admin1.x8z/Gau-2095442.inp" -scrdir="/hpc/home/hpcmgac13/pbs.12881.admin1.x8z/"
 Default linda workers: n2
 Default is to use  16 SMP processors on each worker.
 Entering Link 1 = /hpc/softwares/Gaussian/g16/l1.exe PID=   2095443.
  
 Copyright (c) 1988-2021, Gaussian, Inc.  All Rights Reserved.
  
 This is part of the Gaussian(R) 16 program.  It is based on
 the Gaussian(R) 09 system (copyright 2009, Gaussian, Inc.),
 the Gaussian(R) 03 system (copyright 2003, Gaussian, Inc.),
 the Gaussian(R) 98 system (copyright 1998, Gaussian, Inc.),
 the Gaussian(R) 94 system (copyright 1995, Gaussian, Inc.),
 the Gaussian 92(TM) system (copyright 1992, Gaussian, Inc.),
 the Gaussian 90(TM) system (copyright 1990, Gaussian, Inc.),
 the Gaussian 88(TM) system (copyright 1988, Gaussian, Inc.),
 the Gaussian 86(TM) system (copyright 1986, Carnegie Mellon
 University), and the Gaussian 82(TM) system (copyright 1983,
 Carnegie Mellon University). Gaussian is a federally registered
 trademark of Gaussian, Inc.
  
 This software contains proprietary and confidential information,
 including trade secrets, belonging to Gaussian, Inc.
  
 This software is provided under written license and may be
 used, copied, transmitted, or stored only in accord with that
 written license.
  
 The following legend is applicable only to US Government
 contracts under FAR:
  
                    RESTRICTED RIGHTS LEGEND
  
 Use, reproduction and disclosure by the US Government is
 subject to restrictions as set forth in subparagraphs (a)
 and (c) of the Commercial Computer Software - Restricted
 Rights clause in FAR 52.227-19.
  
 Gaussian, Inc.
 340 Quinnipiac St., Bldg. 40, Wallingford CT 06492
  
  
 ---------------------------------------------------------------
 Warning -- This program may not be used in any manner that
 competes with the business of Gaussian, Inc. or will provide
 assistance to any competitor of Gaussian, Inc.  The licensee
 of this program is prohibited from giving any competitor of
 Gaussian, Inc. access to this program.  By using this program,
 the user acknowledges that Gaussian, Inc. is engaged in the
 business of creating and licensing software in the field of
 computational chemistry and represents and warrants to the
 licensee that it is not a competitor of Gaussian, Inc. and that
 it will not use this program in any manner prohibited above.
 ---------------------------------------------------------------
  

 Cite this work as:
 Gaussian 16, Revision C.02,
 M. J. Frisch, G. W. Trucks, H. B. Schlegel, G. E. Scuseria, 
 M. A. Robb, J. R. Cheeseman, G. Scalmani, V. Barone, 
 G. A. Petersson, H. Nakatsuji, X. Li, M. Caricato, A. V. Marenich, 
 J. Bloino, B. G. Janesko, R. Gomperts, B. Mennucci, H. P. Hratchian, 
 J. V. Ortiz, A. F. Izmaylov, J. L. Sonnenberg, D. Williams-Young, 
 F. Ding, F. Lipparini, F. Egidi, J. Goings, B. Peng, A. Petrone, 
 T. Henderson, D. Ranasinghe, V. G. Zakrzewski, J. Gao, N. Rega, 
 G. Zheng, W. Liang, M. Hada, M. Ehara, K. Toyota, R. Fukuda, 
 J. Hasegawa, M. Ishida, T. Nakajima, Y. Honda, O. Kitao, H. Nakai, 
 T. Vreven, K. Throssell, J. A. Montgomery, Jr., J. E. Peralta, 
 F. Ogliaro, M. J. Bearpark, J. J. Heyd, E. N. Brothers, K. N. Kudin, 
 V. N. Staroverov, T. A. Keith, R. Kobayashi, J. Normand, 
 K. Raghavachari, A. P. Rendell, J. C. Burant, S. S. Iyengar, 
 J. Tomasi, M. Cossi, J. M. Millam, M. Klene, C. Adamo, R. Cammi, 
 J. W. Ochterski, R. L. Martin, K. Morokuma, O. Farkas, 
 J. B. Foresman, and D. J. Fox, Gaussian, Inc., Wallingford CT, 2019.
 
 ******************************************
 Gaussian 16:  ES64L-G16RevC.02  7-Dec-2021
                 6-Aug-2025 
 ******************************************
 SetLPE:    new flags="-opt 'Tsnet.Node.lindarsharg: ssh'  -nodelist 'n2.head.cm.mguif.local' -env GAUSS_MDEF=4294967296 -env GAUSS_EXEDIR="/hpc/softwares/Gaussian/g16/bsd:/hpc/softwares/Gaussian/g16""
 Will use up to    1 processors via Linda.
 ----------------------------------------------------------
 # td=(50-50,nstates=3) b3lyp/6-31+g(d,p) geom=connectivity
 ----------------------------------------------------------
 1/38=1,57=2,172=1/1;
 2/12=2,17=6,18=5,40=1/2;
 3/5=1,6=6,7=111,11=9,25=1,30=1,74=-5/1,2,3,8;
 4//1;
 5/5=2,38=5/2;
 8/6=1,10=2,108=3/1;
 9/41=3,42=1,48=2,70=2/14;
 6/7=2,8=2,9=2,10=2/1;
 99/5=1,9=1/99;
 -------------------
 Title Card Required
 -------------------
 Symbolic Z-matrix:
 Charge =  0 Multiplicity = 1
 C                    -2.84576  -0.60963  -0.97996 
 C                    -2.26285   0.60049  -0.24131 
 C                    -1.38076   0.22398   0.9727 
 C                    -0.15468  -0.58602   0.61563 
 O                     0.05666  -1.71325   0.98773 
 C                     0.88465   0.09564  -0.37508 
 C                     1.12207   1.51218  -0.06528 
 N                     1.27223   2.6334    0.1933 
 C                     2.1435   -0.65634  -0.44361 
 N                     3.13889  -1.2456   -0.51979 
 H                    -3.49269  -0.28643  -1.8013 
 H                    -2.06586  -1.25078  -1.40768 
 H                    -3.44369  -1.23231  -0.30586 
 H                    -3.077     1.22906   0.1358 
 H                    -1.69836   1.23662  -0.93465 
 H                    -1.05359   1.13991   1.47989 
 H                    -1.94967  -0.37734   1.68746 
 H                     0.41268   0.05073  -1.36853 
 
                          Input orientation:                          
 ---------------------------------------------------------------------
 Center     Atomic      Atomic             Coordinates (Angstroms)
 Number     Number       Type             X           Y           Z
 ---------------------------------------------------------------------
      1          6           0       -2.845763   -0.609626   -0.979962
      2          6           0       -2.262852    0.600494   -0.241312
      3          6           0       -1.380756    0.223979    0.972695
      4          6           0       -0.154677   -0.586016    0.615632
      5          8           0        0.056660   -1.713245    0.987727
      6          6           0        0.884652    0.095642   -0.375079
      7          6           0        1.122069    1.512182   -0.065279
      8          7           0        1.272231    2.633402    0.193295
      9          6           0        2.143498   -0.656339   -0.443605
     10          7           0        3.138894   -1.245601   -0.519791
     11          1           0       -3.492689   -0.286431   -1.801304
     12          1           0       -2.065864   -1.250779   -1.407682
     13          1           0       -3.443687   -1.232312   -0.305859
     14          1           0       -3.076999    1.229059    0.135797
     15          1           0       -1.698358    1.236621   -0.934648
     16          1           0       -1.053592    1.139913    1.479889
     17          1           0       -1.949667   -0.377343    1.687458
     18          1           0        0.412678    0.050730   -1.368529
 ---------------------------------------------------------------------
                    Distance matrix (angstroms):
                    1          2          3          4          5
     1  C    0.000000
     2  C    1.532899   0.000000
     3  C    2.579537   1.547149   0.000000
     4  C    3.128645   2.566430   1.512235   0.000000
     5  O    3.676117   3.499151   2.412308   1.205721   0.000000
     6  C    3.844383   3.190541   2.639136   1.589456   2.411407
     7  C    4.591558   3.509965   3.000165   2.548756   3.556304
     8  N    5.371372   4.101025   3.667577   3.546701   4.582802
     9  C    5.018225   4.586553   3.898876   2.531509   2.742381
    10  N    6.035921   5.715285   4.981407   3.545680   3.462870
    11  H    1.094336   2.175479   3.523613   4.132028   4.734171
    12  H    1.096478   2.196915   2.882790   2.861528   3.233723
    13  H    1.095293   2.181219   2.830401   3.476267   3.762591
    14  H    2.163134   1.095509   2.141921   3.473428   4.382095
    15  H    2.174217   1.097281   2.182721   2.847512   3.934123
    16  H    3.510503   2.171593   1.096913   2.129277   3.100870
    17  H    2.823486   2.185041   1.093679   2.101034   2.509902
    18  H    3.347311   2.954881   2.954277   2.159683   2.964844
                    6          7          8          9         10
     6  C    0.000000
     7  C    1.469329   0.000000
     8  N    2.629352   1.160407   0.000000
     9  C    1.467946   2.426712   3.462245   0.000000
    10  N    2.627067   3.446670   4.363437   1.159244   0.000000
    11  H    4.619655   5.248312   5.933659   5.809198   6.822036
    12  H    3.403625   4.427066   5.365899   4.359075   5.279951
    13  H    4.527999   5.332565   6.118234   5.618483   6.586070
    14  H    4.152145   4.213403   4.570699   5.580683   6.722430
    15  H    2.878696   2.964211   3.470973   4.310949   5.452755
    16  H    2.878923   2.694370   3.048817   4.140982   5.221718
    17  H    3.537109   4.009732   4.655935   4.623123   5.614203
    18  H    1.100781   2.082676   3.138203   2.085946   3.135775
                   11         12         13         14         15
    11  H    0.000000
    12  H    1.766560   0.000000
    13  H    1.770155   1.764299   0.000000
    14  H    2.494367   3.091006   2.527423   0.000000
    15  H    2.508068   2.558511   3.088232   1.745440   0.000000
    16  H    4.330113   3.883062   3.811680   2.430783   2.501013
    17  H    3.815841   3.218118   2.633701   2.501811   3.089252
    18  H    3.943712   2.799755   4.200835   3.978605   2.459891
                   16         17         18
    16  H    0.000000
    17  H    1.774289   0.000000
    18  H    3.383748   3.886255   0.000000
 Stoichiometry    C7H8N2O
 Framework group  C1[X(C7H8N2O)]
 Deg. of freedom    48
 Full point group                 C1      NOp   1
 Largest Abelian subgroup         C1      NOp   1
 Largest concise Abelian subgroup C1      NOp   1
                         Standard orientation:                         
 ---------------------------------------------------------------------
 Center     Atomic      Atomic             Coordinates (Angstroms)
 Number     Number       Type             X           Y           Z
 ---------------------------------------------------------------------
      1          6           0       -2.845763   -0.609626   -0.979962
      2          6           0       -2.262852    0.600494   -0.241312
      3          6           0       -1.380756    0.223979    0.972695
      4          6           0       -0.154677   -0.586016    0.615632
      5          8           0        0.056660   -1.713245    0.987727
      6          6           0        0.884652    0.095642   -0.375079
      7          6           0        1.122069    1.512182   -0.065279
      8          7           0        1.272231    2.633402    0.193295
      9          6           0        2.143498   -0.656339   -0.443605
     10          7           0        3.138894   -1.245601   -0.519791
     11          1           0       -3.492689   -0.286431   -1.801304
     12          1           0       -2.065864   -1.250779   -1.407682
     13          1           0       -3.443687   -1.232312   -0.305859
     14          1           0       -3.076999    1.229059    0.135797
     15          1           0       -1.698358    1.236621   -0.934648
     16          1           0       -1.053592    1.139913    1.479889
     17          1           0       -1.949667   -0.377343    1.687458
     18          1           0        0.412678    0.050730   -1.368529
 ---------------------------------------------------------------------
 Rotational constants (GHZ):           1.7736960           0.9507378           0.7365450
 Standard basis: 6-31+G(d,p) (6D, 7F)
 There are   230 symmetry adapted cartesian basis functions of A   symmetry.
 There are   230 symmetry adapted basis functions of A   symmetry.
   230 basis functions,   376 primitive gaussians,   230 cartesian basis functions
    36 alpha electrons       36 beta electrons
       nuclear repulsion energy       469.1950060452 Hartrees.
 NAtoms=   18 NActive=   18 NUniq=   18 SFac= 1.00D+00 NAtFMM=   60 NAOKFM=F Big=F
 Integral buffers will be    131072 words long.
 Regular integral format.
 Two-electron integral symmetry is turned on.
 One-electron integrals computed using PRISM.
 NBasis=   230 RedAO= T EigKep=  1.20D-05  NBF=   230
 NBsUse=   230 1.00D-06 EigRej= -1.00D+00 NBFU=   230
 ExpMin= 4.38D-02 ExpMax= 5.48D+03 ExpMxC= 8.25D+02 IAcc=3 IRadAn=         5 AccDes= 0.00D+00
 Harris functional with IExCor=  402 and IRadAn=       5 diagonalized for initial guess.
 HarFok:  IExCor=  402 AccDes= 0.00D+00 IRadAn=         5 IDoV= 1 UseB2=F ITyADJ=14
 ICtDFT=  3500011 ScaDFX=  1.000000  1.000000  1.000000  1.000000
 FoFCou: FMM=F IPFlag=           0 FMFlag=      100000 FMFlg1=           0
         NFxFlg=           0 DoJE=T BraDBF=F KetDBF=T FulRan=T
         wScrn=  0.000000 ICntrl=       500 IOpCl=  0 I1Cent=   200000004 NGrid=           0
         NMat0=    1 NMatS0=      1 NMatT0=    0 NMatD0=    1 NMtDS0=    0 NMtDT0=    0
 Petite list used in FoFCou.
 Requested convergence on RMS density matrix=1.00D-08 within 128 cycles.
 Requested convergence on MAX density matrix=1.00D-06.
 Requested convergence on             energy=1.00D-06.
 No special actions if energy rises.
 SCF Done:  E(RB3LYP) =  -456.263902362     A.U. after   14 cycles
            NFock= 14  Conv=0.73D-08     -V/T= 2.0097
 DoSCS=F DFT=T ScalE2(SS,OS)=  1.000000  1.000000
 ExpMin= 4.38D-02 ExpMax= 5.48D+03 ExpMxC= 8.25D+02 IAcc=3 IRadAn=         5 AccDes= 0.00D+00
 HarFok:  IExCor=  205 AccDes= 0.00D+00 IRadAn=         5 IDoV=-2 UseB2=F ITyADJ=14
 ICtDFT= 12500011 ScaDFX=  1.000000  1.000000  1.000000  1.000000
 Range of M.O.s used for correlation:    11   230
 NBasis=   230 NAE=    36 NBE=    36 NFC=    10 NFV=     0
 NROrb=    220 NOA=    26 NOB=    26 NVA=   194 NVB=   194

 **** Warning!!: The largest alpha MO coefficient is  0.79964462D+02

 Keep R1, R2, and R3 ints in memory in canonical form, NReq=1162603753.
 Orbital symmetries:
       Occupied  (A) (A) (A) (A) (A) (A) (A) (A) (A) (A) (A) (A)
                 (A) (A) (A) (A) (A) (A) (A) (A) (A) (A) (A) (A)
                 (A) (A) (A) (A) (A) (A) (A) (A) (A) (A) (A) (A)
       Virtual   (A) (A) (A) (A) (A) (A) (A) (A) (A) (A) (A) (A)
                 (A) (A) (A) (A) (A) (A) (A) (A) (A) (A) (A) (A)
                 (A) (A) (A) (A) (A) (A) (A) (A) (A) (A) (A) (A)
                 (A) (A) (A) (A) (A) (A) (A) (A) (A) (A) (A) (A)
                 (A) (A) (A) (A) (A) (A) (A) (A) (A) (A) (A) (A)
                 (A) (A) (A) (A) (A) (A) (A) (A) (A) (A) (A) (A)
                 (A) (A) (A) (A) (A) (A) (A) (A) (A) (A) (A) (A)
                 (A) (A) (A) (A) (A) (A) (A) (A) (A) (A) (A) (A)
                 (A) (A) (A) (A) (A) (A) (A) (A) (A) (A) (A) (A)
                 (A) (A) (A) (A) (A) (A) (A) (A) (A) (A) (A) (A)
                 (A) (A) (A) (A) (A) (A) (A) (A) (A) (A) (A) (A)
                 (A) (A) (A) (A) (A) (A) (A) (A) (A) (A) (A) (A)
                 (A) (A) (A) (A) (A) (A) (A) (A) (A) (A) (A) (A)
                 (A) (A) (A) (A) (A) (A) (A) (A) (A) (A) (A) (A)
                 (A) (A) (A) (A) (A) (A) (A) (A) (A) (A) (A) (A)
                 (A) (A) (A) (A) (A) (A) (A) (A) (A) (A) (A) (A)
                 (A) (A)
    24 initial guesses have been made.
 Convergence on wavefunction:    0.001000000000000
 Iteration     1 Dimension    24 NMult     0 NNew     24
 CISAX will form    24 AO SS matrices at one time.
 New state      1 was old state      2
 New state      2 was old state      1
 New state      3 was old state      4
 New state      4 was old state      3
 New state      5 was old state      6
 New state      6 was old state      5
 New state      7 was old state      8
 New state      8 was old state     16
 New state      9 was old state      7
 New state     11 was old state     12
 New state     12 was old state      9
 Iteration     2 Dimension    36 NMult    24 NNew     12
 New state      4 was old state      5
 New state      5 was old state      4
 Iteration     3 Dimension    48 NMult    36 NNew     12
 Iteration     4 Dimension    60 NMult    48 NNew     12
 Iteration     5 Dimension    70 NMult    60 NNew     10
 Iteration     6 Dimension    78 NMult    70 NNew      8
 Iteration     7 Dimension    82 NMult    78 NNew      4
 Iteration     8 Dimension    86 NMult    82 NNew      4
 Iteration     9 Dimension    90 NMult    86 NNew      4
 Iteration    10 Dimension    94 NMult    90 NNew      4
 Iteration    11 Dimension    98 NMult    94 NNew      4
 Iteration    12 Dimension   102 NMult    98 NNew      4
 Iteration    13 Dimension   106 NMult   102 NNew      4
 ***********************************************************************
 Excited states from <AA,BB:AA,BB> singles matrix:
 ***********************************************************************
 
 Ground to excited state transition densities written to RWF  633
 Ground to excited state transition electric dipole moments (Au):
       state          X           Y           Z        Dip. S.      Osc.
         1         0.0000     -0.0000     -0.0000      0.0000      0.0000
         2        -0.0272      0.0691     -0.0306      0.0065      0.0007
         3         0.0000      0.0000     -0.0000      0.0000      0.0000
         4         0.0000      0.0000      0.0000      0.0000      0.0000
         5        -0.2579     -0.1565      0.1582      0.1160      0.0178
         6         0.3861      0.2489     -0.0279      0.2118      0.0336
 Ground to excited state transition velocity dipole moments (Au):
       state          X           Y           Z        Dip. S.      Osc.
         1        -0.0000     -0.0000     -0.0000      0.0000      0.0000
         2         0.0049     -0.0104      0.0045      0.0002      0.0006
         3        -0.0000     -0.0000      0.0000      0.0000      0.0000
         4        -0.0000     -0.0000     -0.0000      0.0000      0.0000
         5         0.0600      0.0352     -0.0404      0.0065      0.0187
         6        -0.0900     -0.0598      0.0015      0.0117      0.0327
 Ground to excited state transition magnetic dipole moments (Au):
       state          X           Y           Z
         1         0.0000     -0.0000     -0.0000
         2        -0.1891      1.0860     -0.4175
         3         0.0000     -0.0000     -0.0000
         4        -0.0000     -0.0000      0.0000
         5         0.0470     -0.1451     -0.0537
         6         0.1838      0.0254      0.3672
 Ground to excited state transition velocity quadrupole moments (Au):
       state          XX          YY          ZZ          XY          XZ          YZ
         1        -0.0000     -0.0000     -0.0000     -0.0000      0.0000     -0.0000
         2        -0.1118     -0.0695      0.0979     -0.0257     -0.0633      0.0206
         3        -0.0000     -0.0000     -0.0000     -0.0000      0.0000     -0.0000
         4        -0.0000      0.0000     -0.0000      0.0000      0.0000     -0.0000
         5        -0.0128      0.1000     -0.0198      0.0590     -0.0001      0.0444
         6        -0.1050     -0.1703      0.1041     -0.1417      0.0820     -0.0124
 <0|del|b> * <b|rxdel|0> + <0|del|b> * <b|delr+rdel|0>
 Rotatory Strengths (R) in cgs (10**-40 erg-esu-cm/Gauss)
       state          XX          YY          ZZ    R(velocity)    E-M Angle
         1         0.0000     -0.0000      0.0000      0.0000       90.00
         2       -30.5215     -5.6652    -25.4919    -20.5595      165.83
         3         0.0000     -0.0000     -0.0000      0.0000       90.00
         4        -0.0000      0.0000      0.0000      0.0000       90.00
         5        -8.1576     15.3985     -7.6038     -0.1210       90.52
         6         5.5336    -21.7775    -35.7782    -17.3407      113.19
 1/2[<0|r|b>*<b|rxdel|0> + (<0|rxdel|b>*<b|r|0>)*]
 Rotatory Strengths (R) in cgs (10**-40 erg-esu-cm/Gauss)
       state          XX          YY          ZZ     R(length)
         1        -0.0000     -0.0000     -0.0000     -0.0000
         2        -3.6424    -53.0783     -9.0293    -21.9167
         3        -0.0000      0.0000     -0.0000     -0.0000
         4         0.0000      0.0000     -0.0000      0.0000
         5         8.5770    -16.0645      6.0109     -0.4922
         6       -50.1764     -4.4657      7.2400    -15.8007
  1/2[<0|del|b>*<b|r|0> + (<0|r|b>*<b|del|0>)*] (Au)
       state          X           Y           Z        Dip. S.   Osc.(frdel)
         1        -0.0000      0.0000      0.0000     -0.0000     -0.0000
         2        -0.0001     -0.0007     -0.0001      0.0010      0.0007
         3        -0.0000     -0.0000     -0.0000      0.0000      0.0000
         4        -0.0000     -0.0000     -0.0000      0.0000      0.0000
         5        -0.0155     -0.0055     -0.0064      0.0274      0.0182
         6        -0.0348     -0.0149     -0.0000      0.0497      0.0331

 Excitation energies and oscillator strengths:
 
 Excited State   1:      Triplet-A      3.7962 eV  326.60 nm  f=0.0000  <S**2>=2.000
      36 -> 37         0.69121
 This state for optimization and/or second-order correction.
 Total Energy, E(TD-HF/TD-DFT) =  -456.124393223    
 Copying the excited state density for this state as the 1-particle RhoCI density.
 
 Excited State   2:      Singlet-A      4.4037 eV  281.55 nm  f=0.0007  <S**2>=0.000
      36 -> 37         0.69642
 
 Excited State   3:      Triplet-A      5.5719 eV  222.52 nm  f=0.0000  <S**2>=2.000
      25 -> 37        -0.12739
      26 -> 37        -0.35756
      30 -> 37         0.10270
      31 -> 38        -0.11813
      32 -> 37         0.31539
      33 -> 38         0.10239
      36 -> 38         0.13390
      36 -> 39        -0.21178
 
 Excited State   4:      Triplet-A      5.6101 eV  221.00 nm  f=0.0000  <S**2>=2.000
      25 -> 37         0.11356
      26 -> 37         0.31478
      30 -> 37        -0.21260
      31 -> 38        -0.12291
      32 -> 37        -0.19409
      33 -> 38         0.11106
      36 -> 38         0.20190
      36 -> 39        -0.25139
 
 Excited State   5:      Singlet-A      6.2727 eV  197.66 nm  f=0.0178  <S**2>=0.000
      36 -> 38         0.68742
 
 Excited State   6:      Singlet-A      6.4765 eV  191.44 nm  f=0.0336  <S**2>=0.000
      36 -> 39         0.68536
 SavETr:  write IOETrn=   770 NScale= 10 NData=  16 NLR=1 NState=    6 LETran=     118.

 **********************************************************************

            Population analysis using the SCF Density.

 **********************************************************************

 Orbital symmetries:
       Occupied  (A) (A) (A) (A) (A) (A) (A) (A) (A) (A) (A) (A)
                 (A) (A) (A) (A) (A) (A) (A) (A) (A) (A) (A) (A)
                 (A) (A) (A) (A) (A) (A) (A) (A) (A) (A) (A) (A)
       Virtual   (A) (A) (A) (A) (A) (A) (A) (A) (A) (A) (A) (A)
                 (A) (A) (A) (A) (A) (A) (A) (A) (A) (A) (A) (A)
                 (A) (A) (A) (A) (A) (A) (A) (A) (A) (A) (A) (A)
                 (A) (A) (A) (A) (A) (A) (A) (A) (A) (A) (A) (A)
                 (A) (A) (A) (A) (A) (A) (A) (A) (A) (A) (A) (A)
                 (A) (A) (A) (A) (A) (A) (A) (A) (A) (A) (A) (A)
                 (A) (A) (A) (A) (A) (A) (A) (A) (A) (A) (A) (A)
                 (A) (A) (A) (A) (A) (A) (A) (A) (A) (A) (A) (A)
                 (A) (A) (A) (A) (A) (A) (A) (A) (A) (A) (A) (A)
                 (A) (A) (A) (A) (A) (A) (A) (A) (A) (A) (A) (A)
                 (A) (A) (A) (A) (A) (A) (A) (A) (A) (A) (A) (A)
                 (A) (A) (A) (A) (A) (A) (A) (A) (A) (A) (A) (A)
                 (A) (A) (A) (A) (A) (A) (A) (A) (A) (A) (A) (A)
                 (A) (A) (A) (A) (A) (A) (A) (A) (A) (A) (A) (A)
                 (A) (A) (A) (A) (A) (A) (A) (A) (A) (A) (A) (A)
                 (A) (A) (A) (A) (A) (A) (A) (A) (A) (A) (A) (A)
                 (A) (A)
 The electronic state is 1-A.
 Alpha  occ. eigenvalues --  -19.20497 -14.38486 -14.37431 -10.34257 -10.31995
 Alpha  occ. eigenvalues --  -10.27870 -10.26798 -10.23703 -10.23226 -10.21039
 Alpha  occ. eigenvalues --   -1.10689  -0.95586  -0.93825  -0.86505  -0.83091
 Alpha  occ. eigenvalues --   -0.74827  -0.65243  -0.61377  -0.60915  -0.55813
 Alpha  occ. eigenvalues --   -0.52042  -0.49825  -0.48761  -0.46134  -0.43256
 Alpha  occ. eigenvalues --   -0.42711  -0.40679  -0.39647  -0.39199  -0.38708
 Alpha  occ. eigenvalues --   -0.38257  -0.37589  -0.37346  -0.36375  -0.36113
 Alpha  occ. eigenvalues --   -0.30356
 Alpha virt. eigenvalues --   -0.07656  -0.03713  -0.03247  -0.01360   0.00217
 Alpha virt. eigenvalues --    0.00340   0.00803   0.01288   0.01683   0.03525
 Alpha virt. eigenvalues --    0.04157   0.04986   0.05341   0.05659   0.06909
 Alpha virt. eigenvalues --    0.07853   0.08174   0.08900   0.09230   0.09390
 Alpha virt. eigenvalues --    0.10248   0.10724   0.11106   0.11929   0.12704
 Alpha virt. eigenvalues --    0.13082   0.13725   0.14669   0.15137   0.16161
 Alpha virt. eigenvalues --    0.17005   0.17424   0.18625   0.19592   0.20123
 Alpha virt. eigenvalues --    0.20768   0.21562   0.21797   0.23207   0.23970
 Alpha virt. eigenvalues --    0.24294   0.24606   0.25340   0.25436   0.26172
 Alpha virt. eigenvalues --    0.27021   0.27508   0.28953   0.29212   0.30243
 Alpha virt. eigenvalues --    0.31432   0.31843   0.32566   0.33139   0.33479
 Alpha virt. eigenvalues --    0.34779   0.37006   0.39651   0.42728   0.47008
 Alpha virt. eigenvalues --    0.53939   0.57428   0.59157   0.60660   0.62606
 Alpha virt. eigenvalues --    0.64291   0.65548   0.67507   0.68655   0.69961
 Alpha virt. eigenvalues --    0.72228   0.73319   0.74614   0.75794   0.77273
 Alpha virt. eigenvalues --    0.78839   0.80202   0.83739   0.84370   0.84632
 Alpha virt. eigenvalues --    0.89702   0.90048   0.91757   0.93352   0.94023
 Alpha virt. eigenvalues --    0.96705   0.97732   1.00179   1.00742   1.01346
 Alpha virt. eigenvalues --    1.02189   1.03552   1.05022   1.07419   1.08021
 Alpha virt. eigenvalues --    1.09116   1.10031   1.11511   1.16091   1.18146
 Alpha virt. eigenvalues --    1.22526   1.23219   1.27436   1.30193   1.33305
 Alpha virt. eigenvalues --    1.36263   1.37262   1.40142   1.46072   1.47001
 Alpha virt. eigenvalues --    1.48915   1.49210   1.50498   1.51187   1.53309
 Alpha virt. eigenvalues --    1.58795   1.59656   1.62417   1.64782   1.66244
 Alpha virt. eigenvalues --    1.69720   1.71984   1.74971   1.77647   1.80711
 Alpha virt. eigenvalues --    1.81993   1.82785   1.86419   1.89497   1.89993
 Alpha virt. eigenvalues --    1.91456   1.92826   1.95319   1.97700   1.98837
 Alpha virt. eigenvalues --    1.99873   2.02253   2.04918   2.08669   2.09439
 Alpha virt. eigenvalues --    2.11064   2.12656   2.14001   2.16092   2.19886
 Alpha virt. eigenvalues --    2.22780   2.24580   2.27545   2.31465   2.32158
 Alpha virt. eigenvalues --    2.40483   2.42347   2.45195   2.47151   2.50833
 Alpha virt. eigenvalues --    2.52948   2.55203   2.58967   2.62622   2.67351
 Alpha virt. eigenvalues --    2.68118   2.69932   2.74833   2.78994   2.82302
 Alpha virt. eigenvalues --    2.84709   2.86452   2.88417   2.89254   2.89955
 Alpha virt. eigenvalues --    2.95378   2.97001   3.04525   3.16251   3.19957
 Alpha virt. eigenvalues --    3.23009   3.27909   3.31129   3.32084   3.38211
 Alpha virt. eigenvalues --    3.39678   3.45624   3.48847   3.54066   4.15523
 Alpha virt. eigenvalues --    4.18454   4.26525   4.29162   4.37229   4.44502
 Alpha virt. eigenvalues --    4.48714   4.61576   4.66283   4.92434
          Condensed to atoms (all electrons):
               1          2          3          4          5          6
     1  C    5.194904   0.095099   0.028463  -0.079547  -0.015327   0.005126
     2  C    0.095099   5.560961  -0.281927   0.498313   0.003210   0.004476
     3  C    0.028463  -0.281927   7.976474  -2.005022  -0.116803  -0.333748
     4  C   -0.079547   0.498313  -2.005022   7.834623   0.660067  -0.468725
     5  O   -0.015327   0.003210  -0.116803   0.660067   8.006503  -0.140823
     6  C    0.005126   0.004476  -0.333748  -0.468725  -0.140823   7.356555
     7  C    0.023006  -0.122416   0.198249  -0.173217  -0.022588  -0.259283
     8  N   -0.001556  -0.000501  -0.000602   0.031483  -0.000708  -0.020247
     9  C    0.012609  -0.095491   0.091163  -0.263799  -0.056652  -1.061770
    10  N    0.000413   0.001612   0.012942  -0.062897   0.019514   0.087170
    11  H    0.428160  -0.085681   0.048803  -0.042983   0.000299   0.011283
    12  H    0.420377  -0.066560  -0.031950   0.041146  -0.001431  -0.008081
    13  H    0.432055  -0.088703   0.032252  -0.023254   0.000306  -0.000458
    14  H   -0.012896   0.379128  -0.025133  -0.010236   0.000415  -0.014267
    15  H   -0.016241   0.334552  -0.013793  -0.028397  -0.000969   0.039943
    16  H    0.001595  -0.000490   0.237873   0.118786   0.002420  -0.020027
    17  H   -0.003716  -0.043159   0.420294  -0.068108  -0.007268   0.026627
    18  H    0.002636   0.004387  -0.019197  -0.007699  -0.003482   0.437072
               7          8          9         10         11         12
     1  C    0.023006  -0.001556   0.012609   0.000413   0.428160   0.420377
     2  C   -0.122416  -0.000501  -0.095491   0.001612  -0.085681  -0.066560
     3  C    0.198249  -0.000602   0.091163   0.012942   0.048803  -0.031950
     4  C   -0.173217   0.031483  -0.263799  -0.062897  -0.042983   0.041146
     5  O   -0.022588  -0.000708  -0.056652   0.019514   0.000299  -0.001431
     6  C   -0.259283  -0.020247  -1.061770   0.087170   0.011283  -0.008081
     7  C    6.175084   0.382950  -0.353437   0.024255   0.001609  -0.004484
     8  N    0.382950   7.048400   0.010564  -0.001345  -0.000066   0.000146
     9  C   -0.353437   0.010564   7.411478   0.315553   0.000953   0.002216
    10  N    0.024255  -0.001345   0.315553   7.045307   0.000001  -0.000059
    11  H    0.001609  -0.000066   0.000953   0.000001   0.539458  -0.026271
    12  H   -0.004484   0.000146   0.002216  -0.000059  -0.026271   0.556331
    13  H    0.003028  -0.000043  -0.000381   0.000014  -0.025586  -0.028304
    14  H    0.011508   0.000075  -0.002180   0.000003  -0.003074   0.004670
    15  H   -0.018420  -0.000035   0.009697   0.000126  -0.002874  -0.004382
    16  H   -0.021946   0.007213  -0.003976  -0.000167  -0.000130  -0.000056
    17  H    0.007929  -0.000513  -0.011309   0.000093   0.000078  -0.000224
    18  H   -0.084508  -0.004932  -0.033273  -0.002517  -0.000073   0.000669
              13         14         15         16         17         18
     1  C    0.432055  -0.012896  -0.016241   0.001595  -0.003716   0.002636
     2  C   -0.088703   0.379128   0.334552  -0.000490  -0.043159   0.004387
     3  C    0.032252  -0.025133  -0.013793   0.237873   0.420294  -0.019197
     4  C   -0.023254  -0.010236  -0.028397   0.118786  -0.068108  -0.007699
     5  O    0.000306   0.000415  -0.000969   0.002420  -0.007268  -0.003482
     6  C   -0.000458  -0.014267   0.039943  -0.020027   0.026627   0.437072
     7  C    0.003028   0.011508  -0.018420  -0.021946   0.007929  -0.084508
     8  N   -0.000043   0.000075  -0.000035   0.007213  -0.000513  -0.004932
     9  C   -0.000381  -0.002180   0.009697  -0.003976  -0.011309  -0.033273
    10  N    0.000014   0.000003   0.000126  -0.000167   0.000093  -0.002517
    11  H   -0.025586  -0.003074  -0.002874  -0.000130   0.000078  -0.000073
    12  H   -0.028304   0.004670  -0.004382  -0.000056  -0.000224   0.000669
    13  H    0.535492  -0.004339   0.004789  -0.000009   0.002957   0.000001
    14  H   -0.004339   0.551529  -0.027015  -0.004403  -0.003558   0.000093
    15  H    0.004789  -0.027015   0.576874  -0.003455   0.004527  -0.001445
    16  H   -0.000009  -0.004403  -0.003455   0.528364  -0.024736   0.000259
    17  H    0.002957  -0.003558   0.004527  -0.024736   0.519046  -0.000028
    18  H    0.000001   0.000093  -0.001445   0.000259  -0.000028   0.466784
 Mulliken charges:
               1
     1  C   -0.515161
     2  C   -0.096810
     3  C   -0.218337
     4  C    0.049465
     5  O   -0.326679
     6  C    0.359176
     7  C    0.232681
     8  N   -0.450284
     9  C    0.028032
    10  N   -0.440017
    11  H    0.156092
    12  H    0.146248
    13  H    0.160183
    14  H    0.159682
    15  H    0.146519
    16  H    0.182883
    17  H    0.181070
    18  H    0.245255
 Sum of Mulliken charges =  -0.00000
 Mulliken charges with hydrogens summed into heavy atoms:
               1
     1  C   -0.052637
     2  C    0.209391
     3  C    0.145617
     4  C    0.049465
     5  O   -0.326679
     6  C    0.604431
     7  C    0.232681
     8  N   -0.450284
     9  C    0.028032
    10  N   -0.440017
 Electronic spatial extent (au):  <R**2>=           1611.8099
 Charge=              0.0000 electrons
 Dipole moment (field-independent basis, Debye):
    X=             -5.3605    Y=              0.8577    Z=             -1.1402  Tot=              5.5471
 Quadrupole moment (field-independent basis, Debye-Ang):
   XX=            -67.6195   YY=            -75.5007   ZZ=            -57.2381
   XY=              1.3501   XZ=              0.3257   YZ=              0.9113
 Traceless Quadrupole moment (field-independent basis, Debye-Ang):
   XX=             -0.8334   YY=             -8.7146   ZZ=              9.5480
   XY=              1.3501   XZ=              0.3257   YZ=              0.9113
 Octapole moment (field-independent basis, Debye-Ang**2):
  XXX=            -62.9007  YYY=            -24.9564  ZZZ=              2.1377  XYY=            -24.5583
  XXY=             13.1283  XXZ=              8.5971  XZZ=             -4.6324  YZZ=              1.4603
  YYZ=             -4.9616  XYZ=             -4.2452
 Hexadecapole moment (field-independent basis, Debye-Ang**3):
 XXXX=          -1478.3287 YYYY=           -737.1957 ZZZZ=           -240.9152 XXXY=             58.9128
 XXXZ=             26.0528 YYYX=            -31.2990 YYYZ=             -6.0052 ZZZX=             -0.3362
 ZZZY=             -4.2868 XXYY=           -371.2741 XXZZ=           -262.7955 YYZZ=           -150.0385
 XXYZ=            -16.8291 YYXZ=             -1.4117 ZZXY=              0.4302
 N-N= 4.691950060452D+02 E-N=-1.997489015438D+03  KE= 4.519022787319D+02
 Unable to Open any file for archive entry.
 1\1\GINC-N2\SP\RB3LYP TD-FC\6-31+G(d,p)\C7H8N2O1\HPCMGAC13\06-Aug-2025
 \0\\# td=(50-50,nstates=3) b3lyp/6-31+g(d,p) geom=connectivity\\Title 
 Card Required\\0,1\C,0,-2.845763,-0.609626,-0.979962\C,0,-2.262852,0.6
 00494,-0.241312\C,0,-1.380756,0.223979,0.972695\C,0,-0.154677,-0.58601
 6,0.615632\O,0,0.05666,-1.713245,0.987727\C,0,0.884652,0.095642,-0.375
 079\C,0,1.122069,1.512182,-0.065279\N,0,1.272231,2.633402,0.193295\C,0
 ,2.143498,-0.656339,-0.443605\N,0,3.138894,-1.245601,-0.519791\H,0,-3.
 492689,-0.286431,-1.801304\H,0,-2.065864,-1.250779,-1.407682\H,0,-3.44
 3687,-1.232312,-0.305859\H,0,-3.076999,1.229059,0.135797\H,0,-1.698358
 ,1.236621,-0.934648\H,0,-1.053592,1.139913,1.479889\H,0,-1.949667,-0.3
 77343,1.687458\H,0,0.412678,0.05073,-1.368529\\Version=ES64L-G16RevC.0
 2\State=1-A\HF=-456.2639024\RMSD=7.347e-09\PG=C01 [X(C7H8N2O1)]\\@
 The archive entry for this job was punched.


 ALL SCIENCE IS EITHER PHYSICS, OR STAMP COLLECTING.
   --ERNEST RUTHERFORD, 1871-1937.
 Job cpu time:       0 days  0 hours 35 minutes 23.8 seconds.
 Elapsed time:       0 days  0 hours  2 minutes 16.0 seconds.
 File lengths (MBytes):  RWF=    384 Int=      0 D2E=      0 Chk=     15 Scr=      2
 Normal termination of Gaussian 16 at Wed Aug  6 22:53:42 2025.
