 Entering Gaussian System, Link 0=g16
 Input=M1722e.gjf
 Output=M1722e.log
 Initial command:
 /hpc/softwares/Gaussian/g16/l1.exe "/hpc/home/hpcmgac13/pbs.12889.admin1.x8z/Gau-2099857.inp" -scrdir="/hpc/home/hpcmgac13/pbs.12889.admin1.x8z/"
 Default linda workers: n2
 Default is to use  16 SMP processors on each worker.
 Entering Link 1 = /hpc/softwares/Gaussian/g16/l1.exe PID=   2099858.
  
 Copyright (c) 1988-2021, Gaussian, Inc.  All Rights Reserved.
  
 This is part of the Gaussian(R) 16 program.  It is based on
 the Gaussian(R) 09 system (copyright 2009, Gaussian, Inc.),
 the Gaussian(R) 03 system (copyright 2003, Gaussian, Inc.),
 the Gaussian(R) 98 system (copyright 1998, Gaussian, Inc.),
 the Gaussian(R) 94 system (copyright 1995, Gaussian, Inc.),
 the Gaussian 92(TM) system (copyright 1992, Gaussian, Inc.),
 the Gaussian 90(TM) system (copyright 1990, Gaussian, Inc.),
 the Gaussian 88(TM) system (copyright 1988, Gaussian, Inc.),
 the Gaussian 86(TM) system (copyright 1986, Carnegie Mellon
 University), and the Gaussian 82(TM) system (copyright 1983,
 Carnegie Mellon University). Gaussian is a federally registered
 trademark of Gaussian, Inc.
  
 This software contains proprietary and confidential information,
 including trade secrets, belonging to Gaussian, Inc.
  
 This software is provided under written license and may be
 used, copied, transmitted, or stored only in accord with that
 written license.
  
 The following legend is applicable only to US Government
 contracts under FAR:
  
                    RESTRICTED RIGHTS LEGEND
  
 Use, reproduction and disclosure by the US Government is
 subject to restrictions as set forth in subparagraphs (a)
 and (c) of the Commercial Computer Software - Restricted
 Rights clause in FAR 52.227-19.
  
 Gaussian, Inc.
 340 Quinnipiac St., Bldg. 40, Wallingford CT 06492
  
  
 ---------------------------------------------------------------
 Warning -- This program may not be used in any manner that
 competes with the business of Gaussian, Inc. or will provide
 assistance to any competitor of Gaussian, Inc.  The licensee
 of this program is prohibited from giving any competitor of
 Gaussian, Inc. access to this program.  By using this program,
 the user acknowledges that Gaussian, Inc. is engaged in the
 business of creating and licensing software in the field of
 computational chemistry and represents and warrants to the
 licensee that it is not a competitor of Gaussian, Inc. and that
 it will not use this program in any manner prohibited above.
 ---------------------------------------------------------------
  

 Cite this work as:
 Gaussian 16, Revision C.02,
 M. J. Frisch, G. W. Trucks, H. B. Schlegel, G. E. Scuseria, 
 M. A. Robb, J. R. Cheeseman, G. Scalmani, V. Barone, 
 G. A. Petersson, H. Nakatsuji, X. Li, M. Caricato, A. V. Marenich, 
 J. Bloino, B. G. Janesko, R. Gomperts, B. Mennucci, H. P. Hratchian, 
 J. V. Ortiz, A. F. Izmaylov, J. L. Sonnenberg, D. Williams-Young, 
 F. Ding, F. Lipparini, F. Egidi, J. Goings, B. Peng, A. Petrone, 
 T. Henderson, D. Ranasinghe, V. G. Zakrzewski, J. Gao, N. Rega, 
 G. Zheng, W. Liang, M. Hada, M. Ehara, K. Toyota, R. Fukuda, 
 J. Hasegawa, M. Ishida, T. Nakajima, Y. Honda, O. Kitao, H. Nakai, 
 T. Vreven, K. Throssell, J. A. Montgomery, Jr., J. E. Peralta, 
 F. Ogliaro, M. J. Bearpark, J. J. Heyd, E. N. Brothers, K. N. Kudin, 
 V. N. Staroverov, T. A. Keith, R. Kobayashi, J. Normand, 
 K. Raghavachari, A. P. Rendell, J. C. Burant, S. S. Iyengar, 
 J. Tomasi, M. Cossi, J. M. Millam, M. Klene, C. Adamo, R. Cammi, 
 J. W. Ochterski, R. L. Martin, K. Morokuma, O. Farkas, 
 J. B. Foresman, and D. J. Fox, Gaussian, Inc., Wallingford CT, 2019.
 
 ******************************************
 Gaussian 16:  ES64L-G16RevC.02  7-Dec-2021
                 6-Aug-2025 
 ******************************************
 SetLPE:    new flags="-opt 'Tsnet.Node.lindarsharg: ssh'  -nodelist 'n2.head.cm.mguif.local' -env GAUSS_MDEF=2147483648 -env GAUSS_EXEDIR="/hpc/softwares/Gaussian/g16/bsd:/hpc/softwares/Gaussian/g16""
 Will use up to    1 processors via Linda.
 ----------------------------------------------------------
 # td=(50-50,nstates=3) b3lyp/6-31+g(d,p) geom=connectivity
 ----------------------------------------------------------
 1/38=1,57=2,172=1/1;
 2/12=2,17=6,18=5,40=1/2;
 3/5=1,6=6,7=111,11=9,25=1,30=1,74=-5/1,2,3,8;
 4//1;
 5/5=2,38=5/2;
 8/6=1,10=2,108=3/1;
 9/41=3,42=1,48=2,70=2/14;
 6/7=2,8=2,9=2,10=2/1;
 99/5=1,9=1/99;
 -------------------
 Title Card Required
 -------------------
 Symbolic Z-matrix:
 Charge =  0 Multiplicity = 1
 C                    -2.24148   0.16949   2.52778 
 C                    -3.06542   0.23635   1.22733 
 C                    -2.82629   1.49509   0.38161 
 C                    -2.02855   2.56023   0.82094 
 C                    -1.87615   3.71554   0.04602 
 C                    -2.52209   3.83034  -1.18564 
 C                    -3.3274    2.77819  -1.63411 
 C                    -3.47635   1.62818  -0.8578 
 C                    -2.99892  -1.0703    0.42459 
 C                    -4.20017  -1.77791   0.25007 
 C                    -4.26042  -2.9986   -0.42342 
 C                    -3.09102  -3.55248  -0.94127 
 C                    -1.88538  -2.87057  -0.77713 
 C                    -1.81468  -1.63509  -0.1098 
 C                    -0.4527   -1.01693  -0.00469 
 C                     0.51869  -1.60253   0.82479 
 C                     1.81437  -1.09194   0.89243 
 C                     2.17303   0.01579   0.11576 
 C                     3.59036   0.58411   0.14527 
 C                     4.13122   0.68553   1.50952 
 N                     4.53365   0.77673   2.59379 
 C                     4.57022  -0.20369  -0.75122 
 F                     4.72633  -1.4805   -0.34801 
 F                     4.12408  -0.22373  -2.02532 
 F                     5.79153   0.37637  -0.75803 
 C                     1.21649   0.60048  -0.72003 
 C                    -0.08084   0.08997  -0.78086 
 H                    -2.48281   1.01245   3.1832 
 H                    -2.48237  -0.75025   3.0691 
 H                    -1.1647    0.17886   2.34283 
 H                    -4.11336   0.30972   1.54885 
 H                    -1.50856   2.49746   1.77041 
 H                    -1.24976   4.52519   0.41055 
 H                    -2.40443   4.72709  -1.78712 
 H                    -3.84114   2.85302  -2.58864 
 H                    -4.10119   0.8176   -1.22271 
 H                    -5.1144   -1.35916   0.66372 
 H                    -5.21207  -3.50998  -0.53567 
 H                    -3.11157  -4.5025   -1.46697 
 H                    -0.96986  -3.29358  -1.18134 
 H                     0.25147  -2.46258   1.43167 
 H                     2.54032  -1.55503   1.55386 
 H                     3.57875   1.59654  -0.27526 
 H                     1.48012   1.45771  -1.33365 
 H                    -0.80665   0.5555   -1.43797 
 
                          Input orientation:                          
 ---------------------------------------------------------------------
 Center     Atomic      Atomic             Coordinates (Angstroms)
 Number     Number       Type             X           Y           Z
 ---------------------------------------------------------------------
      1          6           0       -2.241478    0.169489    2.527777
      2          6           0       -3.065418    0.236346    1.227328
      3          6           0       -2.826290    1.495085    0.381612
      4          6           0       -2.028546    2.560234    0.820936
      5          6           0       -1.876148    3.715544    0.046022
      6          6           0       -2.522089    3.830343   -1.185640
      7          6           0       -3.327402    2.778193   -1.634109
      8          6           0       -3.476351    1.628181   -0.857804
      9          6           0       -2.998916   -1.070302    0.424585
     10          6           0       -4.200172   -1.777906    0.250071
     11          6           0       -4.260424   -2.998604   -0.423422
     12          6           0       -3.091019   -3.552476   -0.941265
     13          6           0       -1.885381   -2.870572   -0.777131
     14          6           0       -1.814677   -1.635087   -0.109802
     15          6           0       -0.452703   -1.016931   -0.004688
     16          6           0        0.518691   -1.602526    0.824792
     17          6           0        1.814367   -1.091943    0.892432
     18          6           0        2.173028    0.015790    0.115763
     19          6           0        3.590358    0.584109    0.145267
     20          6           0        4.131223    0.685531    1.509522
     21          7           0        4.533646    0.776729    2.593786
     22          6           0        4.570219   -0.203689   -0.751222
     23          9           0        4.726332   -1.480497   -0.348009
     24          9           0        4.124079   -0.223730   -2.025319
     25          9           0        5.791534    0.376366   -0.758025
     26          6           0        1.216494    0.600484   -0.720030
     27          6           0       -0.080836    0.089972   -0.780860
     28          1           0       -2.482810    1.012449    3.183199
     29          1           0       -2.482372   -0.750254    3.069096
     30          1           0       -1.164699    0.178861    2.342832
     31          1           0       -4.113357    0.309721    1.548853
     32          1           0       -1.508558    2.497464    1.770406
     33          1           0       -1.249757    4.525188    0.410552
     34          1           0       -2.404431    4.727087   -1.787115
     35          1           0       -3.841135    2.853020   -2.588639
     36          1           0       -4.101194    0.817603   -1.222712
     37          1           0       -5.114399   -1.359159    0.663718
     38          1           0       -5.212072   -3.509981   -0.535665
     39          1           0       -3.111574   -4.502498   -1.466967
     40          1           0       -0.969858   -3.293579   -1.181338
     41          1           0        0.251466   -2.462578    1.431674
     42          1           0        2.540318   -1.555030    1.553857
     43          1           0        3.578747    1.596544   -0.275255
     44          1           0        1.480120    1.457711   -1.333648
     45          1           0       -0.806646    0.555495   -1.437969
 ---------------------------------------------------------------------
                    Distance matrix (angstroms):
                    1          2          3          4          5
     1  C    0.000000
     2  C    1.540946   0.000000
     3  C    2.589447   1.535201   0.000000
     4  C    2.945218   2.576958   1.401408   0.000000
     5  C    4.343625   3.861951   2.438407   1.399449   0.000000
     6  C    5.222074   4.362847   2.828824   2.425512   1.395496
     7  C    5.030493   3.836332   2.441436   2.785997   2.409897
     8  C    3.887782   2.540442   1.405861   2.404793   2.781121
     9  C    2.556210   1.534975   2.571548   3.778823   4.930339
    10  C    3.580052   2.509962   3.552087   4.884803   5.968309
    11  C    4.777293   3.823338   4.785192   6.118038   7.140373
    12  C    5.158391   4.365618   5.224745   6.449762   7.434700
    13  C    4.504575   3.881145   4.613779   5.662859   6.637363
    14  C    3.224202   2.618116   3.326083   4.302642   5.353252
    15  C    3.319742   3.148785   3.477552   3.995128   4.942174
    16  C    3.695772   4.048373   4.580448   4.880267   5.884183
    17  C    4.551422   5.068413   5.337541   5.302027   6.119497
    18  C    5.032822   5.359621   5.220361   4.962327   5.485332
    19  C    6.313365   6.752122   6.485299   5.994471   6.300668
    20  C    6.474138   7.216165   7.094684   6.475447   6.885588
    21  N    6.802603   7.739832   7.718705   7.027535   7.497546
    22  C    7.569036   7.900079   7.673167   7.324933   7.586279
    23  F    7.716409   8.132687   8.150370   7.957532   8.411114
    24  F    7.836174   7.904445   7.553494   7.328466   7.470680
    25  F    8.681508   9.077821   8.764542   8.271399   8.401782
    26  C    4.763568   4.718005   4.284627   4.092124   4.455880
    27  C    3.952439   3.600274   3.295937   3.530088   4.129365
    28  H    1.094715   2.183392   2.863530   2.860469   4.185289
    29  H    1.094067   2.169201   3.518863   4.027346   5.426770
    30  H    1.092587   2.204628   2.887856   2.955222   4.276637
    31  H    2.117047   1.098607   2.103350   3.152952   4.343183
    32  H    2.555435   2.798464   2.161002   1.084353   2.142975
    33  H    4.943507   4.728416   3.415819   2.153131   1.086633
    34  H    6.278260   5.448901   3.914994   3.411520   2.159327
    35  H    5.994827   4.691516   3.419984   3.872519   3.398023
    36  H    4.236126   2.722754   2.158290   3.392511   3.867632
    37  H    3.750354   2.657370   3.669024   4.990876   6.051482
    38  H    5.634501   4.663822   5.619968   6.987325   7.979659
    39  H    6.208261   5.451422   6.282486   7.502642   8.446989
    40  H    5.231385   4.759560   5.368469   6.276707   7.173254
    41  H    3.787346   4.281083   5.122334   5.549783   6.679518
    42  H    5.175718   5.894058   6.283139   6.192503   7.039722
    43  H    6.615776   6.946425   6.439431   5.794141   5.860824
    44  H    5.515470   5.358381   4.635589   4.262455   4.273855
    45  H    4.234960   3.508235   2.876224   3.258016   3.651298
                    6          7          8          9         10
     6  C    0.000000
     7  C    1.398811   0.000000
     8  C    2.422315   1.395479   0.000000
     9  C    5.180397   4.376875   3.025603   0.000000
    10  C    6.027411   5.006985   3.654139   1.405053   0.000000
    11  C    7.087828   5.975590   4.712812   2.455375   1.395466
    12  C    7.408739   6.372855   5.195638   2.834646   2.408028
    13  C    6.743481   5.892570   4.772470   2.434143   2.758137
    14  C    5.615050   4.908043   3.737591   1.416677   2.416711
    15  C    5.401210   5.032084   4.106930   2.582697   3.832429
    16  C    6.542495   6.326873   5.406381   3.580082   4.756967
    17  C    6.881289   6.913693   6.201137   4.836015   6.087516
    18  C    6.187777   6.399035   5.955092   5.293767   6.622164
    19  C    7.047791   7.472321   7.213502   6.799531   8.141404
    20  C    7.837111   8.360188   8.022967   7.422865   8.778774
    21  N    8.566914   9.147515   8.763475   8.053350   9.396741
    22  C    8.170861   8.487846   8.253145   7.708784   8.966633
    23  F    9.024758   9.200713   8.786796   7.774614   8.951459
    24  F    7.830205   8.042957   7.909438   7.579959   8.768467
    25  F    9.012721   9.470549   9.352577   8.986847  10.270897
    26  C    4.962437   5.121030   4.806031   4.676682   5.994840
    27  C    4.484857   4.300553   3.728475   3.363707   4.639043
    28  H    5.198925   5.199773   4.206656   3.494877   4.397574
    29  H    6.251898   5.940046   4.697392   2.713427   3.457428
    30  H    5.256039   5.220141   4.205750   2.933331   4.174049
    31  H    4.733325   4.103940   2.817110   2.100100   2.460195
    32  H    3.397355   3.870107   3.396373   4.094063   5.275888
    33  H    2.156262   3.398417   3.867699   5.862530   6.961300
    34  H    1.086170   2.161822   3.408203   6.233358   7.049095
    35  H    2.159502   1.086576   2.151531   5.018098   5.443589
    36  H    3.401698   2.147537   1.086565   2.737296   2.985892
    37  H    6.088606   5.058760   3.731277   2.148463   1.087320
    38  H    7.844669   6.655801   5.432974   3.431060   2.154392
    39  H    8.358402   7.285807   6.171658   3.920540   3.399510
    40  H    7.291070   6.529122   5.532712   3.411602   3.844623
    41  H    7.358247   7.047908   5.989377   3.676635   4.656398
    42  H    7.882579   7.960533   7.221444   5.673917   6.869042
    43  H    6.560401   7.137063   7.079179   7.132145   8.495555
    44  H    4.654994   4.994619   4.982177   5.435439   6.726299
    45  H    3.705542   3.366462   2.935059   3.304296   4.450872
                   11         12         13         14         15
    11  C    0.000000
    12  C    1.393716   0.000000
    13  C    2.404648   1.394810   0.000000
    14  C    2.817661   2.448828   1.405970   0.000000
    15  C    4.312900   3.777152   2.466824   1.499380   0.000000
    16  C    5.132934   4.466684   3.154942   2.513788   1.405192
    17  C    6.501532   5.786145   4.431602   3.803872   2.439274
    18  C    7.125068   6.446706   5.059548   4.321813   2.824090
    19  C    8.648353   7.933012   6.539828   5.848444   4.351110
    20  C    9.366369   8.725127   7.353514   6.584923   5.118944
    21  N   10.034558   9.453789   8.116021   7.309408   5.901945
    22  C    9.268185   8.363316   6.984820   6.574741   5.142803
    23  F    9.114391   8.109009   6.769875   6.547170   5.211062
    24  F    8.975850   8.019561   6.684112   6.397652   5.065476
    25  F   10.608687   9.714377   8.335346   7.894339   6.441994
    26  C    6.560339   5.987545   4.655440   3.815515   2.431864
    27  C    5.209224   4.728040   3.467163   2.536208   1.402128
    28  H    5.679452   6.182205   5.578439   4.277815   4.289795
    29  H    4.518211   4.930101   4.432337   3.366621   3.693077
    30  H    5.227998   5.330936   4.421831   3.119021   2.729049
    31  H    3.854415   4.707699   4.526405   3.437636   4.192122
    32  H    6.526286   6.816092   5.953801   4.550480   4.076366
    33  H    8.146599   8.394421   7.517438   6.207970   5.614517
    34  H    8.061679   8.350930   7.682051   6.605940   6.322976
    35  H    6.253437   6.656342   6.313956   5.513100   5.756283
    36  H    3.902263   4.494136   4.325622   3.533046   4.261524
    37  H    2.144511   3.388315   3.845383   3.400387   4.721790
    38  H    1.086158   2.159903   3.396178   3.903701   5.398965
    39  H    2.161143   1.085968   2.154671   3.427227   4.621367
    40  H    3.389583   2.150346   1.086508   2.147674   2.614399
    41  H    4.907734   4.241571   3.100225   2.707367   2.156127
    42  H    7.227976   6.475136   5.172134   4.662634   3.417132
    43  H    9.087901   8.452322   7.075571   6.289661   4.812073
    44  H    7.324008   6.793471   5.510929   4.681761   3.409662
    45  H    5.058607   4.726574   3.652165   2.752963   2.156871
                   16         17         18         19         20
    16  C    0.000000
    17  C    1.394291   0.000000
    18  C    2.420434   1.399616   0.000000
    19  C    3.831222   2.553733   1.527312   0.000000
    20  C    4.330641   2.984633   2.495124   1.471058   0.000000
    21  N    4.990998   3.712279   3.506015   2.630996   1.160125
    22  C    4.566776   3.329462   2.558585   1.544165   2.468682
    23  F    4.369736   3.188920   2.995550   2.407562   2.914833
    24  F    4.798232   3.821235   2.906579   2.376743   3.649919
    25  F    5.850145   4.549483   3.739934   2.388361   2.827364
    26  C    2.779687   2.412840   1.398347   2.526705   3.670665
    27  C    2.408755   2.790811   2.426796   3.818317   4.831354
    28  H    4.627006   5.304885   5.663861   6.804107   6.830337
    29  H    3.843130   4.828725   5.566125   6.870761   6.945026
    30  H    2.882982   3.548723   4.015825   5.253959   5.384971
    31  H    5.063282   6.126456   6.454361   7.835341   8.253234
    32  H    4.670529   4.969558   4.738209   5.683392   5.929443
    33  H    6.391235   6.416637   5.668953   6.247335   6.701168
    34  H    7.445180   7.670680   6.838888   7.538956   8.361624
    35  H    7.107143   7.724331   7.178706   8.237068   9.222333
    36  H    5.602913   6.566130   6.465314   7.815744   8.674978
    37  H    5.640645   6.937688   7.436218   8.934085   9.506717
    38  H    6.191193   7.566850   8.209453   9.731804  10.444246
    39  H    5.180813   6.439219   7.130707   8.566724   9.393255
    40  H    3.016620   4.110916   4.744695   6.131225   7.006788
    41  H    1.086004   2.147576   3.400931   4.699505   4.996916
    42  H    2.149597   1.085789   2.161132   2.768145   2.748283
    43  H    4.561589   3.421183   2.151215   1.096357   2.078606
    44  H    3.866298   3.401160   2.158715   2.720933   3.963360
    45  H    3.396124   3.874859   3.403501   4.673446   5.752144
                   21         22         23         24         25
    21  N    0.000000
    22  C    3.485920   0.000000
    23  F    3.712998   1.348032   0.000000
    24  F    4.743922   1.350098   2.180720   0.000000
    25  F    3.602389   1.352080   2.179612   2.178659   0.000000
    26  C    4.692114   3.448933   4.097297   3.291984   4.580684
    27  C    5.757892   4.660411   5.075687   4.396407   5.879394
    28  H    7.045114   8.167244   8.405709   8.503398   9.187090
    29  H    7.195978   8.039440   8.010947   8.359156   9.185513
    30  H    5.735116   6.527542   6.685682   6.871244   7.618628
    31  H    8.722422   8.997690   9.216456   8.995256  10.170201
    32  H    6.336175   7.113815   7.693225   7.317037   8.011452
    33  H    7.229468   7.588420   8.506310   7.573890   8.255790
    34  H    9.106840   8.604148   9.563101   8.196876   9.336040
    35  H   10.065062   9.136216   9.859071   8.557357  10.113025
    36  H    9.440752   8.744069   9.163601   8.329686   9.913460
    37  H   10.068364   9.855404   9.893346   9.688632  11.134306
    38  H   11.097223  10.328177  10.145240  10.009107  11.671867
    39  H   10.139494   8.831874   8.474510   8.424624  10.176996
    40  H    7.817130   6.358056   6.035585   6.007035   7.704811
    41  H    5.493695   5.340341   4.914894   5.653351   6.598995
    42  H    3.239122   3.355594   2.898501   4.134146   4.432324
    43  H    3.132942   2.109597   3.284878   2.583313   2.572611
    44  H    5.021205   3.556428   4.488033   3.208765   4.482069
    45  H    6.694977   5.473450   5.995592   5.026353   6.635540
                   26         27         28         29         30
    26  C    0.000000
    27  C    1.395488   0.000000
    28  H    5.393493   4.725908   0.000000
    29  H    5.464758   4.614707   1.766392   0.000000
    30  H    3.902431   3.307584   1.771582   1.768326   0.000000
    31  H    5.799973   4.662304   2.413213   2.468764   3.056487
    32  H    4.150508   3.787264   2.269454   3.630783   2.412847
    33  H    4.771154   4.738880   4.641910   6.034690   4.757258
    34  H    5.592729   5.283415   6.205538   7.320528   6.267356
    35  H    5.843392   5.004233   6.208612   6.843960   6.215613
    36  H    5.345805   4.109496   4.697785   4.847512   4.663057
    37  H    6.770167   5.433557   4.347134   3.617205   4.559063
    38  H    7.632586   6.272907   6.459969   5.297325   6.186641
    39  H    6.732794   5.544988   7.241134   5.920397   6.341925
    40  H    4.489618   3.521244   6.315068   5.179034   4.951321
    41  H    3.865677   3.394296   4.756040   3.617606   3.132560
    42  H    3.401369   3.876517   5.871841   5.307639   4.166055
    43  H    2.601961   3.989730   7.003181   7.309535   5.600400
    44  H    1.086676   2.147759   6.025361   6.321440   4.706063
    45  H    2.147221   1.084114   4.936955   4.982637   3.816348
                   31         32         33         34         35
    31  H    0.000000
    32  H    3.408854   0.000000
    33  H    5.221695   2.455167   0.000000
    34  H    5.793292   4.292990   2.490738   0.000000
    35  H    4.864290   4.956673   4.301922   2.493729   0.000000
    36  H    2.817741   4.301447   4.954234   4.299026   2.465017
    37  H    2.137922   5.394478   7.044508   7.098796   5.471881
    38  H    4.488041   7.424512   9.008841   8.791943   6.825097
    39  H    5.766818   7.877164   9.406942   9.262170   7.476232
    40  H    5.506296   6.522206   7.984083   8.170437   6.928593
    41  H    5.172142   5.273940   7.219781   8.312982   7.820990
    42  H    6.910044   5.732626   7.255403   8.664735   8.792845
    43  H    8.009479   5.556713   5.688738   6.919858   7.873063
    44  H    6.396380   4.432655   4.461376   5.097469   5.642486
    45  H    4.462718   3.815442   4.401345   4.480737   3.976278
                   36         37         38         39         40
    36  H    0.000000
    37  H    3.053440   0.000000
    38  H    4.520406   2.464568   0.000000
    39  H    5.416870   4.293216   2.502899   0.000000
    40  H    5.168055   4.931879   4.296522   2.475887   0.000000
    41  H    6.062260   5.531708   5.900654   4.886045   3.001671
    42  H    7.579473   7.708788   8.263624   7.053852   4.777570
    43  H    7.777269   9.229769  10.169705   9.131204   6.739740
    44  H    5.618996   7.443918   8.372585   7.524993   5.347929
    45  H    3.311961   5.161368   6.062180   5.558491   3.861071
                   41         42         43         44         45
    41  H    0.000000
    42  H    2.465241   0.000000
    43  H    5.519137   3.788985   0.000000
    44  H    4.952299   4.305614   2.354508   0.000000
    45  H    4.296885   4.960595   4.654821   2.460523   0.000000
 Stoichiometry    C23H18F3N
 Framework group  C1[X(C23H18F3N)]
 Deg. of freedom   129
 Full point group                 C1      NOp   1
 Largest Abelian subgroup         C1      NOp   1
 Largest concise Abelian subgroup C1      NOp   1
                         Standard orientation:                         
 ---------------------------------------------------------------------
 Center     Atomic      Atomic             Coordinates (Angstroms)
 Number     Number       Type             X           Y           Z
 ---------------------------------------------------------------------
      1          6           0       -2.241478    0.169489    2.527777
      2          6           0       -3.065418    0.236346    1.227328
      3          6           0       -2.826290    1.495085    0.381612
      4          6           0       -2.028546    2.560234    0.820936
      5          6           0       -1.876148    3.715544    0.046022
      6          6           0       -2.522089    3.830343   -1.185640
      7          6           0       -3.327402    2.778193   -1.634109
      8          6           0       -3.476351    1.628181   -0.857804
      9          6           0       -2.998916   -1.070302    0.424585
     10          6           0       -4.200172   -1.777906    0.250071
     11          6           0       -4.260424   -2.998604   -0.423422
     12          6           0       -3.091019   -3.552476   -0.941265
     13          6           0       -1.885381   -2.870572   -0.777131
     14          6           0       -1.814677   -1.635087   -0.109802
     15          6           0       -0.452703   -1.016931   -0.004688
     16          6           0        0.518691   -1.602526    0.824792
     17          6           0        1.814367   -1.091943    0.892432
     18          6           0        2.173028    0.015790    0.115763
     19          6           0        3.590358    0.584109    0.145267
     20          6           0        4.131223    0.685531    1.509522
     21          7           0        4.533646    0.776729    2.593786
     22          6           0        4.570219   -0.203689   -0.751222
     23          9           0        4.726332   -1.480497   -0.348009
     24          9           0        4.124079   -0.223730   -2.025319
     25          9           0        5.791534    0.376366   -0.758025
     26          6           0        1.216494    0.600484   -0.720030
     27          6           0       -0.080836    0.089972   -0.780860
     28          1           0       -2.482810    1.012449    3.183199
     29          1           0       -2.482372   -0.750254    3.069096
     30          1           0       -1.164699    0.178861    2.342832
     31          1           0       -4.113357    0.309721    1.548853
     32          1           0       -1.508558    2.497464    1.770406
     33          1           0       -1.249757    4.525188    0.410552
     34          1           0       -2.404431    4.727087   -1.787115
     35          1           0       -3.841135    2.853020   -2.588639
     36          1           0       -4.101194    0.817603   -1.222712
     37          1           0       -5.114399   -1.359159    0.663718
     38          1           0       -5.212072   -3.509981   -0.535665
     39          1           0       -3.111574   -4.502498   -1.466967
     40          1           0       -0.969858   -3.293579   -1.181338
     41          1           0        0.251466   -2.462578    1.431674
     42          1           0        2.540318   -1.555030    1.553857
     43          1           0        3.578747    1.596544   -0.275255
     44          1           0        1.480120    1.457711   -1.333648
     45          1           0       -0.806646    0.555495   -1.437969
 ---------------------------------------------------------------------
 Rotational constants (GHZ):           0.2885691           0.1123904           0.0959913
 Standard basis: 6-31+G(d,p) (6D, 7F)
 There are   603 symmetry adapted cartesian basis functions of A   symmetry.
 There are   603 symmetry adapted basis functions of A   symmetry.
   603 basis functions,   990 primitive gaussians,   603 cartesian basis functions
    95 alpha electrons       95 beta electrons
       nuclear repulsion energy      2343.8308960552 Hartrees.
 NAtoms=   45 NActive=   45 NUniq=   45 SFac= 1.00D+00 NAtFMM=   60 NAOKFM=F Big=F
 Integral buffers will be    131072 words long.
 Regular integral format.
 Two-electron integral symmetry is turned on.
 One-electron integrals computed using PRISM.
 NBasis=   603 RedAO= T EigKep=  1.17D-06  NBF=   603
 NBsUse=   599 1.00D-06 EigRej=  7.86D-07 NBFU=   599
 ExpMin= 4.38D-02 ExpMax= 7.00D+03 ExpMxC= 1.05D+03 IAcc=3 IRadAn=         5 AccDes= 0.00D+00
 Harris functional with IExCor=  402 and IRadAn=       5 diagonalized for initial guess.
 HarFok:  IExCor=  402 AccDes= 0.00D+00 IRadAn=         5 IDoV= 1 UseB2=F ITyADJ=14
 ICtDFT=  3500011 ScaDFX=  1.000000  1.000000  1.000000  1.000000
 FoFCou: FMM=F IPFlag=           0 FMFlag=      100000 FMFlg1=           0
         NFxFlg=           0 DoJE=T BraDBF=F KetDBF=T FulRan=T
         wScrn=  0.000000 ICntrl=       500 IOpCl=  0 I1Cent=   200000004 NGrid=           0
         NMat0=    1 NMatS0=      1 NMatT0=    0 NMatD0=    1 NMtDS0=    0 NMtDT0=    0
 Petite list used in FoFCou.
 Requested convergence on RMS density matrix=1.00D-08 within 128 cycles.
 Requested convergence on MAX density matrix=1.00D-06.
 Requested convergence on             energy=1.00D-06.
 No special actions if energy rises.
 SCF Done:  E(RB3LYP) =  -1241.63695488     A.U. after   16 cycles
            NFock= 16  Conv=0.61D-08     -V/T= 2.0092
 DoSCS=F DFT=T ScalE2(SS,OS)=  1.000000  1.000000
 ExpMin= 4.38D-02 ExpMax= 7.00D+03 ExpMxC= 1.05D+03 IAcc=3 IRadAn=         5 AccDes= 0.00D+00
 HarFok:  IExCor=  205 AccDes= 0.00D+00 IRadAn=         5 IDoV=-2 UseB2=F ITyADJ=14
 ICtDFT= 12500011 ScaDFX=  1.000000  1.000000  1.000000  1.000000
 GSVD:  LWork=        -945 too small for GESVD, short by        4050 words or        4050 for optimal perf.
 Range of M.O.s used for correlation:    28   599
 NBasis=   603 NAE=    95 NBE=    95 NFC=    27 NFV=     0
 NROrb=    572 NOA=    68 NOB=    68 NVA=   504 NVB=   504

 **** Warning!!: The largest alpha MO coefficient is  0.15161589D+03

 Orbital symmetries:
       Occupied  (A) (A) (A) (A) (A) (A) (A) (A) (A) (A) (A) (A)
                 (A) (A) (A) (A) (A) (A) (A) (A) (A) (A) (A) (A)
                 (A) (A) (A) (A) (A) (A) (A) (A) (A) (A) (A) (A)
                 (A) (A) (A) (A) (A) (A) (A) (A) (A) (A) (A) (A)
                 (A) (A) (A) (A) (A) (A) (A) (A) (A) (A) (A) (A)
                 (A) (A) (A) (A) (A) (A) (A) (A) (A) (A) (A) (A)
                 (A) (A) (A) (A) (A) (A) (A) (A) (A) (A) (A) (A)
                 (A) (A) (A) (A) (A) (A) (A) (A) (A) (A) (A)
       Virtual   (A) (A) (A) (A) (A) (A) (A) (A) (A) (A) (A) (A)
                 (A) (A) (A) (A) (A) (A) (A) (A) (A) (A) (A) (A)
                 (A) (A) (A) (A) (A) (A) (A) (A) (A) (A) (A) (A)
                 (A) (A) (A) (A) (A) (A) (A) (A) (A) (A) (A) (A)
                 (A) (A) (A) (A) (A) (A) (A) (A) (A) (A) (A) (A)
                 (A) (A) (A) (A) (A) (A) (A) (A) (A) (A) (A) (A)
                 (A) (A) (A) (A) (A) (A) (A) (A) (A) (A) (A) (A)
                 (A) (A) (A) (A) (A) (A) (A) (A) (A) (A) (A) (A)
                 (A) (A) (A) (A) (A) (A) (A) (A) (A) (A) (A) (A)
                 (A) (A) (A) (A) (A) (A) (A) (A) (A) (A) (A) (A)
                 (A) (A) (A) (A) (A) (A) (A) (A) (A) (A) (A) (A)
                 (A) (A) (A) (A) (A) (A) (A) (A) (A) (A) (A) (A)
                 (A) (A) (A) (A) (A) (A) (A) (A) (A) (A) (A) (A)
                 (A) (A) (A) (A) (A) (A) (A) (A) (A) (A) (A) (A)
                 (A) (A) (A) (A) (A) (A) (A) (A) (A) (A) (A) (A)
                 (A) (A) (A) (A) (A) (A) (A) (A) (A) (A) (A) (A)
                 (A) (A) (A) (A) (A) (A) (A) (A) (A) (A) (A) (A)
                 (A) (A) (A) (A) (A) (A) (A) (A) (A) (A) (A) (A)
                 (A) (A) (A) (A) (A) (A) (A) (A) (A) (A) (A) (A)
                 (A) (A) (A) (A) (A) (A) (A) (A) (A) (A) (A) (A)
                 (A) (A) (A) (A) (A) (A) (A) (A) (A) (A) (A) (A)
                 (A) (A) (A) (A) (A) (A) (A) (A) (A) (A) (A) (A)
                 (A) (A) (A) (A) (A) (A) (A) (A) (A) (A) (A) (A)
                 (A) (A) (A) (A) (A) (A) (A) (A) (A) (A) (A) (A)
                 (A) (A) (A) (A) (A) (A) (A) (A) (A) (A) (A) (A)
                 (A) (A) (A) (A) (A) (A) (A) (A) (A) (A) (A) (A)
                 (A) (A) (A) (A) (A) (A) (A) (A) (A) (A) (A) (A)
                 (A) (A) (A) (A) (A) (A) (A) (A) (A) (A) (A) (A)
                 (A) (A) (A) (A) (A) (A) (A) (A) (A) (A) (A) (A)
                 (A) (A) (A) (A) (A) (A) (A) (A) (A) (A) (A) (A)
                 (A) (A) (A) (A) (A) (A) (A) (A) (A) (A) (A) (A)
                 (A) (A) (A) (A) (A) (A) (A) (A) (A) (A) (A) (A)
                 (A) (A) (A) (A) (A) (A) (A) (A) (A) (A) (A) (A)
                 (A) (A) (A) (A) (A) (A) (A) (A) (A) (A) (A) (A)
                 (A) (A) (A) (A) (A) (A) (A) (A) (A) (A) (A) (A)
                 (A) (A) (A) (A) (A) (A) (A) (A) (A) (A) (A) (A)
                 (A) (A) (A) (A) (A) (A) (A) (A) (A) (A) (A) (A)
                 (A) (A) (A) (A) (A) (A) (A) (A) (A) (A) (A) (A)
                 (A) (A) (A) (A) (A) (A) (A) (A) (A) (A) (A) (A)
                 (A) (A) (A) (A) (A) (A) (A) (A) (A) (A) (A) (A)
                 (A) (A) (A) (A) (A) (A) (A) (A) (A) (A) (A) (A)
                 (A) (A) (A) (A) (A) (A) (A) (A) (A) (A) (A) (A)
    24 initial guesses have been made.
 Convergence on wavefunction:    0.001000000000000
 Iteration     1 Dimension    24 NMult     0 NNew     24
 CISAX will form    24 AO SS matrices at one time.
 New state      1 was old state      2
 New state      2 was old state      4
 New state      3 was old state     24
 New state      4 was old state     14
 New state      5 was old state      6
 New state      6 was old state      1
 New state      7 was old state     22
 New state      8 was old state      3
 New state      9 was old state      8
 New state     10 was old state     12
 New state     11 was old state      5
 New state     12 was old state     10
 Vector   4 SDiff=1.73D+00 TDiff=1.13D+01 assumed to be singlet.
 Vector   5 SDiff=5.46D+00 TDiff=3.41D+00 assumed to be triplet.
 Vector  10 SDiff=1.70D+00 TDiff=1.04D+01 assumed to be singlet.
 Vector  11 SDiff=5.59D+00 TDiff=3.40D+00 assumed to be triplet.
 Iteration     2 Dimension    36 NMult    24 NNew     12
 New state      4 was old state      6
 New state      5 was old state      8
 New state      6 was old state     11
 Iteration     3 Dimension    48 NMult    36 NNew     12
 Iteration     4 Dimension    60 NMult    48 NNew     12
 Iteration     5 Dimension    72 NMult    60 NNew     12
 Iteration     6 Dimension    84 NMult    72 NNew     12
 Iteration     7 Dimension    92 NMult    84 NNew      8
 Iteration     8 Dimension    96 NMult    92 NNew      4
 Iteration     9 Dimension    98 NMult    96 NNew      2
 ***********************************************************************
 Excited states from <AA,BB:AA,BB> singles matrix:
 ***********************************************************************
 
 Ground to excited state transition densities written to RWF  633
 Ground to excited state transition electric dipole moments (Au):
       state          X           Y           Z        Dip. S.      Osc.
         1         0.0000     -0.0000      0.0000      0.0000      0.0000
         2        -0.0000     -0.0000     -0.0000      0.0000      0.0000
         3         0.0000     -0.0000     -0.0000      0.0000      0.0000
         4         0.7616     -0.0280      0.0139      0.5810      0.0684
         5        -0.0359     -0.3245      0.0804      0.1131      0.0136
         6         0.0805      0.0175     -0.0069      0.0068      0.0009
 Ground to excited state transition velocity dipole moments (Au):
       state          X           Y           Z        Dip. S.      Osc.
         1        -0.0000      0.0000     -0.0000      0.0000      0.0000
         2         0.0000     -0.0000      0.0000      0.0000      0.0000
         3         0.0000      0.0000      0.0000      0.0000      0.0000
         4        -0.1329      0.0053     -0.0025      0.0177      0.0668
         5         0.0075      0.0557     -0.0152      0.0034      0.0125
         6        -0.0154     -0.0060      0.0023      0.0003      0.0010
 Ground to excited state transition magnetic dipole moments (Au):
       state          X           Y           Z
         1        -0.0000      0.0000     -0.0000
         2         0.0000     -0.0000     -0.0000
         3         0.0000     -0.0000     -0.0000
         4        -0.2885      0.0759     -0.7758
         5        -0.0604      0.0042      0.0097
         6         0.1169     -0.0531     -0.1550
 Ground to excited state transition velocity quadrupole moments (Au):
       state          XX          YY          ZZ          XY          XZ          YZ
         1         0.0000     -0.0000      0.0000     -0.0000      0.0000     -0.0000
         2        -0.0000      0.0000     -0.0000     -0.0000     -0.0000      0.0000
         3        -0.0000      0.0000     -0.0000     -0.0000     -0.0000      0.0000
         4         0.0821      0.3884     -0.0156      0.0138      0.0042     -0.0719
         5        -0.1276      0.0600      0.0114     -0.3788      0.0500     -0.0909
         6        -0.0245      0.0255     -0.0253      0.0761     -0.0776      0.0751
 <0|del|b> * <b|rxdel|0> + <0|del|b> * <b|delr+rdel|0>
 Rotatory Strengths (R) in cgs (10**-40 erg-esu-cm/Gauss)
       state          XX          YY          ZZ    R(velocity)    E-M Angle
         1         0.0000      0.0000      0.0000      0.0000       90.00
         2        -0.0000      0.0000      0.0000      0.0000       90.00
         3        -0.0000      0.0000      0.0000      0.0000       90.00
         4         4.6444     99.9098     58.4988     54.3510       68.39
         5         6.0294    -13.8236      6.3643     -0.4766       95.86
         6        -0.6272     -6.6068      0.2756     -2.3195      123.18
 1/2[<0|r|b>*<b|rxdel|0> + (<0|rxdel|b>*<b|r|0>)*]
 Rotatory Strengths (R) in cgs (10**-40 erg-esu-cm/Gauss)
       state          XX          YY          ZZ     R(length)
         1         0.0000      0.0000      0.0000      0.0000
         2         0.0000     -0.0000     -0.0000      0.0000
         3        -0.0000     -0.0000     -0.0000     -0.0000
         4       155.3901      1.5046      7.6395     54.8447
         5        -1.5337      0.9661     -0.5494     -0.3723
         6        -6.6552      0.6565     -0.7538     -2.2508
  1/2[<0|del|b>*<b|r|0> + (<0|r|b>*<b|del|0>)*] (Au)
       state          X           Y           Z        Dip. S.   Osc.(frdel)
         1        -0.0000     -0.0000     -0.0000      0.0000      0.0000
         2        -0.0000      0.0000     -0.0000      0.0000      0.0000
         3         0.0000     -0.0000     -0.0000     -0.0000     -0.0000
         4        -0.1012     -0.0001     -0.0000      0.1014      0.0676
         5        -0.0003     -0.0181     -0.0012      0.0196      0.0130
         6        -0.0012     -0.0001     -0.0000      0.0014      0.0009

 Excitation energies and oscillator strengths:
 
 Excited State   1:      Triplet-A      3.5682 eV  347.47 nm  f=0.0000  <S**2>=2.000
      90 -> 96         0.13854
      90 -> 97        -0.15168
      90 -> 99         0.14782
      91 -> 96        -0.19613
      91 -> 97        -0.15938
      91 ->100        -0.12741
      93 -> 96         0.25031
      93 -> 97        -0.13071
      93 -> 98        -0.10568
      93 -> 99        -0.10601
      94 -> 97        -0.15525
      95 -> 96         0.32603
      95 -> 99        -0.11398
 This state for optimization and/or second-order correction.
 Total Energy, E(TD-HF/TD-DFT) =  -1241.50582596    
 Copying the excited state density for this state as the 1-particle RhoCI density.
 
 Excited State   2:      Triplet-A      3.6873 eV  336.25 nm  f=0.0000  <S**2>=2.000
      92 -> 98         0.19804
      92 ->100         0.16603
      93 ->100         0.15577
      94 -> 98         0.27050
      94 ->101        -0.14489
      94 ->102         0.17887
      95 -> 97         0.21287
      95 -> 99         0.15718
      95 ->100        -0.32273
 
 Excited State   3:      Triplet-A      3.7145 eV  333.78 nm  f=0.0000  <S**2>=2.000
      90 -> 96        -0.20841
      90 -> 97         0.22504
      91 -> 96         0.26958
      91 -> 97         0.13176
      92 -> 98         0.12371
      92 -> 99        -0.12897
      93 -> 97        -0.11665
      93 -> 98        -0.15228
      93 -> 99        -0.19616
      94 -> 98        -0.12255
      95 -> 99        -0.25175
 
 Excited State   4:      Singlet-A      4.8044 eV  258.06 nm  f=0.0684  <S**2>=0.000
      95 -> 96         0.68562
 
 Excited State   5:      Singlet-A      4.9051 eV  252.77 nm  f=0.0136  <S**2>=0.000
      91 -> 96         0.12752
      92 -> 96        -0.10991
      93 -> 96         0.13263
      93 -> 97         0.14104
      94 -> 96         0.23894
      95 -> 96        -0.10378
      95 -> 97         0.56267
 
 Excited State   6:      Singlet-A      5.0861 eV  243.77 nm  f=0.0009  <S**2>=0.000
      90 -> 96        -0.11046
      92 -> 96        -0.18737
      92 ->100         0.10283
      93 -> 96         0.26965
      94 -> 96        -0.15669
      94 -> 97        -0.23923
      94 -> 99        -0.13457
      94 ->100         0.11647
      95 -> 98         0.44778
 SavETr:  write IOETrn=   770 NScale= 10 NData=  16 NLR=1 NState=    6 LETran=     118.

 **********************************************************************

            Population analysis using the SCF Density.

 **********************************************************************

 Orbital symmetries:
       Occupied  (A) (A) (A) (A) (A) (A) (A) (A) (A) (A) (A) (A)
                 (A) (A) (A) (A) (A) (A) (A) (A) (A) (A) (A) (A)
                 (A) (A) (A) (A) (A) (A) (A) (A) (A) (A) (A) (A)
                 (A) (A) (A) (A) (A) (A) (A) (A) (A) (A) (A) (A)
                 (A) (A) (A) (A) (A) (A) (A) (A) (A) (A) (A) (A)
                 (A) (A) (A) (A) (A) (A) (A) (A) (A) (A) (A) (A)
                 (A) (A) (A) (A) (A) (A) (A) (A) (A) (A) (A) (A)
                 (A) (A) (A) (A) (A) (A) (A) (A) (A) (A) (A)
       Virtual   (A) (A) (A) (A) (A) (A) (A) (A) (A) (A) (A) (A)
                 (A) (A) (A) (A) (A) (A) (A) (A) (A) (A) (A) (A)
                 (A) (A) (A) (A) (A) (A) (A) (A) (A) (A) (A) (A)
                 (A) (A) (A) (A) (A) (A) (A) (A) (A) (A) (A) (A)
                 (A) (A) (A) (A) (A) (A) (A) (A) (A) (A) (A) (A)
                 (A) (A) (A) (A) (A) (A) (A) (A) (A) (A) (A) (A)
                 (A) (A) (A) (A) (A) (A) (A) (A) (A) (A) (A) (A)
                 (A) (A) (A) (A) (A) (A) (A) (A) (A) (A) (A) (A)
                 (A) (A) (A) (A) (A) (A) (A) (A) (A) (A) (A) (A)
                 (A) (A) (A) (A) (A) (A) (A) (A) (A) (A) (A) (A)
                 (A) (A) (A) (A) (A) (A) (A) (A) (A) (A) (A) (A)
                 (A) (A) (A) (A) (A) (A) (A) (A) (A) (A) (A) (A)
                 (A) (A) (A) (A) (A) (A) (A) (A) (A) (A) (A) (A)
                 (A) (A) (A) (A) (A) (A) (A) (A) (A) (A) (A) (A)
                 (A) (A) (A) (A) (A) (A) (A) (A) (A) (A) (A) (A)
                 (A) (A) (A) (A) (A) (A) (A) (A) (A) (A) (A) (A)
                 (A) (A) (A) (A) (A) (A) (A) (A) (A) (A) (A) (A)
                 (A) (A) (A) (A) (A) (A) (A) (A) (A) (A) (A) (A)
                 (A) (A) (A) (A) (A) (A) (A) (A) (A) (A) (A) (A)
                 (A) (A) (A) (A) (A) (A) (A) (A) (A) (A) (A) (A)
                 (A) (A) (A) (A) (A) (A) (A) (A) (A) (A) (A) (A)
                 (A) (A) (A) (A) (A) (A) (A) (A) (A) (A) (A) (A)
                 (A) (A) (A) (A) (A) (A) (A) (A) (A) (A) (A) (A)
                 (A) (A) (A) (A) (A) (A) (A) (A) (A) (A) (A) (A)
                 (A) (A) (A) (A) (A) (A) (A) (A) (A) (A) (A) (A)
                 (A) (A) (A) (A) (A) (A) (A) (A) (A) (A) (A) (A)
                 (A) (A) (A) (A) (A) (A) (A) (A) (A) (A) (A) (A)
                 (A) (A) (A) (A) (A) (A) (A) (A) (A) (A) (A) (A)
                 (A) (A) (A) (A) (A) (A) (A) (A) (A) (A) (A) (A)
                 (A) (A) (A) (A) (A) (A) (A) (A) (A) (A) (A) (A)
                 (A) (A) (A) (A) (A) (A) (A) (A) (A) (A) (A) (A)
                 (A) (A) (A) (A) (A) (A) (A) (A) (A) (A) (A) (A)
                 (A) (A) (A) (A) (A) (A) (A) (A) (A) (A) (A) (A)
                 (A) (A) (A) (A) (A) (A) (A) (A) (A) (A) (A) (A)
                 (A) (A) (A) (A) (A) (A) (A) (A) (A) (A) (A) (A)
                 (A) (A) (A) (A) (A) (A) (A) (A) (A) (A) (A) (A)
                 (A) (A) (A) (A) (A) (A) (A) (A) (A) (A) (A) (A)
                 (A) (A) (A) (A) (A) (A) (A) (A) (A) (A) (A) (A)
                 (A) (A) (A) (A) (A) (A) (A) (A) (A) (A) (A) (A)
                 (A) (A) (A) (A) (A) (A) (A) (A) (A) (A) (A) (A)
                 (A) (A) (A) (A) (A) (A) (A) (A) (A) (A) (A) (A)
                 (A) (A) (A) (A) (A) (A) (A) (A) (A) (A) (A) (A)
 The electronic state is 1-A.
 Alpha  occ. eigenvalues --  -24.76782 -24.76721 -24.76619 -14.36479 -10.47304
 Alpha  occ. eigenvalues --  -10.28785 -10.25679 -10.23729 -10.22383 -10.21949
 Alpha  occ. eigenvalues --  -10.21827 -10.21770 -10.21658 -10.21579 -10.21399
 Alpha  occ. eigenvalues --  -10.21213 -10.21078 -10.20587 -10.20567 -10.20479
 Alpha  occ. eigenvalues --  -10.20399 -10.20274 -10.20245 -10.20125 -10.19908
 Alpha  occ. eigenvalues --  -10.19852 -10.18790  -1.34053  -1.25410  -1.25259
 Alpha  occ. eigenvalues --   -0.93480  -0.89633  -0.87919  -0.86474  -0.84722
 Alpha  occ. eigenvalues --   -0.81153  -0.78833  -0.77121  -0.75724  -0.75330
 Alpha  occ. eigenvalues --   -0.74159  -0.72810  -0.70892  -0.65779  -0.63958
 Alpha  occ. eigenvalues --   -0.63854  -0.62202  -0.61859  -0.61364  -0.61087
 Alpha  occ. eigenvalues --   -0.60423  -0.59695  -0.57453  -0.54623  -0.53179
 Alpha  occ. eigenvalues --   -0.52200  -0.51292  -0.49387  -0.49257  -0.48872
 Alpha  occ. eigenvalues --   -0.48163  -0.46745  -0.46563  -0.46090  -0.45884
 Alpha  occ. eigenvalues --   -0.45424  -0.45171  -0.44335  -0.44296  -0.44083
 Alpha  occ. eigenvalues --   -0.43579  -0.43540  -0.43199  -0.42785  -0.40672
 Alpha  occ. eigenvalues --   -0.39310  -0.39087  -0.38522  -0.38373  -0.38098
 Alpha  occ. eigenvalues --   -0.37577  -0.36937  -0.36275  -0.35723  -0.35363
 Alpha  occ. eigenvalues --   -0.34954  -0.34866  -0.34517  -0.33367  -0.27992
 Alpha  occ. eigenvalues --   -0.27711  -0.26463  -0.26266  -0.26037  -0.24699
 Alpha virt. eigenvalues --   -0.04766  -0.04025  -0.02638  -0.02327  -0.02022
 Alpha virt. eigenvalues --   -0.01428  -0.01275  -0.00416   0.00143   0.00614
 Alpha virt. eigenvalues --    0.00721   0.01078   0.01379   0.01926   0.02627
 Alpha virt. eigenvalues --    0.02911   0.03233   0.03573   0.03865   0.04326
 Alpha virt. eigenvalues --    0.04411   0.05100   0.05752   0.06054   0.06244
 Alpha virt. eigenvalues --    0.06518   0.06963   0.07254   0.07578   0.07738
 Alpha virt. eigenvalues --    0.08571   0.08590   0.09052   0.09616   0.09872
 Alpha virt. eigenvalues --    0.10094   0.10449   0.10722   0.11017   0.11304
 Alpha virt. eigenvalues --    0.11319   0.11652   0.11936   0.12197   0.12244
 Alpha virt. eigenvalues --    0.12550   0.12982   0.13271   0.13569   0.14059
 Alpha virt. eigenvalues --    0.14304   0.14337   0.14841   0.15200   0.15817
 Alpha virt. eigenvalues --    0.15889   0.15964   0.16247   0.16379   0.16458
 Alpha virt. eigenvalues --    0.16921   0.17194   0.17230   0.17658   0.18149
 Alpha virt. eigenvalues --    0.18501   0.18604   0.18789   0.18904   0.19339
 Alpha virt. eigenvalues --    0.19362   0.19993   0.20212   0.20349   0.20408
 Alpha virt. eigenvalues --    0.20743   0.20939   0.21111   0.21245   0.21645
 Alpha virt. eigenvalues --    0.21982   0.22303   0.22505   0.23045   0.23209
 Alpha virt. eigenvalues --    0.23397   0.23594   0.24016   0.24280   0.24470
 Alpha virt. eigenvalues --    0.24985   0.25045   0.25167   0.25532   0.25677
 Alpha virt. eigenvalues --    0.25862   0.26055   0.26175   0.26561   0.26685
 Alpha virt. eigenvalues --    0.26955   0.27126   0.27661   0.27758   0.28054
 Alpha virt. eigenvalues --    0.28685   0.28768   0.29001   0.29296   0.29582
 Alpha virt. eigenvalues --    0.29891   0.30244   0.30492   0.30818   0.30975
 Alpha virt. eigenvalues --    0.31172   0.31332   0.31612   0.32044   0.32517
 Alpha virt. eigenvalues --    0.32893   0.33164   0.33311   0.33821   0.34350
 Alpha virt. eigenvalues --    0.34401   0.34749   0.35095   0.35604   0.35886
 Alpha virt. eigenvalues --    0.36037   0.36421   0.37341   0.37414   0.37945
 Alpha virt. eigenvalues --    0.38565   0.39230   0.39271   0.39509   0.39818
 Alpha virt. eigenvalues --    0.40086   0.40490   0.41551   0.41800   0.42135
 Alpha virt. eigenvalues --    0.42402   0.42654   0.43446   0.44809   0.45751
 Alpha virt. eigenvalues --    0.46198   0.48715   0.49478   0.49960   0.51424
 Alpha virt. eigenvalues --    0.55913   0.56962   0.57714   0.59946   0.60693
 Alpha virt. eigenvalues --    0.61881   0.64223   0.64867   0.65996   0.66923
 Alpha virt. eigenvalues --    0.68290   0.69021   0.69426   0.69933   0.70453
 Alpha virt. eigenvalues --    0.71284   0.71910   0.72130   0.73013   0.73185
 Alpha virt. eigenvalues --    0.73526   0.73800   0.74454   0.74968   0.75151
 Alpha virt. eigenvalues --    0.75739   0.76276   0.76715   0.77338   0.77422
 Alpha virt. eigenvalues --    0.78203   0.78810   0.78965   0.79682   0.79849
 Alpha virt. eigenvalues --    0.80633   0.81061   0.82019   0.82469   0.82688
 Alpha virt. eigenvalues --    0.83804   0.84493   0.84950   0.85674   0.86249
 Alpha virt. eigenvalues --    0.87039   0.87315   0.87892   0.88715   0.88953
 Alpha virt. eigenvalues --    0.89501   0.89938   0.90086   0.91321   0.92181
 Alpha virt. eigenvalues --    0.92768   0.92986   0.93532   0.93991   0.94599
 Alpha virt. eigenvalues --    0.95268   0.96517   0.96705   0.97437   0.97571
 Alpha virt. eigenvalues --    0.99074   0.99466   1.00664   1.02394   1.02617
 Alpha virt. eigenvalues --    1.02816   1.03628   1.04518   1.04882   1.05222
 Alpha virt. eigenvalues --    1.06000   1.06284   1.06715   1.07509   1.09240
 Alpha virt. eigenvalues --    1.09620   1.10724   1.12522   1.12925   1.13671
 Alpha virt. eigenvalues --    1.14232   1.15333   1.16211   1.16450   1.17738
 Alpha virt. eigenvalues --    1.18418   1.19372   1.20005   1.20416   1.21412
 Alpha virt. eigenvalues --    1.22045   1.23623   1.25059   1.25315   1.25718
 Alpha virt. eigenvalues --    1.26332   1.27639   1.27983   1.29063   1.29792
 Alpha virt. eigenvalues --    1.31752   1.32955   1.33942   1.34654   1.36315
 Alpha virt. eigenvalues --    1.36648   1.37523   1.38491   1.38966   1.39046
 Alpha virt. eigenvalues --    1.39882   1.40625   1.41414   1.41591   1.42517
 Alpha virt. eigenvalues --    1.42889   1.43314   1.43788   1.44958   1.45478
 Alpha virt. eigenvalues --    1.47490   1.47930   1.49853   1.50830   1.51915
 Alpha virt. eigenvalues --    1.52052   1.52844   1.55384   1.56355   1.57713
 Alpha virt. eigenvalues --    1.58930   1.60927   1.62441   1.63024   1.64864
 Alpha virt. eigenvalues --    1.65824   1.66501   1.67404   1.67664   1.68342
 Alpha virt. eigenvalues --    1.68801   1.70044   1.72405   1.74770   1.75342
 Alpha virt. eigenvalues --    1.75955   1.77052   1.77872   1.78667   1.79818
 Alpha virt. eigenvalues --    1.80201   1.80570   1.81649   1.81989   1.83012
 Alpha virt. eigenvalues --    1.83575   1.83921   1.85195   1.85858   1.86088
 Alpha virt. eigenvalues --    1.86818   1.87731   1.88381   1.89005   1.89865
 Alpha virt. eigenvalues --    1.89986   1.90396   1.90827   1.92504   1.92847
 Alpha virt. eigenvalues --    1.93816   1.94461   1.96053   1.96804   1.97161
 Alpha virt. eigenvalues --    1.97453   1.97705   1.98892   2.00016   2.00333
 Alpha virt. eigenvalues --    2.00564   2.00676   2.01373   2.01622   2.02151
 Alpha virt. eigenvalues --    2.02803   2.02868   2.03635   2.04518   2.04816
 Alpha virt. eigenvalues --    2.05487   2.05653   2.06724   2.08097   2.09047
 Alpha virt. eigenvalues --    2.10001   2.11365   2.12243   2.13591   2.15104
 Alpha virt. eigenvalues --    2.15967   2.16123   2.17006   2.17976   2.19887
 Alpha virt. eigenvalues --    2.22282   2.23002   2.24001   2.25135   2.26493
 Alpha virt. eigenvalues --    2.27744   2.28544   2.30109   2.30324   2.31019
 Alpha virt. eigenvalues --    2.31968   2.33520   2.35195   2.35749   2.36929
 Alpha virt. eigenvalues --    2.37251   2.38299   2.38475   2.38562   2.39338
 Alpha virt. eigenvalues --    2.40225   2.41336   2.42050   2.43006   2.43923
 Alpha virt. eigenvalues --    2.44386   2.45301   2.45498   2.46580   2.47401
 Alpha virt. eigenvalues --    2.48095   2.49062   2.49400   2.50876   2.52711
 Alpha virt. eigenvalues --    2.52848   2.53202   2.53565   2.54866   2.55532
 Alpha virt. eigenvalues --    2.56076   2.57303   2.57981   2.58861   2.59354
 Alpha virt. eigenvalues --    2.59521   2.60966   2.61674   2.62224   2.63572
 Alpha virt. eigenvalues --    2.64512   2.64772   2.66255   2.67136   2.69337
 Alpha virt. eigenvalues --    2.70149   2.70983   2.72641   2.73333   2.75162
 Alpha virt. eigenvalues --    2.76161   2.76674   2.77209   2.77989   2.78721
 Alpha virt. eigenvalues --    2.79841   2.80354   2.82102   2.83179   2.84676
 Alpha virt. eigenvalues --    2.85604   2.86812   2.89344   2.90398   2.91663
 Alpha virt. eigenvalues --    2.94056   2.97115   2.99043   3.00886   3.02770
 Alpha virt. eigenvalues --    3.04589   3.06887   3.07985   3.09518   3.17062
 Alpha virt. eigenvalues --    3.18813   3.19304   3.20319   3.21562   3.24714
 Alpha virt. eigenvalues --    3.26630   3.26927   3.28406   3.28788   3.29108
 Alpha virt. eigenvalues --    3.30040   3.31648   3.32420   3.35012   3.35961
 Alpha virt. eigenvalues --    3.38581   3.43791   3.45409   3.47610   3.48596
 Alpha virt. eigenvalues --    3.50421   3.52477   3.53405   3.55320   3.79713
 Alpha virt. eigenvalues --    3.85779   3.88803   4.25027   4.33479   4.34116
 Alpha virt. eigenvalues --    4.35649   4.36152   4.37263   4.41009   4.42166
 Alpha virt. eigenvalues --    4.44109   4.45781   4.49818   4.51071   4.51656
 Alpha virt. eigenvalues --    4.52157   4.53660   4.55668   4.58045   4.59483
 Alpha virt. eigenvalues --    4.60632   4.74868   4.83445   4.86401   4.88616
 Alpha virt. eigenvalues --    4.91488   5.79798   6.25133   6.71744
          Condensed to atoms (all electrons):
               1          2          3          4          5          6
     1  C    6.606538  -2.747661   1.353391   0.471913  -0.160477   0.003448
     2  C   -2.747661  20.711871  -9.113186  -1.907074   0.852409   0.231190
     3  C    1.353391  -9.113186  16.629295   0.175551  -0.416133  -1.140033
     4  C    0.471913  -1.907074   0.175551  10.279483  -1.873594   0.027201
     5  C   -0.160477   0.852409  -0.416133  -1.873594   7.312186   0.365855
     6  C    0.003448   0.231190  -1.140033   0.027201   0.365855   5.797912
     7  C   -0.117377  -0.712258   0.864291  -1.006379   0.402853  -0.030681
     8  C   -0.826416   5.525998  -6.383167  -0.567032  -0.379180   0.847912
     9  C    0.673928  -4.145168   3.535440  -1.380946  -0.097674  -0.422563
    10  C   -0.255179   0.744559  -0.316890   0.073141   0.044314   0.135005
    11  C   -0.094976  -0.306083   0.031892  -0.194334   0.024178  -0.001567
    12  C   -0.037521   0.416430  -0.175301   0.016439   0.002714  -0.004042
    13  C   -0.046950   0.181086  -0.141534   0.280206  -0.024862   0.038282
    14  C    0.357105  -3.618509   0.227850   1.438849  -0.167096   0.076116
    15  C   -0.139054   1.103782  -1.862629   0.453129   0.070293   0.006248
    16  C   -0.524150   1.722969  -1.351022   0.543248   0.062830   0.034687
    17  C   -0.091065   0.720464  -0.161144  -0.325156   0.025069  -0.018104
    18  C    0.016831  -0.279712   0.589178  -0.082661   0.075450  -0.154079
    19  C   -0.007471   0.023210  -0.044658   0.032083  -0.003842   0.011549
    20  C   -0.004232   0.015853   0.008187  -0.016447   0.000311  -0.002661
    21  N    0.000405  -0.001095   0.000011   0.000153   0.000403  -0.000023
    22  C    0.000377  -0.001128  -0.000575   0.000164  -0.000926   0.001067
    23  F   -0.000040  -0.000006   0.000100  -0.000057   0.000024  -0.000005
    24  F   -0.000015   0.000169  -0.000121  -0.000017  -0.000050  -0.000003
    25  F   -0.000003   0.000001   0.000021  -0.000013  -0.000011  -0.000005
    26  C    0.244446  -1.135762   1.703648  -0.577201   0.108643  -0.253586
    27  C    0.481627  -2.166440   1.001254   0.081802  -0.280965   0.294836
    28  H    0.449269  -0.152032   0.005740   0.067552   0.024194   0.002037
    29  H    0.465365  -0.243255   0.076540  -0.002789  -0.011198   0.000189
    30  H    0.518301  -0.224895   0.080490  -0.002107   0.011295   0.000416
    31  H   -0.026781   0.186922   0.141130  -0.027583  -0.006157   0.005122
    32  H   -0.031797   0.060173  -0.019654   0.202072   0.080810   0.009619
    33  H    0.002897  -0.003134   0.044402   0.044885   0.207809   0.013561
    34  H   -0.000043  -0.002557  -0.011277   0.040015   0.002322   0.264780
    35  H    0.000204  -0.008755   0.026174  -0.004807   0.015149   0.004697
    36  H    0.019799   0.064420  -0.052297  -0.006118  -0.002379  -0.000898
    37  H   -0.027255  -0.067380  -0.020405  -0.006676   0.000602  -0.000250
    38  H    0.000373  -0.011081  -0.003741   0.000193   0.000032  -0.000033
    39  H    0.000312   0.004439   0.001097  -0.000017  -0.000004   0.000002
    40  H   -0.000736   0.002403  -0.001833  -0.000645  -0.000040  -0.000026
    41  H    0.003061  -0.016204   0.003037   0.001469   0.000102   0.000011
    42  H    0.000223  -0.000935   0.000360   0.000083   0.000147  -0.000005
    43  H   -0.000136   0.000244  -0.000704   0.000717  -0.000325   0.000211
    44  H   -0.000314  -0.007575  -0.006095   0.013007   0.004659  -0.000524
    45  H   -0.004465   0.029886   0.022499  -0.012892   0.011328  -0.004947
               7          8          9         10         11         12
     1  C   -0.117377  -0.826416   0.673928  -0.255179  -0.094976  -0.037521
     2  C   -0.712258   5.525998  -4.145168   0.744559  -0.306083   0.416430
     3  C    0.864291  -6.383167   3.535440  -0.316890   0.031892  -0.175301
     4  C   -1.006379  -0.567032  -1.380946   0.073141  -0.194334   0.016439
     5  C    0.402853  -0.379180  -0.097674   0.044314   0.024178   0.002714
     6  C   -0.030681   0.847912  -0.422563   0.135005  -0.001567  -0.004042
     7  C   10.096947  -4.191332   1.089803  -0.135545   0.030022  -0.060072
     8  C   -4.191332  14.769789  -2.327744   0.832037   0.137245   0.032601
     9  C    1.089803  -2.327744  35.275704 -10.728636   1.188450   0.991444
    10  C   -0.135545   0.832037 -10.728636  15.810843  -1.094158  -2.532634
    11  C    0.030022   0.137245   1.188450  -1.094158   7.897071   0.801357
    12  C   -0.060072   0.032601   0.991444  -2.532634   0.801357   8.179690
    13  C   -0.054746   0.220651  -6.679113   5.118456  -0.974205  -3.151743
    14  C   -0.200618  -1.116852  -7.672933  -0.874378  -1.277855   0.679996
    15  C   -0.590445   0.856142  -4.819818  -1.358442  -0.469202   0.846539
    16  C   -0.164255   0.280163  -1.294411   0.687715  -0.132840  -0.126580
    17  C    0.011612   0.246781   0.023558  -0.236612  -0.017794   0.170150
    18  C    0.113820  -0.355316   0.366163  -0.036225  -0.002781   0.051388
    19  C    0.010261  -0.016375  -0.021439   0.027356  -0.005658  -0.002825
    20  C   -0.000125   0.011999  -0.032069   0.000002  -0.000344   0.000305
    21  N    0.000050  -0.000375   0.000426  -0.000060  -0.000002   0.000028
    22  C   -0.000392  -0.000624   0.011883  -0.000742   0.000351   0.000324
    23  F    0.000007  -0.000015   0.000624  -0.000010   0.000007   0.000026
    24  F    0.000012   0.000081   0.000006  -0.000001  -0.000008   0.000117
    25  F    0.000001   0.000003   0.000031  -0.000000   0.000000  -0.000000
    26  C    0.507370  -1.001888   1.635370   0.074082   0.060062  -0.202814
    27  C    0.087852  -0.508592   1.225518  -0.358239   0.221069  -0.138835
    28  H   -0.004583  -0.046285  -0.002311  -0.025930  -0.004814   0.000785
    29  H   -0.003399  -0.025992   0.071428  -0.037464   0.000224   0.005046
    30  H    0.001424  -0.015139   0.027162   0.043481   0.005653  -0.004984
    31  H    0.019411   0.001697  -0.232851   0.218352   0.072721  -0.005312
    32  H    0.001235  -0.008891   0.006242   0.006532   0.000954   0.000020
    33  H    0.000627  -0.001742  -0.001785   0.000506   0.000034  -0.000004
    34  H   -0.003974   0.019954   0.000435  -0.000041  -0.000005   0.000003
    35  H    0.274081  -0.002583   0.006816  -0.000785   0.000112  -0.000070
    36  H   -0.012370   0.277329  -0.054161  -0.002652   0.000094  -0.005673
    37  H    0.024084   0.036845  -0.073366   0.299713   0.112346   0.004534
    38  H    0.000081   0.000069  -0.004341   0.011630   0.298678  -0.022700
    39  H   -0.000293  -0.000636   0.051427   0.011297  -0.017944   0.318502
    40  H    0.000539   0.000745   0.090183  -0.025256   0.004447  -0.066985
    41  H   -0.000258  -0.002134  -0.049367   0.007931   0.001990   0.016325
    42  H    0.000025  -0.000186  -0.004320  -0.000625  -0.000070   0.001017
    43  H   -0.000045  -0.000015  -0.000048   0.000024   0.000001  -0.000006
    44  H   -0.001074  -0.003084  -0.005943  -0.000010   0.000033  -0.000119
    45  H    0.038067  -0.025185   0.005473  -0.020681  -0.004637   0.010493
              13         14         15         16         17         18
     1  C   -0.046950   0.357105  -0.139054  -0.524150  -0.091065   0.016831
     2  C    0.181086  -3.618509   1.103782   1.722969   0.720464  -0.279712
     3  C   -0.141534   0.227850  -1.862629  -1.351022  -0.161144   0.589178
     4  C    0.280206   1.438849   0.453129   0.543248  -0.325156  -0.082661
     5  C   -0.024862  -0.167096   0.070293   0.062830   0.025069   0.075450
     6  C    0.038282   0.076116   0.006248   0.034687  -0.018104  -0.154079
     7  C   -0.054746  -0.200618  -0.590445  -0.164255   0.011612   0.113820
     8  C    0.220651  -1.116852   0.856142   0.280163   0.246781  -0.355316
     9  C   -6.679113  -7.672933  -4.819818  -1.294411   0.023558   0.366163
    10  C    5.118456  -0.874378  -1.358442   0.687715  -0.236612  -0.036225
    11  C   -0.974205  -1.277855  -0.469202  -0.132840  -0.017794  -0.002781
    12  C   -3.151743   0.679996   0.846539  -0.126580   0.170150   0.051388
    13  C   14.311752  -2.417790  -0.624624   1.127437  -0.444113  -0.080105
    14  C   -2.417790  18.760204   3.847162  -0.366840  -0.229922  -0.395736
    15  C   -0.624624   3.847162  16.875281  -3.218682   2.068272  -1.216259
    16  C    1.127437  -0.366840  -3.218682  21.405072  -5.938083   0.332888
    17  C   -0.444113  -0.229922   2.068272  -5.938083  18.393196   0.406502
    18  C   -0.080105  -0.395736  -1.216259   0.332888   0.406502  17.096077
    19  C    0.055158   0.037873  -1.062990   0.899259  -2.800794  -3.636382
    20  C    0.004469  -0.032401   0.127823  -0.474630   1.496854   0.236207
    21  N    0.000001   0.000225  -0.000291   0.037969  -0.077745   0.035875
    22  C   -0.007305   0.016983  -0.017910   0.154002  -0.243367  -0.335400
    23  F    0.000099   0.001861  -0.006621   0.020571  -0.093035   0.091780
    24  F    0.000733   0.001379  -0.005511   0.011784   0.047561   0.111527
    25  F   -0.000019   0.000090   0.001161  -0.007711   0.042440   0.059940
    26  C   -0.155605  -1.170634  -4.153117  -2.434692  -3.230291  -1.486337
    27  C   -0.608612   0.108025  -0.629006  -5.561945  -3.360024  -5.238062
    28  H    0.000069   0.033853   0.004563   0.002092  -0.005137   0.001353
    29  H   -0.008684   0.045321   0.018362   0.009751  -0.004261   0.000954
    30  H   -0.001787  -0.021971  -0.024908  -0.050000   0.001911  -0.006977
    31  H    0.015940  -0.087113  -0.041094  -0.009413  -0.001442   0.000142
    32  H   -0.001470  -0.009744  -0.004619   0.002125  -0.002003  -0.000199
    33  H   -0.000120  -0.000916  -0.006371  -0.001448   0.000800   0.000761
    34  H    0.000018  -0.000186   0.002054   0.000134   0.000006   0.000331
    35  H    0.000020  -0.002248  -0.001449  -0.000162  -0.000007   0.000002
    36  H   -0.001858   0.058245  -0.025547  -0.007030   0.000010   0.000138
    37  H   -0.005648   0.019808  -0.001356   0.000946  -0.000470  -0.000076
    38  H    0.017934   0.024988  -0.001034  -0.001713  -0.000076  -0.000057
    39  H   -0.032390  -0.017917  -0.004213  -0.002927   0.000814   0.000062
    40  H    0.331378  -0.049251  -0.065355   0.095679   0.010116   0.009666
    41  H    0.061875  -0.000517  -0.009619   0.372015  -0.146161   0.029770
    42  H   -0.000294  -0.000389   0.034338  -0.082511   0.315099   0.084470
    43  H    0.000062   0.000776  -0.005117   0.021820  -0.132878  -0.307208
    44  H    0.001456   0.001835   0.107804   0.052698  -0.060218  -0.017823
    45  H   -0.024264   0.036835   0.011785   0.015833   0.009372   0.084823
              19         20         21         22         23         24
     1  C   -0.007471  -0.004232   0.000405   0.000377  -0.000040  -0.000015
     2  C    0.023210   0.015853  -0.001095  -0.001128  -0.000006   0.000169
     3  C   -0.044658   0.008187   0.000011  -0.000575   0.000100  -0.000121
     4  C    0.032083  -0.016447   0.000153   0.000164  -0.000057  -0.000017
     5  C   -0.003842   0.000311   0.000403  -0.000926   0.000024  -0.000050
     6  C    0.011549  -0.002661  -0.000023   0.001067  -0.000005  -0.000003
     7  C    0.010261  -0.000125   0.000050  -0.000392   0.000007   0.000012
     8  C   -0.016375   0.011999  -0.000375  -0.000624  -0.000015   0.000081
     9  C   -0.021439  -0.032069   0.000426   0.011883   0.000624   0.000006
    10  C    0.027356   0.000002  -0.000060  -0.000742  -0.000010  -0.000001
    11  C   -0.005658  -0.000344  -0.000002   0.000351   0.000007  -0.000008
    12  C   -0.002825   0.000305   0.000028   0.000324   0.000026   0.000117
    13  C    0.055158   0.004469   0.000001  -0.007305   0.000099   0.000733
    14  C    0.037873  -0.032401   0.000225   0.016983   0.001861   0.001379
    15  C   -1.062990   0.127823  -0.000291  -0.017910  -0.006621  -0.005511
    16  C    0.899259  -0.474630   0.037969   0.154002   0.020571   0.011784
    17  C   -2.800794   1.496854  -0.077745  -0.243367  -0.093035   0.047561
    18  C   -3.636382   0.236207   0.035875  -0.335400   0.091780   0.111527
    19  C   11.246813  -2.413721   0.097554   0.869170  -0.096430  -0.152314
    20  C   -2.413721   8.724327   0.299536  -0.806272  -0.045857   0.115415
    21  N    0.097554   0.299536   7.024449   0.018799  -0.005412  -0.002621
    22  C    0.869170  -0.806272   0.018799   4.522888   0.234892   0.121826
    23  F   -0.096430  -0.045857  -0.005412   0.234892   9.207093  -0.040940
    24  F   -0.152314   0.115415  -0.002621   0.121826  -0.040940   9.234019
    25  F   -0.148399  -0.030855  -0.000224   0.202506  -0.038768  -0.032640
    26  C    1.804830  -0.849487   0.019601   0.179761   0.038209  -0.084858
    27  C    0.598052  -0.132882  -0.017719   0.060509   0.006617  -0.037635
    28  H    0.000828  -0.000198   0.000004   0.000011   0.000000   0.000000
    29  H   -0.000357   0.000040  -0.000000  -0.000004   0.000000  -0.000000
    30  H   -0.003410   0.000987  -0.000036  -0.000088  -0.000000   0.000000
    31  H    0.000011  -0.000002  -0.000000   0.000000   0.000000   0.000000
    32  H    0.001781   0.000275   0.000003  -0.000001   0.000000   0.000000
    33  H   -0.000198   0.000091  -0.000001   0.000015  -0.000000   0.000000
    34  H   -0.000055   0.000010  -0.000000  -0.000004  -0.000000  -0.000000
    35  H   -0.000003  -0.000002   0.000000   0.000000   0.000000  -0.000000
    36  H   -0.000001  -0.000008   0.000000   0.000002  -0.000000  -0.000000
    37  H   -0.000004  -0.000000  -0.000000   0.000000   0.000000   0.000000
    38  H   -0.000002  -0.000000  -0.000000  -0.000000  -0.000000   0.000000
    39  H    0.000002  -0.000001   0.000000   0.000001  -0.000000  -0.000000
    40  H    0.000030   0.000074  -0.000000   0.000064   0.000000  -0.000001
    41  H    0.002362  -0.001974   0.000008   0.000334  -0.000015  -0.000004
    42  H   -0.016895  -0.012192   0.003139  -0.002081  -0.000572  -0.000044
    43  H    0.474664  -0.085244  -0.004377   0.008312   0.008455  -0.004082
    44  H   -0.049194  -0.009242   0.000241   0.015622   0.000007  -0.000951
    45  H    0.006858   0.001672   0.000004  -0.001681   0.000001  -0.000020
              25         26         27         28         29         30
     1  C   -0.000003   0.244446   0.481627   0.449269   0.465365   0.518301
     2  C    0.000001  -1.135762  -2.166440  -0.152032  -0.243255  -0.224895
     3  C    0.000021   1.703648   1.001254   0.005740   0.076540   0.080490
     4  C   -0.000013  -0.577201   0.081802   0.067552  -0.002789  -0.002107
     5  C   -0.000011   0.108643  -0.280965   0.024194  -0.011198   0.011295
     6  C   -0.000005  -0.253586   0.294836   0.002037   0.000189   0.000416
     7  C    0.000001   0.507370   0.087852  -0.004583  -0.003399   0.001424
     8  C    0.000003  -1.001888  -0.508592  -0.046285  -0.025992  -0.015139
     9  C    0.000031   1.635370   1.225518  -0.002311   0.071428   0.027162
    10  C   -0.000000   0.074082  -0.358239  -0.025930  -0.037464   0.043481
    11  C    0.000000   0.060062   0.221069  -0.004814   0.000224   0.005653
    12  C   -0.000000  -0.202814  -0.138835   0.000785   0.005046  -0.004984
    13  C   -0.000019  -0.155605  -0.608612   0.000069  -0.008684  -0.001787
    14  C    0.000090  -1.170634   0.108025   0.033853   0.045321  -0.021971
    15  C    0.001161  -4.153117  -0.629006   0.004563   0.018362  -0.024908
    16  C   -0.007711  -2.434692  -5.561945   0.002092   0.009751  -0.050000
    17  C    0.042440  -3.230291  -3.360024  -0.005137  -0.004261   0.001911
    18  C    0.059940  -1.486337  -5.238062   0.001353   0.000954  -0.006977
    19  C   -0.148399   1.804830   0.598052   0.000828  -0.000357  -0.003410
    20  C   -0.030855  -0.849487  -0.132882  -0.000198   0.000040   0.000987
    21  N   -0.000224   0.019601  -0.017719   0.000004  -0.000000  -0.000036
    22  C    0.202506   0.179761   0.060509   0.000011  -0.000004  -0.000088
    23  F   -0.038768   0.038209   0.006617   0.000000   0.000000  -0.000000
    24  F   -0.032640  -0.084858  -0.037635   0.000000  -0.000000   0.000000
    25  F    9.261162  -0.013853  -0.003712  -0.000000   0.000000   0.000000
    26  C   -0.013853  13.263320   2.424476   0.000443  -0.002084   0.009877
    27  C   -0.003712   2.424476  18.257896   0.001835   0.004124   0.006502
    28  H   -0.000000   0.000443   0.001835   0.563869  -0.026261  -0.029274
    29  H    0.000000  -0.002084   0.004124  -0.026261   0.550622  -0.027795
    30  H    0.000000   0.009877   0.006502  -0.029274  -0.027795   0.531591
    31  H    0.000000   0.003231   0.009397  -0.006330  -0.003561   0.005371
    32  H   -0.000000  -0.002553   0.001803  -0.001047   0.000128  -0.000565
    33  H   -0.000000   0.012835  -0.006041  -0.000000  -0.000000   0.000002
    34  H    0.000000   0.000381  -0.002999   0.000000  -0.000000   0.000000
    35  H    0.000000  -0.002259   0.004368   0.000000  -0.000000   0.000000
    36  H   -0.000000   0.008839   0.036274  -0.000003  -0.000010  -0.000004
    37  H    0.000000  -0.000586  -0.005733  -0.000016   0.000006  -0.000011
    38  H    0.000000   0.000057   0.001080  -0.000000   0.000000   0.000000
    39  H   -0.000000  -0.000076  -0.000458   0.000000  -0.000000   0.000000
    40  H   -0.000000  -0.005155  -0.029102  -0.000000   0.000001   0.000001
    41  H   -0.000001  -0.000180   0.029388   0.000005  -0.000082  -0.000204
    42  H   -0.000216  -0.011429  -0.002540   0.000000   0.000001  -0.000001
    43  H   -0.003228   0.204689   0.091325   0.000000   0.000000   0.000000
    44  H   -0.000076   0.224804   0.036077   0.000000   0.000000  -0.000004
    45  H   -0.000001  -0.058502   0.168293   0.000001   0.000000   0.000008
              31         32         33         34         35         36
     1  C   -0.026781  -0.031797   0.002897  -0.000043   0.000204   0.019799
     2  C    0.186922   0.060173  -0.003134  -0.002557  -0.008755   0.064420
     3  C    0.141130  -0.019654   0.044402  -0.011277   0.026174  -0.052297
     4  C   -0.027583   0.202072   0.044885   0.040015  -0.004807  -0.006118
     5  C   -0.006157   0.080810   0.207809   0.002322   0.015149  -0.002379
     6  C    0.005122   0.009619   0.013561   0.264780   0.004697  -0.000898
     7  C    0.019411   0.001235   0.000627  -0.003974   0.274081  -0.012370
     8  C    0.001697  -0.008891  -0.001742   0.019954  -0.002583   0.277329
     9  C   -0.232851   0.006242  -0.001785   0.000435   0.006816  -0.054161
    10  C    0.218352   0.006532   0.000506  -0.000041  -0.000785  -0.002652
    11  C    0.072721   0.000954   0.000034  -0.000005   0.000112   0.000094
    12  C   -0.005312   0.000020  -0.000004   0.000003  -0.000070  -0.005673
    13  C    0.015940  -0.001470  -0.000120   0.000018   0.000020  -0.001858
    14  C   -0.087113  -0.009744  -0.000916  -0.000186  -0.002248   0.058245
    15  C   -0.041094  -0.004619  -0.006371   0.002054  -0.001449  -0.025547
    16  C   -0.009413   0.002125  -0.001448   0.000134  -0.000162  -0.007030
    17  C   -0.001442  -0.002003   0.000800   0.000006  -0.000007   0.000010
    18  C    0.000142  -0.000199   0.000761   0.000331   0.000002   0.000138
    19  C    0.000011   0.001781  -0.000198  -0.000055  -0.000003  -0.000001
    20  C   -0.000002   0.000275   0.000091   0.000010  -0.000002  -0.000008
    21  N   -0.000000   0.000003  -0.000001  -0.000000   0.000000   0.000000
    22  C    0.000000  -0.000001   0.000015  -0.000004   0.000000   0.000002
    23  F    0.000000   0.000000  -0.000000  -0.000000   0.000000  -0.000000
    24  F    0.000000   0.000000   0.000000  -0.000000  -0.000000  -0.000000
    25  F    0.000000  -0.000000  -0.000000   0.000000   0.000000  -0.000000
    26  C    0.003231  -0.002553   0.012835   0.000381  -0.002259   0.008839
    27  C    0.009397   0.001803  -0.006041  -0.002999   0.004368   0.036274
    28  H   -0.006330  -0.001047  -0.000000   0.000000   0.000000  -0.000003
    29  H   -0.003561   0.000128  -0.000000  -0.000000  -0.000000  -0.000010
    30  H    0.005371  -0.000565   0.000002   0.000000   0.000000  -0.000004
    31  H    0.628968   0.000132   0.000003   0.000000   0.000000   0.000392
    32  H    0.000132   0.604014  -0.006209  -0.000172   0.000016  -0.000162
    33  H    0.000003  -0.006209   0.584423  -0.005610  -0.000177   0.000016
    34  H    0.000000  -0.000172  -0.005610   0.578828  -0.005507  -0.000168
    35  H    0.000000   0.000016  -0.000177  -0.005507   0.579173  -0.005926
    36  H    0.000392  -0.000162   0.000016  -0.000168  -0.005926   0.584678
    37  H    0.006433  -0.000000  -0.000000   0.000000   0.000000  -0.000404
    38  H   -0.000010  -0.000000  -0.000000   0.000000  -0.000000  -0.000008
    39  H   -0.000000   0.000000  -0.000000  -0.000000   0.000000   0.000000
    40  H    0.000002  -0.000000  -0.000000   0.000000  -0.000000  -0.000001
    41  H    0.000001   0.000000  -0.000000   0.000000   0.000000   0.000000
    42  H    0.000000   0.000000  -0.000000  -0.000000   0.000000  -0.000000
    43  H    0.000000   0.000000   0.000000  -0.000000   0.000000  -0.000000
    44  H   -0.000000  -0.000010  -0.000014   0.000000   0.000000   0.000000
    45  H   -0.000017  -0.000012   0.000002   0.000001  -0.000021  -0.000150
              37         38         39         40         41         42
     1  C   -0.027255   0.000373   0.000312  -0.000736   0.003061   0.000223
     2  C   -0.067380  -0.011081   0.004439   0.002403  -0.016204  -0.000935
     3  C   -0.020405  -0.003741   0.001097  -0.001833   0.003037   0.000360
     4  C   -0.006676   0.000193  -0.000017  -0.000645   0.001469   0.000083
     5  C    0.000602   0.000032  -0.000004  -0.000040   0.000102   0.000147
     6  C   -0.000250  -0.000033   0.000002  -0.000026   0.000011  -0.000005
     7  C    0.024084   0.000081  -0.000293   0.000539  -0.000258   0.000025
     8  C    0.036845   0.000069  -0.000636   0.000745  -0.002134  -0.000186
     9  C   -0.073366  -0.004341   0.051427   0.090183  -0.049367  -0.004320
    10  C    0.299713   0.011630   0.011297  -0.025256   0.007931  -0.000625
    11  C    0.112346   0.298678  -0.017944   0.004447   0.001990  -0.000070
    12  C    0.004534  -0.022700   0.318502  -0.066985   0.016325   0.001017
    13  C   -0.005648   0.017934  -0.032390   0.331378   0.061875  -0.000294
    14  C    0.019808   0.024988  -0.017917  -0.049251  -0.000517  -0.000389
    15  C   -0.001356  -0.001034  -0.004213  -0.065355  -0.009619   0.034338
    16  C    0.000946  -0.001713  -0.002927   0.095679   0.372015  -0.082511
    17  C   -0.000470  -0.000076   0.000814   0.010116  -0.146161   0.315099
    18  C   -0.000076  -0.000057   0.000062   0.009666   0.029770   0.084470
    19  C   -0.000004  -0.000002   0.000002   0.000030   0.002362  -0.016895
    20  C   -0.000000  -0.000000  -0.000001   0.000074  -0.001974  -0.012192
    21  N   -0.000000  -0.000000   0.000000  -0.000000   0.000008   0.003139
    22  C    0.000000  -0.000000   0.000001   0.000064   0.000334  -0.002081
    23  F    0.000000  -0.000000  -0.000000   0.000000  -0.000015  -0.000572
    24  F    0.000000   0.000000  -0.000000  -0.000001  -0.000004  -0.000044
    25  F    0.000000   0.000000  -0.000000  -0.000000  -0.000001  -0.000216
    26  C   -0.000586   0.000057  -0.000076  -0.005155  -0.000180  -0.011429
    27  C   -0.005733   0.001080  -0.000458  -0.029102   0.029388  -0.002540
    28  H   -0.000016  -0.000000   0.000000  -0.000000   0.000005   0.000000
    29  H    0.000006   0.000000  -0.000000   0.000001  -0.000082   0.000001
    30  H   -0.000011   0.000000   0.000000   0.000001  -0.000204  -0.000001
    31  H    0.006433  -0.000010  -0.000000   0.000002   0.000001   0.000000
    32  H   -0.000000  -0.000000   0.000000  -0.000000   0.000000   0.000000
    33  H   -0.000000  -0.000000  -0.000000  -0.000000  -0.000000  -0.000000
    34  H    0.000000   0.000000  -0.000000   0.000000   0.000000  -0.000000
    35  H    0.000000  -0.000000   0.000000  -0.000000   0.000000   0.000000
    36  H   -0.000404  -0.000008   0.000000  -0.000001   0.000000  -0.000000
    37  H    0.599744  -0.005816  -0.000187   0.000016   0.000000   0.000000
    38  H   -0.005816   0.572419  -0.004900  -0.000176  -0.000000  -0.000000
    39  H   -0.000187  -0.004900   0.570201  -0.005498  -0.000000   0.000000
    40  H    0.000016  -0.000176  -0.005498   0.575345   0.000079   0.000002
    41  H    0.000000  -0.000000  -0.000000   0.000079   0.570717  -0.005639
    42  H    0.000000  -0.000000   0.000000   0.000002  -0.005639   0.559308
    43  H   -0.000000  -0.000000   0.000000  -0.000000   0.000002  -0.000046
    44  H    0.000000  -0.000000   0.000000   0.000001   0.000016  -0.000164
    45  H    0.000002  -0.000000   0.000000   0.000040  -0.000183   0.000017
              43         44         45
     1  C   -0.000136  -0.000314  -0.004465
     2  C    0.000244  -0.007575   0.029886
     3  C   -0.000704  -0.006095   0.022499
     4  C    0.000717   0.013007  -0.012892
     5  C   -0.000325   0.004659   0.011328
     6  C    0.000211  -0.000524  -0.004947
     7  C   -0.000045  -0.001074   0.038067
     8  C   -0.000015  -0.003084  -0.025185
     9  C   -0.000048  -0.005943   0.005473
    10  C    0.000024  -0.000010  -0.020681
    11  C    0.000001   0.000033  -0.004637
    12  C   -0.000006  -0.000119   0.010493
    13  C    0.000062   0.001456  -0.024264
    14  C    0.000776   0.001835   0.036835
    15  C   -0.005117   0.107804   0.011785
    16  C    0.021820   0.052698   0.015833
    17  C   -0.132878  -0.060218   0.009372
    18  C   -0.307208  -0.017823   0.084823
    19  C    0.474664  -0.049194   0.006858
    20  C   -0.085244  -0.009242   0.001672
    21  N   -0.004377   0.000241   0.000004
    22  C    0.008312   0.015622  -0.001681
    23  F    0.008455   0.000007   0.000001
    24  F   -0.004082  -0.000951  -0.000020
    25  F   -0.003228  -0.000076  -0.000001
    26  C    0.204689   0.224804  -0.058502
    27  C    0.091325   0.036077   0.168293
    28  H    0.000000   0.000000   0.000001
    29  H    0.000000   0.000000   0.000000
    30  H    0.000000  -0.000004   0.000008
    31  H    0.000000  -0.000000  -0.000017
    32  H    0.000000  -0.000010  -0.000012
    33  H    0.000000  -0.000014   0.000002
    34  H   -0.000000   0.000000   0.000001
    35  H    0.000000   0.000000  -0.000021
    36  H   -0.000000   0.000000  -0.000150
    37  H   -0.000000   0.000000   0.000002
    38  H   -0.000000  -0.000000  -0.000000
    39  H    0.000000   0.000000   0.000000
    40  H   -0.000000   0.000001   0.000040
    41  H    0.000002   0.000016  -0.000183
    42  H   -0.000046  -0.000164   0.000017
    43  H    0.526612   0.004059  -0.000012
    44  H    0.004059   0.584683  -0.005462
    45  H   -0.000012  -0.005462   0.572638
 Mulliken charges:
               1
     1  C   -0.525698
     2  C    0.273409
     3  C    0.700823
     4  C   -0.248814
     5  C   -0.281067
     6  C   -0.137915
     7  C   -0.284252
     8  C   -0.291258
     9  C   -0.226512
    10  C   -0.105780
    11  C   -0.289713
    12  C   -0.008053
    13  C   -0.279240
    14  C   -0.043565
    15  C   -0.069456
    16  C   -0.142644
    17  C   -0.370685
    18  C   -0.164705
    19  C    0.283712
    20  C   -0.093593
    21  N   -0.428902
    22  C    0.998634
    23  F   -0.282589
    24  F   -0.282793
    25  F   -0.287621
    26  C    0.303976
    27  C   -0.150459
    28  H    0.145718
    29  H    0.149091
    30  H    0.169689
    31  H    0.132289
    32  H    0.111171
    33  H    0.120102
    34  H    0.123325
    35  H    0.123948
    36  H    0.127591
    37  H    0.110559
    38  H    0.128152
    39  H    0.129303
    40  H    0.129251
    41  H    0.132046
    42  H    0.142929
    43  H    0.201500
    44  H    0.120894
    45  H    0.137202
 Sum of Mulliken charges =  -0.00000
 Mulliken charges with hydrogens summed into heavy atoms:
               1
     1  C   -0.061199
     2  C    0.405698
     3  C    0.700823
     4  C   -0.137643
     5  C   -0.160965
     6  C   -0.014590
     7  C   -0.160304
     8  C   -0.163668
     9  C   -0.226512
    10  C    0.004779
    11  C   -0.161562
    12  C    0.121250
    13  C   -0.149989
    14  C   -0.043565
    15  C   -0.069456
    16  C   -0.010598
    17  C   -0.227756
    18  C   -0.164705
    19  C    0.485212
    20  C   -0.093593
    21  N   -0.428902
    22  C    0.998634
    23  F   -0.282589
    24  F   -0.282793
    25  F   -0.287621
    26  C    0.424870
    27  C   -0.013257
 Electronic spatial extent (au):  <R**2>=          11092.7888
 Charge=             -0.0000 electrons
 Dipole moment (field-independent basis, Debye):
    X=             -4.1335    Y=              0.1210    Z=             -1.8922  Tot=              4.5476
 Quadrupole moment (field-independent basis, Debye-Ang):
   XX=           -172.5327   YY=           -148.1361   ZZ=           -164.4603
   XY=              5.6211   XZ=             -8.9613   YZ=             -4.6649
 Traceless Quadrupole moment (field-independent basis, Debye-Ang):
   XX=            -10.8230   YY=             13.5736   ZZ=             -2.7506
   XY=              5.6211   XZ=             -8.9613   YZ=             -4.6649
 Octapole moment (field-independent basis, Debye-Ang**2):
  XXX=            -61.0955  YYY=             -9.2493  ZZZ=            -48.6724  XYY=             35.0316
  XXY=            -32.1150  XXZ=            -62.3987  XZZ=            -21.9302  YZZ=             -3.8117
  YYZ=            -29.8962  XYZ=            -16.1006
 Hexadecapole moment (field-independent basis, Debye-Ang**3):
 XXXX=         -10134.6067 YYYY=          -3441.2935 ZZZZ=          -1563.1282 XXXY=            113.2766
 XXXZ=           -343.1042 YYYX=             60.5455 YYYZ=             16.3856 ZZZX=           -237.4409
 ZZZY=            -45.2621 XXYY=          -2201.0185 XXZZ=          -2060.1255 YYZZ=           -814.1836
 XXYZ=            -78.9999 YYXZ=             34.2261 ZZXY=            -93.1689
 N-N= 2.343830896055D+03 E-N=-7.579801558676D+03  KE= 1.230281680728D+03
 Unable to Open any file for archive entry.
 1\1\GINC-N2\SP\RB3LYP TD-FC\6-31+G(d,p)\C23H18F3N1\HPCMGAC13\06-Aug-20
 25\0\\# td=(50-50,nstates=3) b3lyp/6-31+g(d,p) geom=connectivity\\Titl
 e Card Required\\0,1\C,0,-2.241478,0.169489,2.527777\C,0,-3.065418,0.2
 36346,1.227328\C,0,-2.82629,1.495085,0.381612\C,0,-2.028546,2.560234,0
 .820936\C,0,-1.876148,3.715544,0.046022\C,0,-2.522089,3.830343,-1.1856
 4\C,0,-3.327402,2.778193,-1.634109\C,0,-3.476351,1.628181,-0.857804\C,
 0,-2.998916,-1.070302,0.424585\C,0,-4.200172,-1.777906,0.250071\C,0,-4
 .260424,-2.998604,-0.423422\C,0,-3.091019,-3.552476,-0.941265\C,0,-1.8
 85381,-2.870572,-0.777131\C,0,-1.814677,-1.635087,-0.109802\C,0,-0.452
 703,-1.016931,-0.004688\C,0,0.518691,-1.602526,0.824792\C,0,1.814367,-
 1.091943,0.892432\C,0,2.173028,0.01579,0.115763\C,0,3.590358,0.584109,
 0.145267\C,0,4.131223,0.685531,1.509522\N,0,4.533646,0.776729,2.593786
 \C,0,4.570219,-0.203689,-0.751222\F,0,4.726332,-1.480497,-0.348009\F,0
 ,4.124079,-0.22373,-2.025319\F,0,5.791534,0.376366,-0.758025\C,0,1.216
 494,0.600484,-0.72003\C,0,-0.080836,0.089972,-0.78086\H,0,-2.48281,1.0
 12449,3.183199\H,0,-2.482372,-0.750254,3.069096\H,0,-1.164699,0.178861
 ,2.342832\H,0,-4.113357,0.309721,1.548853\H,0,-1.508558,2.497464,1.770
 406\H,0,-1.249757,4.525188,0.410552\H,0,-2.404431,4.727087,-1.787115\H
 ,0,-3.841135,2.85302,-2.588639\H,0,-4.101194,0.817603,-1.222712\H,0,-5
 .114399,-1.359159,0.663718\H,0,-5.212072,-3.509981,-0.535665\H,0,-3.11
 1574,-4.502498,-1.466967\H,0,-0.969858,-3.293579,-1.181338\H,0,0.25146
 6,-2.462578,1.431674\H,0,2.540318,-1.55503,1.553857\H,0,3.578747,1.596
 544,-0.275255\H,0,1.48012,1.457711,-1.333648\H,0,-0.806646,0.555495,-1
 .437969\\Version=ES64L-G16RevC.02\State=1-A\HF=-1241.6369549\RMSD=6.14
 4e-09\PG=C01 [X(C23H18F3N1)]\\@
 The archive entry for this job was punched.


 IF GOD HAD MEANT MAN TO SEE THE SUN RISE, HE
 WOULD HAVE SCHEDULED IT FOR A LATER HOUR.
 Job cpu time:       0 days  3 hours 55 minutes 34.6 seconds.
 Elapsed time:       0 days  0 hours 15 minutes  4.5 seconds.
 File lengths (MBytes):  RWF=   1977 Int=      0 D2E=      0 Chk=     93 Scr=      2
 Normal termination of Gaussian 16 at Wed Aug  6 23:41:26 2025.
