 Entering Gaussian System, Link 0=g16
 Input=M1756e.gjf
 Output=M1756e.log
 Initial command:
 /hpc/softwares/Gaussian/g16/l1.exe "/hpc/home/hpcmgac13/pbs.12826.admin1.x8z/Gau-2028529.inp" -scrdir="/hpc/home/hpcmgac13/pbs.12826.admin1.x8z/"
 Default linda workers: n2
 Default is to use  16 SMP processors on each worker.
 Entering Link 1 = /hpc/softwares/Gaussian/g16/l1.exe PID=   2028530.
  
 Copyright (c) 1988-2021, Gaussian, Inc.  All Rights Reserved.
  
 This is part of the Gaussian(R) 16 program.  It is based on
 the Gaussian(R) 09 system (copyright 2009, Gaussian, Inc.),
 the Gaussian(R) 03 system (copyright 2003, Gaussian, Inc.),
 the Gaussian(R) 98 system (copyright 1998, Gaussian, Inc.),
 the Gaussian(R) 94 system (copyright 1995, Gaussian, Inc.),
 the Gaussian 92(TM) system (copyright 1992, Gaussian, Inc.),
 the Gaussian 90(TM) system (copyright 1990, Gaussian, Inc.),
 the Gaussian 88(TM) system (copyright 1988, Gaussian, Inc.),
 the Gaussian 86(TM) system (copyright 1986, Carnegie Mellon
 University), and the Gaussian 82(TM) system (copyright 1983,
 Carnegie Mellon University). Gaussian is a federally registered
 trademark of Gaussian, Inc.
  
 This software contains proprietary and confidential information,
 including trade secrets, belonging to Gaussian, Inc.
  
 This software is provided under written license and may be
 used, copied, transmitted, or stored only in accord with that
 written license.
  
 The following legend is applicable only to US Government
 contracts under FAR:
  
                    RESTRICTED RIGHTS LEGEND
  
 Use, reproduction and disclosure by the US Government is
 subject to restrictions as set forth in subparagraphs (a)
 and (c) of the Commercial Computer Software - Restricted
 Rights clause in FAR 52.227-19.
  
 Gaussian, Inc.
 340 Quinnipiac St., Bldg. 40, Wallingford CT 06492
  
  
 ---------------------------------------------------------------
 Warning -- This program may not be used in any manner that
 competes with the business of Gaussian, Inc. or will provide
 assistance to any competitor of Gaussian, Inc.  The licensee
 of this program is prohibited from giving any competitor of
 Gaussian, Inc. access to this program.  By using this program,
 the user acknowledges that Gaussian, Inc. is engaged in the
 business of creating and licensing software in the field of
 computational chemistry and represents and warrants to the
 licensee that it is not a competitor of Gaussian, Inc. and that
 it will not use this program in any manner prohibited above.
 ---------------------------------------------------------------
  

 Cite this work as:
 Gaussian 16, Revision C.02,
 M. J. Frisch, G. W. Trucks, H. B. Schlegel, G. E. Scuseria, 
 M. A. Robb, J. R. Cheeseman, G. Scalmani, V. Barone, 
 G. A. Petersson, H. Nakatsuji, X. Li, M. Caricato, A. V. Marenich, 
 J. Bloino, B. G. Janesko, R. Gomperts, B. Mennucci, H. P. Hratchian, 
 J. V. Ortiz, A. F. Izmaylov, J. L. Sonnenberg, D. Williams-Young, 
 F. Ding, F. Lipparini, F. Egidi, J. Goings, B. Peng, A. Petrone, 
 T. Henderson, D. Ranasinghe, V. G. Zakrzewski, J. Gao, N. Rega, 
 G. Zheng, W. Liang, M. Hada, M. Ehara, K. Toyota, R. Fukuda, 
 J. Hasegawa, M. Ishida, T. Nakajima, Y. Honda, O. Kitao, H. Nakai, 
 T. Vreven, K. Throssell, J. A. Montgomery, Jr., J. E. Peralta, 
 F. Ogliaro, M. J. Bearpark, J. J. Heyd, E. N. Brothers, K. N. Kudin, 
 V. N. Staroverov, T. A. Keith, R. Kobayashi, J. Normand, 
 K. Raghavachari, A. P. Rendell, J. C. Burant, S. S. Iyengar, 
 J. Tomasi, M. Cossi, J. M. Millam, M. Klene, C. Adamo, R. Cammi, 
 J. W. Ochterski, R. L. Martin, K. Morokuma, O. Farkas, 
 J. B. Foresman, and D. J. Fox, Gaussian, Inc., Wallingford CT, 2019.
 
 ******************************************
 Gaussian 16:  ES64L-G16RevC.02  7-Dec-2021
                 6-Aug-2025 
 ******************************************
 SetLPE:    new flags="-opt 'Tsnet.Node.lindarsharg: ssh'  -nodelist 'n2.head.cm.mguif.local' -env GAUSS_MDEF=4294967296 -env GAUSS_EXEDIR="/hpc/softwares/Gaussian/g16/bsd:/hpc/softwares/Gaussian/g16""
 Will use up to    1 processors via Linda.
 ----------------------------------------------------------
 # td=(50-50,nstates=3) b3lyp/6-31+g(d,p) geom=connectivity
 ----------------------------------------------------------
 1/38=1,57=2,172=1/1;
 2/12=2,17=6,18=5,40=1/2;
 3/5=1,6=6,7=111,11=9,25=1,30=1,74=-5/1,2,3,8;
 4//1;
 5/5=2,38=5/2;
 8/6=1,10=2,108=3/1;
 9/41=3,42=1,48=2,70=2/14;
 6/7=2,8=2,9=2,10=2/1;
 99/5=1,9=1/99;
 -------------------
 Title Card Required
 -------------------
 Symbolic Z-matrix:
 Charge =  0 Multiplicity = 1
 C                     4.51097   0.00157   0.20132 
 C                     3.34941   0.67962   0.18135 
 C                     3.31484   2.05422  -0.25317 
 N                     3.2552    3.15398  -0.62765 
 C                     2.04887   0.09483   0.56558 
 C                     1.37178  -0.97441   0.11413 
 C                     1.82135  -1.98464  -0.9156 
 C                     1.9101   -3.40095  -0.30649 
 C                     0.94994  -1.99016  -2.18951 
 C                     0.08729  -1.05073   0.93964 
 C                    -1.23675  -1.25187   0.27741 
 C                    -1.91947  -2.49961   0.21091 
 O                    -1.63329  -3.63429   0.54141 
 O                    -3.16078  -2.16764  -0.38974 
 N                    -3.23568  -0.83286  -0.66206 
 N                    -2.0897   -0.33657  -0.24963 
 C                    -1.92329   1.092    -0.37982 
 C                    -2.89635   1.92558   0.17294 
 C                    -2.74307   3.3059    0.04595 
 C                    -1.6311    3.83457  -0.61657 
 C                    -0.66898   2.9839   -1.16643 
 C                    -0.8151    1.59965  -1.05744 
 C                     0.17763   0.2047    1.8237 
 O                    -0.60032   0.61763   2.63807 
 O                     1.37666   0.82398   1.55977 
 H                     4.5471   -1.02422   0.55072 
 H                     5.43657   0.46311  -0.12497 
 H                     2.83066  -1.68729  -1.22246 
 H                     2.32047  -4.09803  -1.04455 
 H                     2.56393  -3.41775   0.57254 
 H                     0.92404  -3.77233  -0.00856 
 H                     1.38325  -2.67538  -2.92544 
 H                     0.90076  -0.99759  -2.64938 
 H                    -0.06907  -2.33013  -1.98696 
 H                     0.17288  -1.90963   1.62505 
 H                    -3.7403    1.49609   0.69994 
 H                    -3.48718   3.9674    0.47776 
 H                    -1.51081   4.91014  -0.70003 
 H                     0.19801   3.39209  -1.67516 
 H                    -0.0856    0.9292   -1.4966 
 
                          Input orientation:                          
 ---------------------------------------------------------------------
 Center     Atomic      Atomic             Coordinates (Angstroms)
 Number     Number       Type             X           Y           Z
 ---------------------------------------------------------------------
      1          6           0        4.510971    0.001570    0.201317
      2          6           0        3.349411    0.679616    0.181353
      3          6           0        3.314843    2.054219   -0.253171
      4          7           0        3.255203    3.153983   -0.627649
      5          6           0        2.048866    0.094834    0.565578
      6          6           0        1.371783   -0.974406    0.114133
      7          6           0        1.821353   -1.984644   -0.915602
      8          6           0        1.910099   -3.400952   -0.306492
      9          6           0        0.949942   -1.990163   -2.189511
     10          6           0        0.087291   -1.050735    0.939644
     11          6           0       -1.236752   -1.251870    0.277412
     12          6           0       -1.919468   -2.499608    0.210909
     13          8           0       -1.633292   -3.634291    0.541409
     14          8           0       -3.160783   -2.167637   -0.389741
     15          7           0       -3.235680   -0.832860   -0.662059
     16          7           0       -2.089705   -0.336570   -0.249627
     17          6           0       -1.923294    1.091998   -0.379816
     18          6           0       -2.896348    1.925581    0.172935
     19          6           0       -2.743074    3.305904    0.045946
     20          6           0       -1.631101    3.834572   -0.616565
     21          6           0       -0.668982    2.983896   -1.166428
     22          6           0       -0.815098    1.599651   -1.057437
     23          6           0        0.177626    0.204702    1.823696
     24          8           0       -0.600317    0.617628    2.638074
     25          8           0        1.376661    0.823982    1.559766
     26          1           0        4.547095   -1.024225    0.550719
     27          1           0        5.436566    0.463110   -0.124973
     28          1           0        2.830657   -1.687291   -1.222458
     29          1           0        2.320469   -4.098027   -1.044550
     30          1           0        2.563932   -3.417747    0.572541
     31          1           0        0.924037   -3.772326   -0.008563
     32          1           0        1.383250   -2.675380   -2.925443
     33          1           0        0.900757   -0.997589   -2.649384
     34          1           0       -0.069071   -2.330134   -1.986960
     35          1           0        0.172881   -1.909628    1.625051
     36          1           0       -3.740296    1.496093    0.699935
     37          1           0       -3.487177    3.967396    0.477762
     38          1           0       -1.510808    4.910135   -0.700027
     39          1           0        0.198014    3.392094   -1.675159
     40          1           0       -0.085595    0.929200   -1.496599
 ---------------------------------------------------------------------
                    Distance matrix (angstroms):
                    1          2          3          4          5
     1  C    0.000000
     2  C    1.345127   0.000000
     3  C    2.418812   1.442061   0.000000
     4  N    3.493114   2.604967   1.163302   0.000000
     5  C    2.490652   1.476826   2.472294   3.498204   0.000000
     6  C    3.288561   2.579015   3.617038   4.597946   1.343696
     7  C    3.525138   3.261373   4.356804   5.342689   2.563179
     8  C    4.312721   4.354383   5.633386   6.699225   3.605590
     9  C    4.729058   4.301880   5.069437   5.849434   3.625653
    10  C    4.606671   3.769688   4.634721   5.492880   2.302179
    11  C    5.883300   4.977224   5.650554   6.356755   3.562574
    12  C    6.899748   6.153814   6.953468   7.709960   4.754429
    13  O    7.147525   6.600512   7.581197   8.446582   5.240729
    14  O    7.994412   7.128508   7.731523   8.339132   5.759501
    15  N    7.839151   6.808990   7.170200   7.617589   5.504011
    16  N    6.624697   5.549987   5.909740   6.394912   4.240099
    17  C    6.551833   5.318495   5.327287   5.579430   4.203113
    18  C    7.653169   6.368831   6.227119   6.323882   5.287811
    19  C    7.972699   6.635819   6.193105   6.037892   5.791690
    20  C    7.286006   5.949447   5.269163   4.933487   5.378221
    21  C    6.131632   4.824283   4.191563   3.964649   4.328189
    22  C    5.701345   4.441194   4.232008   4.378129   3.619522
    23  C    4.631550   3.603201   4.192400   4.917197   2.257536
    24  O    5.695839   4.651846   5.074600   5.653590   3.403928
    25  O    3.513637   2.410935   2.925196   3.707103   1.404253
    26  H    1.084270   2.115172   3.411964   4.529344   2.737455
    27  H    1.084532   2.120596   2.655140   3.500261   3.476924
    28  H    2.775399   2.800364   3.895234   4.896118   2.642771
    29  H    4.812191   5.038594   6.282133   7.323878   4.499596
    30  H    3.952277   4.190273   5.584629   6.716096   3.550150
    31  H    5.210800   5.073292   6.302731   7.334259   4.068145
    32  H    5.169655   4.977346   5.765518   6.539537   4.506036
    33  H    4.707277   4.101463   4.569812   5.183279   3.584344
    34  H    5.585892   5.044422   5.803400   6.555461   4.108720
    35  H    4.949618   4.344973   5.395528   6.341571   2.942732
    36  H    8.400335   7.155383   7.141071   7.310820   5.957850
    37  H    8.931661   7.591857   7.103660   6.880644   6.756643
    38  H    7.821014   6.503526   5.625197   5.079780   6.120470
    39  H    5.798139   4.553622   3.677850   3.240429   4.395279
    40  H    4.987167   3.831068   3.791406   4.106783   3.082964
                    6          7          8          9         10
     6  C    0.000000
     7  C    1.510976   0.000000
     8  C    2.520880   1.544286   0.000000
     9  C    2.552741   1.543448   2.541257   0.000000
    10  C    1.528795   2.705752   3.224749   3.379098   0.000000
    11  C    2.628327   3.363368   3.855148   3.378227   1.494020
    12  C    3.628766   3.940553   3.968086   3.775588   2.580188
    13  O    4.035843   4.096192   3.650891   4.102948   3.129498
    14  O    4.714005   5.013152   5.219372   4.490961   3.683031
    15  N    4.674529   5.192733   5.761993   4.603465   3.695275
    16  N    3.538510   4.296050   5.039058   3.966985   2.581416
    17  C    3.920656   4.875979   5.906511   4.585869   3.220983
    18  C    5.160458   6.223462   7.190531   5.975630   4.283503
    19  C    5.937824   7.053259   8.170566   6.832566   5.271619
    20  C    5.716424   6.772897   8.061579   6.562277   5.407484
    21  C    4.633866   5.563369   6.939556   5.329998   4.613647
    22  C    3.575024   4.451759   5.744271   4.157370   3.439067
    23  C    2.395603   3.872832   4.532097   4.638937   1.538126
    24  O    3.576874   5.026422   5.578677   5.701706   2.478085
    25  O    2.307396   3.770090   4.649467   4.707290   2.358302
    26  H    3.205573   3.240705   3.652039   4.624003   4.476809
    27  H    4.318111   4.436931   5.234491   5.514586   5.660378
    28  H    2.103092   1.096026   2.150129   2.136355   3.550485
    29  H    3.464038   2.175346   1.095010   2.762675   4.267329
    30  H    2.757041   2.195399   1.095664   3.503126   3.445470
    31  H    2.836175   2.196293   1.094988   2.816613   3.001049
    32  H    3.483169   2.169910   2.768200   1.094931   4.388380
    33  H    2.803467   2.197220   3.504863   1.095037   3.680445
    34  H    2.885940   2.200199   2.808512   1.093158   3.197862
    35  H    2.143567   3.029522   2.995469   3.893738   1.102182
    36  H    5.707879   6.757028   7.544595   6.519295   4.603718
    37  H    6.939966   8.096217   9.167235   7.892711   6.178333
    38  H    6.603030   7.660793   8.996202   7.475825   6.385485
    39  H    4.862676   5.667580   7.137924   5.458813   5.156373
    40  H    2.888274   3.530509   4.914200   3.174137   3.144092
                   11         12         13         14         15
    11  C    0.000000
    12  C    1.423859   0.000000
    13  O    2.429582   1.215990   0.000000
    14  O    2.232850   1.418396   2.313297   0.000000
    15  N    2.248085   2.296200   3.444416   1.364330   0.000000
    16  N    1.357598   2.218064   3.421844   2.125946   1.315166
    17  C    2.529230   3.639863   4.823957   3.486646   2.346720
    18  C    3.586275   4.531891   5.713428   4.140165   2.901958
    19  C    4.805818   5.865962   7.045808   5.506719   4.227682
    20  C    5.179440   6.394506   7.558097   6.198217   4.935754
    21  C    4.510959   5.790474   6.902681   5.774998   4.627089
    22  C    3.176600   4.430831   5.533525   4.487819   3.454367
    23  C    2.552070   3.783144   4.434135   4.655349   4.348123
    24  O    3.077791   4.165147   4.851995   4.845756   4.465415
    25  O    3.575405   4.871358   5.474766   5.773973   5.381015
    26  H    5.794774   6.641435   6.708928   7.848773   7.879025
    27  H    6.901901   7.937364   8.198515   8.994740   8.784979
    28  H    4.356950   5.027732   5.179660   6.068072   6.151792
    29  H    4.743629   4.701934   4.285154   5.848017   6.455882
    30  H    4.384441   4.590712   4.202922   5.938108   6.468491
    31  H    3.332190   3.123059   2.619438   4.405233   5.135247
    32  H    4.375965   4.558020   4.694475   5.228367   5.463726
    33  H    3.633144   4.288474   4.853325   4.792818   4.592026
    34  H    2.766498   2.878076   3.246577   3.483704   3.744944
    35  H    2.058116   2.593414   2.722316   3.903751   4.243653
    36  H    3.741331   4.418166   5.548463   3.866025   2.744756
    37  H    5.687292   6.659659   7.824742   6.204653   4.940132
    38  H    6.245062   7.476704   8.635009   7.274170   5.996550
    39  H    5.238081   6.538588   7.591900   6.621512   5.537767
    40  H    3.037984   4.246810   5.232045   4.502479   3.704639
                   16         17         18         19         20
    16  N    0.000000
    17  C    1.444108   0.000000
    18  C    2.438557   1.395431   0.000000
    19  C    3.712394   2.398894   1.394601   0.000000
    20  C    4.212290   2.768238   2.422479   1.398175   0.000000
    21  C    3.726187   2.402360   2.806258   2.423922   1.397023
    22  C    2.454818   1.394625   2.439600   2.801044   2.419732
    23  C    3.119685   3.171218   3.890469   4.616095   4.733109
    24  O    3.386383   3.329107   3.613781   4.305504   4.690834
    25  O    4.078784   3.837123   4.625519   5.042202   4.779822
    26  H    6.720159   6.870970   8.015542   8.494197   7.946104
    27  H    7.569662   7.391075   8.465520   8.661247   7.846039
    28  H    5.194305   5.570866   6.913650   7.589949   7.124982
    29  H    5.850649   6.737044   8.061098   9.035864   8.872666
    30  H    5.641449   6.432727   7.650196   8.581905   8.462175
    31  H    4.576590   5.648608   6.862538   7.971952   8.047564
    32  H    4.969048   5.621974   7.005979   7.850571   7.536359
    33  H    3.890841   4.182413   5.561332   6.249989   5.821721
    34  H    3.328000   4.210943   5.547049   6.561092   6.505499
    35  H    3.332900   4.174111   5.122269   6.180464   6.424564
    36  H    2.642872   2.151895   1.083715   2.167388   3.413262
    37  H    4.583246   3.383649   2.147326   1.085231   2.158752
    38  H    5.297725   3.853680   3.404313   2.156041   1.085482
    39  H    4.600949   3.386488   3.891168   3.408758   2.159183
    40  H    2.678352   2.156582   3.417668   3.884631   3.406499
                   21         22         23         24         25
    21  C    0.000000
    22  C    1.396196   0.000000
    23  C    4.169113   3.351464   0.000000
    24  O    4.480868   3.829791   1.199548   0.000000
    25  O    4.035098   3.500746   1.375082   2.261365   0.000000
    26  H    6.798609   6.182556   4.714127   5.792114   3.806008
    27  H    6.687055   6.422189   5.614315   6.640953   4.410374
    28  H    5.837003   4.911492   4.460635   5.655788   4.020120
    29  H    7.687997   6.503498   5.597507   6.658086   5.647956
    30  H    7.379484   6.264899   4.514641   5.528395   4.514033
    31  H    7.037393   5.743071   4.441965   5.347900   4.877558
    32  H    6.271618   5.157332   5.683548   6.762482   5.688820
    33  H    4.529400   3.496299   4.687949   5.728818   4.611025
    34  H    5.410368   4.106553   4.583378   5.510214   4.961638
    35  H    5.696285   4.526244   2.123646   2.830384   2.987637
    36  H    3.889709   3.414069   4.275587   3.793093   5.232045
    37  H    3.407764   3.886265   5.422194   4.921570   5.891409
    38  H    2.153276   3.401626   5.600097   5.513395   5.490063
    39  H    1.084949   2.149611   4.733061   5.190277   4.295247
    40  H    2.161279   1.083763   3.408598   4.178222   3.389783
                   26         27         28         29         30
    26  H    0.000000
    27  H    1.860076   0.000000
    28  H    2.555381   3.552388   0.000000
    29  H    4.117160   5.599969   2.470545   0.000000
    30  H    3.108434   4.878484   2.507517   1.771169   0.000000
    31  H    4.581638   6.189942   3.075079   1.769003   1.775574
    32  H    4.981960   5.841414   2.443658   2.537728   3.765768
    33  H    4.851510   5.392574   2.497263   3.768792   4.359371
    34  H    5.427173   6.448352   3.066942   3.118250   3.829707
    35  H    4.590411   6.033146   3.901476   4.065464   3.016509
    36  H    8.663436   9.271587   7.550295   8.430319   7.994082
    37  H    9.458918   9.606066   8.647616  10.054712   9.548049
    38  H    8.572000   8.268780   7.915004   9.795119   9.358235
    39  H    6.585811   6.198746   5.738981   7.810531   7.551401
    40  H    5.428554   5.709016   3.927557   5.591646   5.495205
                   31         32         33         34         35
    31  H    0.000000
    32  H    3.149977   0.000000
    33  H    3.830619   1.767481   0.000000
    34  H    2.642014   1.763287   1.776246   0.000000
    35  H    2.588933   4.770573   4.430848   3.644446   0.000000
    36  H    7.072073   7.536264   6.243057   5.944519   5.269509
    37  H    8.921806   8.912314   7.326942   7.577413   7.017956
    38  H    9.043878   8.418318   6.672094   7.493751   7.399322
    39  H    7.391452   6.307316   4.551074   5.736937   6.245020
    40  H    5.033682   4.146335   2.452411   3.296056   4.227346
                   36         37         38         39         40
    36  H    0.000000
    37  H    2.494147   0.000000
    38  H    4.311171   2.486358   0.000000
    39  H    4.974553   4.306585   2.485036   0.000000
    40  H    4.301508   4.969859   4.302744   2.485591   0.000000
 Stoichiometry    C18H15N3O4
 Framework group  C1[X(C18H15N3O4)]
 Deg. of freedom   114
 Full point group                 C1      NOp   1
 Largest Abelian subgroup         C1      NOp   1
 Largest concise Abelian subgroup C1      NOp   1
                         Standard orientation:                         
 ---------------------------------------------------------------------
 Center     Atomic      Atomic             Coordinates (Angstroms)
 Number     Number       Type             X           Y           Z
 ---------------------------------------------------------------------
      1          6           0        4.510971    0.001570    0.201317
      2          6           0        3.349411    0.679616    0.181353
      3          6           0        3.314843    2.054219   -0.253171
      4          7           0        3.255203    3.153983   -0.627649
      5          6           0        2.048866    0.094834    0.565578
      6          6           0        1.371783   -0.974406    0.114133
      7          6           0        1.821353   -1.984644   -0.915602
      8          6           0        1.910099   -3.400952   -0.306492
      9          6           0        0.949942   -1.990163   -2.189511
     10          6           0        0.087291   -1.050735    0.939644
     11          6           0       -1.236752   -1.251870    0.277412
     12          6           0       -1.919468   -2.499608    0.210909
     13          8           0       -1.633292   -3.634291    0.541409
     14          8           0       -3.160783   -2.167637   -0.389741
     15          7           0       -3.235680   -0.832860   -0.662059
     16          7           0       -2.089705   -0.336570   -0.249627
     17          6           0       -1.923294    1.091998   -0.379816
     18          6           0       -2.896348    1.925581    0.172935
     19          6           0       -2.743074    3.305904    0.045946
     20          6           0       -1.631101    3.834572   -0.616565
     21          6           0       -0.668982    2.983896   -1.166428
     22          6           0       -0.815098    1.599651   -1.057437
     23          6           0        0.177626    0.204702    1.823696
     24          8           0       -0.600317    0.617628    2.638074
     25          8           0        1.376661    0.823982    1.559766
     26          1           0        4.547095   -1.024225    0.550719
     27          1           0        5.436566    0.463111   -0.124973
     28          1           0        2.830657   -1.687291   -1.222458
     29          1           0        2.320469   -4.098027   -1.044550
     30          1           0        2.563932   -3.417747    0.572541
     31          1           0        0.924037   -3.772326   -0.008563
     32          1           0        1.383250   -2.675380   -2.925443
     33          1           0        0.900757   -0.997589   -2.649384
     34          1           0       -0.069071   -2.330134   -1.986960
     35          1           0        0.172881   -1.909628    1.625051
     36          1           0       -3.740296    1.496093    0.699935
     37          1           0       -3.487177    3.967396    0.477762
     38          1           0       -1.510808    4.910135   -0.700027
     39          1           0        0.198014    3.392094   -1.675159
     40          1           0       -0.085595    0.929200   -1.496599
 ---------------------------------------------------------------------
 Rotational constants (GHZ):           0.2752765           0.2409500           0.1576729
 Standard basis: 6-31+G(d,p) (6D, 7F)
 There are   550 symmetry adapted cartesian basis functions of A   symmetry.
 There are   550 symmetry adapted basis functions of A   symmetry.
   550 basis functions,   905 primitive gaussians,   550 cartesian basis functions
    88 alpha electrons       88 beta electrons
       nuclear repulsion energy      2214.8483232962 Hartrees.
 NAtoms=   40 NActive=   40 NUniq=   40 SFac= 1.00D+00 NAtFMM=   60 NAOKFM=F Big=F
 Integral buffers will be    131072 words long.
 Regular integral format.
 Two-electron integral symmetry is turned on.
 One-electron integrals computed using PRISM.
 NBasis=   550 RedAO= T EigKep=  1.16D-06  NBF=   550
 NBsUse=   549 1.00D-06 EigRej=  3.42D-07 NBFU=   549
 ExpMin= 4.38D-02 ExpMax= 5.48D+03 ExpMxC= 8.25D+02 IAcc=3 IRadAn=         5 AccDes= 0.00D+00
 Harris functional with IExCor=  402 and IRadAn=       5 diagonalized for initial guess.
 HarFok:  IExCor=  402 AccDes= 0.00D+00 IRadAn=         5 IDoV= 1 UseB2=F ITyADJ=14
 ICtDFT=  3500011 ScaDFX=  1.000000  1.000000  1.000000  1.000000
 FoFCou: FMM=F IPFlag=           0 FMFlag=      100000 FMFlg1=           0
         NFxFlg=           0 DoJE=T BraDBF=F KetDBF=T FulRan=T
         wScrn=  0.000000 ICntrl=       500 IOpCl=  0 I1Cent=   200000004 NGrid=           0
         NMat0=    1 NMatS0=      1 NMatT0=    0 NMatD0=    1 NMtDS0=    0 NMtDT0=    0
 Petite list used in FoFCou.
 Requested convergence on RMS density matrix=1.00D-08 within 128 cycles.
 Requested convergence on MAX density matrix=1.00D-06.
 Requested convergence on             energy=1.00D-06.
 No special actions if energy rises.
 SCF Done:  E(RB3LYP) =  -1160.03251973     A.U. after   18 cycles
            NFock= 18  Conv=0.75D-08     -V/T= 2.0093
 DoSCS=F DFT=T ScalE2(SS,OS)=  1.000000  1.000000
 ExpMin= 4.38D-02 ExpMax= 5.48D+03 ExpMxC= 8.25D+02 IAcc=3 IRadAn=         5 AccDes= 0.00D+00
 HarFok:  IExCor=  205 AccDes= 0.00D+00 IRadAn=         5 IDoV=-2 UseB2=F ITyADJ=14
 ICtDFT= 12500011 ScaDFX=  1.000000  1.000000  1.000000  1.000000
 GSVD:  LWork=        -825 too small for GESVD, short by        3500 words or        3500 for optimal perf.
 Range of M.O.s used for correlation:    26   549
 NBasis=   550 NAE=    88 NBE=    88 NFC=    25 NFV=     0
 NROrb=    524 NOA=    63 NOB=    63 NVA=   461 NVB=   461

 **** Warning!!: The largest alpha MO coefficient is  0.14783419D+03

 Orbital symmetries:
       Occupied  (A) (A) (A) (A) (A) (A) (A) (A) (A) (A) (A) (A)
                 (A) (A) (A) (A) (A) (A) (A) (A) (A) (A) (A) (A)
                 (A) (A) (A) (A) (A) (A) (A) (A) (A) (A) (A) (A)
                 (A) (A) (A) (A) (A) (A) (A) (A) (A) (A) (A) (A)
                 (A) (A) (A) (A) (A) (A) (A) (A) (A) (A) (A) (A)
                 (A) (A) (A) (A) (A) (A) (A) (A) (A) (A) (A) (A)
                 (A) (A) (A) (A) (A) (A) (A) (A) (A) (A) (A) (A)
                 (A) (A) (A) (A)
       Virtual   (A) (A) (A) (A) (A) (A) (A) (A) (A) (A) (A) (A)
                 (A) (A) (A) (A) (A) (A) (A) (A) (A) (A) (A) (A)
                 (A) (A) (A) (A) (A) (A) (A) (A) (A) (A) (A) (A)
                 (A) (A) (A) (A) (A) (A) (A) (A) (A) (A) (A) (A)
                 (A) (A) (A) (A) (A) (A) (A) (A) (A) (A) (A) (A)
                 (A) (A) (A) (A) (A) (A) (A) (A) (A) (A) (A) (A)
                 (A) (A) (A) (A) (A) (A) (A) (A) (A) (A) (A) (A)
                 (A) (A) (A) (A) (A) (A) (A) (A) (A) (A) (A) (A)
                 (A) (A) (A) (A) (A) (A) (A) (A) (A) (A) (A) (A)
                 (A) (A) (A) (A) (A) (A) (A) (A) (A) (A) (A) (A)
                 (A) (A) (A) (A) (A) (A) (A) (A) (A) (A) (A) (A)
                 (A) (A) (A) (A) (A) (A) (A) (A) (A) (A) (A) (A)
                 (A) (A) (A) (A) (A) (A) (A) (A) (A) (A) (A) (A)
                 (A) (A) (A) (A) (A) (A) (A) (A) (A) (A) (A) (A)
                 (A) (A) (A) (A) (A) (A) (A) (A) (A) (A) (A) (A)
                 (A) (A) (A) (A) (A) (A) (A) (A) (A) (A) (A) (A)
                 (A) (A) (A) (A) (A) (A) (A) (A) (A) (A) (A) (A)
                 (A) (A) (A) (A) (A) (A) (A) (A) (A) (A) (A) (A)
                 (A) (A) (A) (A) (A) (A) (A) (A) (A) (A) (A) (A)
                 (A) (A) (A) (A) (A) (A) (A) (A) (A) (A) (A) (A)
                 (A) (A) (A) (A) (A) (A) (A) (A) (A) (A) (A) (A)
                 (A) (A) (A) (A) (A) (A) (A) (A) (A) (A) (A) (A)
                 (A) (A) (A) (A) (A) (A) (A) (A) (A) (A) (A) (A)
                 (A) (A) (A) (A) (A) (A) (A) (A) (A) (A) (A) (A)
                 (A) (A) (A) (A) (A) (A) (A) (A) (A) (A) (A) (A)
                 (A) (A) (A) (A) (A) (A) (A) (A) (A) (A) (A) (A)
                 (A) (A) (A) (A) (A) (A) (A) (A) (A) (A) (A) (A)
                 (A) (A) (A) (A) (A) (A) (A) (A) (A) (A) (A) (A)
                 (A) (A) (A) (A) (A) (A) (A) (A) (A) (A) (A) (A)
                 (A) (A) (A) (A) (A) (A) (A) (A) (A) (A) (A) (A)
                 (A) (A) (A) (A) (A) (A) (A) (A) (A) (A) (A) (A)
                 (A) (A) (A) (A) (A) (A) (A) (A) (A) (A) (A) (A)
                 (A) (A) (A) (A) (A) (A) (A) (A) (A) (A) (A) (A)
                 (A) (A) (A) (A) (A) (A) (A) (A) (A) (A) (A) (A)
                 (A) (A) (A) (A) (A) (A) (A) (A) (A) (A) (A) (A)
                 (A) (A) (A) (A) (A) (A) (A) (A) (A) (A) (A) (A)
                 (A) (A) (A) (A) (A) (A) (A) (A) (A) (A) (A) (A)
                 (A) (A) (A) (A) (A) (A) (A) (A) (A) (A) (A) (A)
                 (A) (A) (A) (A) (A)
    24 initial guesses have been made.
 Convergence on wavefunction:    0.001000000000000
 Iteration     1 Dimension    24 NMult     0 NNew     24
 CISAX will form    24 AO SS matrices at one time.
 New state      1 was old state      4
 New state      3 was old state      1
 New state      4 was old state      6
 New state      5 was old state      8
 New state      6 was old state      7
 New state      7 was old state     10
 New state      8 was old state      9
 New state      9 was old state     20
 New state     10 was old state     17
 New state     11 was old state     22
 New state     12 was old state     16
 Vector   5 SDiff=2.82D+00 TDiff=2.82D+01 assumed to be singlet.
 Vector  11 SDiff=2.24D+00 TDiff=2.15D+01 assumed to be singlet.
 Iteration     2 Dimension    36 NMult    24 NNew     12
 New state      2 was old state      4
 New state      3 was old state      2
 New state      4 was old state      3
 New state      5 was old state     10
 Iteration     3 Dimension    48 NMult    36 NNew     12
 Iteration     4 Dimension    60 NMult    48 NNew     12
 Iteration     5 Dimension    70 NMult    60 NNew     10
 Iteration     6 Dimension    78 NMult    70 NNew      8
 Iteration     7 Dimension    86 NMult    78 NNew      8
 Iteration     8 Dimension    90 NMult    86 NNew      4
 ***********************************************************************
 Excited states from <AA,BB:AA,BB> singles matrix:
 ***********************************************************************
 
 Ground to excited state transition densities written to RWF  633
 Ground to excited state transition electric dipole moments (Au):
       state          X           Y           Z        Dip. S.      Osc.
         1        -0.0000      0.0000      0.0000      0.0000      0.0000
         2        -0.0000     -0.0000     -0.0000      0.0000      0.0000
         3         0.0000      0.0000      0.0000      0.0000      0.0000
         4        -0.0286      0.0369     -0.0304      0.0031      0.0003
         5         0.9583     -0.1821      0.3493      1.0735      0.1040
         6         0.6274      0.3084      0.0413      0.4905      0.0492
 Ground to excited state transition velocity dipole moments (Au):
       state          X           Y           Z        Dip. S.      Osc.
         1        -0.0000     -0.0000     -0.0000      0.0000      0.0000
         2         0.0000     -0.0000      0.0000      0.0000      0.0000
         3        -0.0000      0.0000     -0.0000      0.0000      0.0000
         4         0.0051     -0.0041      0.0043      0.0001      0.0003
         5        -0.1393      0.0259     -0.0492      0.0225      0.1031
         6        -0.0909     -0.0489     -0.0079      0.0107      0.0475
 Ground to excited state transition magnetic dipole moments (Au):
       state          X           Y           Z
         1         0.0000     -0.0000     -0.0000
         2         0.0000     -0.0000      0.0000
         3         0.0000     -0.0000     -0.0000
         4        -0.0334     -0.0110      0.0235
         5        -0.0214     -0.1899     -0.2785
         6         0.0358      0.0006     -0.0821
 Ground to excited state transition velocity quadrupole moments (Au):
       state          XX          YY          ZZ          XY          XZ          YZ
         1         0.0000      0.0000     -0.0000      0.0000      0.0000      0.0000
         2        -0.0000     -0.0000      0.0000     -0.0000      0.0000      0.0000
         3        -0.0000      0.0000      0.0000      0.0000     -0.0000      0.0000
         4        -0.0496      0.0055      0.0107     -0.0114     -0.0240      0.0062
         5         0.4612     -0.2115     -0.0615      0.0281      0.2498      0.0790
         6        -1.0950      0.3197      0.0676     -0.1779     -0.1014      0.0085
 <0|del|b> * <b|rxdel|0> + <0|del|b> * <b|delr+rdel|0>
 Rotatory Strengths (R) in cgs (10**-40 erg-esu-cm/Gauss)
       state          XX          YY          ZZ    R(velocity)    E-M Angle
         1        -0.0000      0.0000     -0.0000     -0.0000       90.00
         2         0.0000      0.0000     -0.0000      0.0000       90.00
         3        -0.0000     -0.0000     -0.0000     -0.0000       90.00
         4        -0.0026      0.0369     -0.1575     -0.0411       90.00
         5         2.2311     17.1551     37.8038     19.0633       76.58
         6        -6.8955    -11.2329      5.7438     -4.1282      106.50
 1/2[<0|r|b>*<b|rxdel|0> + (<0|rxdel|b>*<b|r|0>)*]
 Rotatory Strengths (R) in cgs (10**-40 erg-esu-cm/Gauss)
       state          XX          YY          ZZ     R(length)
         1         0.0000      0.0000      0.0000      0.0000
         2         0.0000     -0.0000      0.0000      0.0000
         3        -0.0000      0.0000      0.0000     -0.0000
         4        -0.6757      0.2866      0.5059      0.0390
         5        14.5050    -24.4535     68.7946     19.6154
         6       -15.8836     -0.1215      2.4010     -4.5347
  1/2[<0|del|b>*<b|r|0> + (<0|r|b>*<b|del|0>)*] (Au)
       state          X           Y           Z        Dip. S.   Osc.(frdel)
         1         0.0000     -0.0000     -0.0000     -0.0000     -0.0000
         2        -0.0000      0.0000     -0.0000      0.0000      0.0000
         3        -0.0000      0.0000     -0.0000      0.0000      0.0000
         4        -0.0001     -0.0002     -0.0001      0.0004      0.0003
         5        -0.1335     -0.0047     -0.0172      0.1554      0.1036
         6        -0.0571     -0.0151     -0.0003      0.0725      0.0483

 Excitation energies and oscillator strengths:
 
 Excited State   1:      Triplet-A      1.8833 eV  658.33 nm  f=0.0000  <S**2>=2.000
      88 -> 89        -0.14093
      88 -> 90         0.68264
      88 -> 92        -0.10433
      88 -> 93         0.13352
      88 <- 90         0.16158
 This state for optimization and/or second-order correction.
 Total Energy, E(TD-HF/TD-DFT) =  -1159.96330950    
 Copying the excited state density for this state as the 1-particle RhoCI density.
 
 Excited State   2:      Triplet-A      2.9224 eV  424.26 nm  f=0.0000  <S**2>=2.000
      82 -> 89         0.30441
      83 -> 89         0.17126
      87 -> 89         0.56405
 
 Excited State   3:      Triplet-A      3.4801 eV  356.27 nm  f=0.0000  <S**2>=2.000
      82 -> 89        -0.10242
      88 -> 89         0.67155
      88 -> 90         0.14123
 
 Excited State   4:      Singlet-A      3.5006 eV  354.18 nm  f=0.0003  <S**2>=0.000
      88 -> 89         0.69643
 
 Excited State   5:      Singlet-A      3.9549 eV  313.50 nm  f=0.1040  <S**2>=0.000
      87 -> 89         0.11701
      88 -> 90         0.66329
      88 -> 93        -0.11599
 
 Excited State   6:      Singlet-A      4.0944 eV  302.81 nm  f=0.0492  <S**2>=0.000
      87 -> 89         0.67913
      88 -> 90        -0.10660
 SavETr:  write IOETrn=   770 NScale= 10 NData=  16 NLR=1 NState=    6 LETran=     118.

 **********************************************************************

            Population analysis using the SCF Density.

 **********************************************************************

 Orbital symmetries:
       Occupied  (A) (A) (A) (A) (A) (A) (A) (A) (A) (A) (A) (A)
                 (A) (A) (A) (A) (A) (A) (A) (A) (A) (A) (A) (A)
                 (A) (A) (A) (A) (A) (A) (A) (A) (A) (A) (A) (A)
                 (A) (A) (A) (A) (A) (A) (A) (A) (A) (A) (A) (A)
                 (A) (A) (A) (A) (A) (A) (A) (A) (A) (A) (A) (A)
                 (A) (A) (A) (A) (A) (A) (A) (A) (A) (A) (A) (A)
                 (A) (A) (A) (A) (A) (A) (A) (A) (A) (A) (A) (A)
                 (A) (A) (A) (A)
       Virtual   (A) (A) (A) (A) (A) (A) (A) (A) (A) (A) (A) (A)
                 (A) (A) (A) (A) (A) (A) (A) (A) (A) (A) (A) (A)
                 (A) (A) (A) (A) (A) (A) (A) (A) (A) (A) (A) (A)
                 (A) (A) (A) (A) (A) (A) (A) (A) (A) (A) (A) (A)
                 (A) (A) (A) (A) (A) (A) (A) (A) (A) (A) (A) (A)
                 (A) (A) (A) (A) (A) (A) (A) (A) (A) (A) (A) (A)
                 (A) (A) (A) (A) (A) (A) (A) (A) (A) (A) (A) (A)
                 (A) (A) (A) (A) (A) (A) (A) (A) (A) (A) (A) (A)
                 (A) (A) (A) (A) (A) (A) (A) (A) (A) (A) (A) (A)
                 (A) (A) (A) (A) (A) (A) (A) (A) (A) (A) (A) (A)
                 (A) (A) (A) (A) (A) (A) (A) (A) (A) (A) (A) (A)
                 (A) (A) (A) (A) (A) (A) (A) (A) (A) (A) (A) (A)
                 (A) (A) (A) (A) (A) (A) (A) (A) (A) (A) (A) (A)
                 (A) (A) (A) (A) (A) (A) (A) (A) (A) (A) (A) (A)
                 (A) (A) (A) (A) (A) (A) (A) (A) (A) (A) (A) (A)
                 (A) (A) (A) (A) (A) (A) (A) (A) (A) (A) (A) (A)
                 (A) (A) (A) (A) (A) (A) (A) (A) (A) (A) (A) (A)
                 (A) (A) (A) (A) (A) (A) (A) (A) (A) (A) (A) (A)
                 (A) (A) (A) (A) (A) (A) (A) (A) (A) (A) (A) (A)
                 (A) (A) (A) (A) (A) (A) (A) (A) (A) (A) (A) (A)
                 (A) (A) (A) (A) (A) (A) (A) (A) (A) (A) (A) (A)
                 (A) (A) (A) (A) (A) (A) (A) (A) (A) (A) (A) (A)
                 (A) (A) (A) (A) (A) (A) (A) (A) (A) (A) (A) (A)
                 (A) (A) (A) (A) (A) (A) (A) (A) (A) (A) (A) (A)
                 (A) (A) (A) (A) (A) (A) (A) (A) (A) (A) (A) (A)
                 (A) (A) (A) (A) (A) (A) (A) (A) (A) (A) (A) (A)
                 (A) (A) (A) (A) (A) (A) (A) (A) (A) (A) (A) (A)
                 (A) (A) (A) (A) (A) (A) (A) (A) (A) (A) (A) (A)
                 (A) (A) (A) (A) (A) (A) (A) (A) (A) (A) (A) (A)
                 (A) (A) (A) (A) (A) (A) (A) (A) (A) (A) (A) (A)
                 (A) (A) (A) (A) (A) (A) (A) (A) (A) (A) (A) (A)
                 (A) (A) (A) (A) (A) (A) (A) (A) (A) (A) (A) (A)
                 (A) (A) (A) (A) (A) (A) (A) (A) (A) (A) (A) (A)
                 (A) (A) (A) (A) (A) (A) (A) (A) (A) (A) (A) (A)
                 (A) (A) (A) (A) (A) (A) (A) (A) (A) (A) (A) (A)
                 (A) (A) (A) (A) (A) (A) (A) (A) (A) (A) (A) (A)
                 (A) (A) (A) (A) (A) (A) (A) (A) (A) (A) (A) (A)
                 (A) (A) (A) (A) (A) (A) (A) (A) (A) (A) (A) (A)
                 (A) (A) (A) (A) (A)
 The electronic state is 1-A.
 Alpha  occ. eigenvalues --  -19.26334 -19.24199 -19.17990 -19.14643 -14.50159
 Alpha  occ. eigenvalues --  -14.45899 -14.37098 -10.35621 -10.32877 -10.29670
 Alpha  occ. eigenvalues --  -10.28547 -10.27983 -10.27128 -10.26636 -10.26232
 Alpha  occ. eigenvalues --  -10.25621 -10.24317 -10.23716 -10.23468 -10.23281
 Alpha  occ. eigenvalues --  -10.22921 -10.22873 -10.22819 -10.20262 -10.19734
 Alpha  occ. eigenvalues --   -1.20698  -1.15103  -1.07080  -1.06374  -1.03115
 Alpha  occ. eigenvalues --   -0.93827  -0.89761  -0.88661  -0.86804  -0.84190
 Alpha  occ. eigenvalues --   -0.80938  -0.79944  -0.78800  -0.76087  -0.71384
 Alpha  occ. eigenvalues --   -0.70826  -0.69609  -0.67157  -0.65710  -0.64382
 Alpha  occ. eigenvalues --   -0.63451  -0.61066  -0.59152  -0.57969  -0.55705
 Alpha  occ. eigenvalues --   -0.53715  -0.53230  -0.52718  -0.51180  -0.49735
 Alpha  occ. eigenvalues --   -0.48982  -0.48652  -0.47629  -0.46759  -0.46235
 Alpha  occ. eigenvalues --   -0.46065  -0.45815  -0.45070  -0.44203  -0.43513
 Alpha  occ. eigenvalues --   -0.43246  -0.42188  -0.41483  -0.40949  -0.40466
 Alpha  occ. eigenvalues --   -0.39929  -0.39705  -0.39193  -0.38906  -0.38582
 Alpha  occ. eigenvalues --   -0.38504  -0.37718  -0.37231  -0.36877  -0.36327
 Alpha  occ. eigenvalues --   -0.35378  -0.32142  -0.30978  -0.29732  -0.29016
 Alpha  occ. eigenvalues --   -0.28947  -0.27057  -0.24224
 Alpha virt. eigenvalues --   -0.09484  -0.08796  -0.05603  -0.04471  -0.04118
 Alpha virt. eigenvalues --   -0.02084  -0.00986  -0.00443   0.00288   0.00344
 Alpha virt. eigenvalues --    0.00897   0.01600   0.02214   0.02755   0.02794
 Alpha virt. eigenvalues --    0.03095   0.03577   0.03910   0.04230   0.04427
 Alpha virt. eigenvalues --    0.05038   0.05304   0.05807   0.06269   0.06482
 Alpha virt. eigenvalues --    0.06703   0.07527   0.07662   0.07687   0.08354
 Alpha virt. eigenvalues --    0.08405   0.08808   0.09355   0.09709   0.09885
 Alpha virt. eigenvalues --    0.10112   0.10516   0.10637   0.10868   0.11036
 Alpha virt. eigenvalues --    0.11533   0.11885   0.12091   0.12425   0.12917
 Alpha virt. eigenvalues --    0.13006   0.13559   0.13843   0.14187   0.14526
 Alpha virt. eigenvalues --    0.14886   0.15068   0.15333   0.15473   0.15804
 Alpha virt. eigenvalues --    0.16271   0.16412   0.16690   0.17150   0.17630
 Alpha virt. eigenvalues --    0.17748   0.18020   0.18240   0.18602   0.19311
 Alpha virt. eigenvalues --    0.19395   0.19499   0.19651   0.19949   0.20289
 Alpha virt. eigenvalues --    0.20694   0.20867   0.20967   0.21287   0.21690
 Alpha virt. eigenvalues --    0.21766   0.22393   0.22582   0.22683   0.22973
 Alpha virt. eigenvalues --    0.23294   0.23513   0.23790   0.23910   0.24366
 Alpha virt. eigenvalues --    0.24601   0.24799   0.25061   0.25533   0.25872
 Alpha virt. eigenvalues --    0.25993   0.26448   0.26653   0.26812   0.27050
 Alpha virt. eigenvalues --    0.27387   0.27689   0.28126   0.28528   0.28701
 Alpha virt. eigenvalues --    0.29315   0.29668   0.29956   0.30337   0.30563
 Alpha virt. eigenvalues --    0.30887   0.31205   0.31507   0.31807   0.32269
 Alpha virt. eigenvalues --    0.32597   0.33104   0.33542   0.33856   0.34382
 Alpha virt. eigenvalues --    0.34591   0.34717   0.35356   0.35758   0.35930
 Alpha virt. eigenvalues --    0.36255   0.36784   0.36987   0.37117   0.38035
 Alpha virt. eigenvalues --    0.38455   0.38779   0.39678   0.40121   0.40746
 Alpha virt. eigenvalues --    0.41216   0.41603   0.41936   0.42778   0.43383
 Alpha virt. eigenvalues --    0.43554   0.44190   0.44450   0.45199   0.46142
 Alpha virt. eigenvalues --    0.47148   0.48516   0.49412   0.49956   0.50693
 Alpha virt. eigenvalues --    0.52890   0.54936   0.56371   0.57797   0.59428
 Alpha virt. eigenvalues --    0.61464   0.64631   0.65705   0.67215   0.67942
 Alpha virt. eigenvalues --    0.68691   0.69175   0.69216   0.69932   0.70637
 Alpha virt. eigenvalues --    0.71428   0.72408   0.72844   0.73445   0.74420
 Alpha virt. eigenvalues --    0.75238   0.75786   0.76367   0.76525   0.77255
 Alpha virt. eigenvalues --    0.77360   0.78816   0.79571   0.80313   0.80516
 Alpha virt. eigenvalues --    0.81466   0.81681   0.82332   0.83457   0.83586
 Alpha virt. eigenvalues --    0.84657   0.85142   0.85885   0.86714   0.87350
 Alpha virt. eigenvalues --    0.88012   0.88330   0.88701   0.89538   0.90664
 Alpha virt. eigenvalues --    0.91342   0.92232   0.92885   0.93443   0.93946
 Alpha virt. eigenvalues --    0.94588   0.95219   0.96169   0.96377   0.96945
 Alpha virt. eigenvalues --    0.98629   0.99616   1.00082   1.01173   1.01206
 Alpha virt. eigenvalues --    1.02193   1.02726   1.03158   1.04196   1.04341
 Alpha virt. eigenvalues --    1.04876   1.06129   1.06625   1.07458   1.08167
 Alpha virt. eigenvalues --    1.08958   1.09656   1.09987   1.10723   1.12697
 Alpha virt. eigenvalues --    1.13413   1.14266   1.15268   1.16214   1.16563
 Alpha virt. eigenvalues --    1.17416   1.18852   1.19198   1.20153   1.20982
 Alpha virt. eigenvalues --    1.21880   1.23855   1.24063   1.24782   1.25691
 Alpha virt. eigenvalues --    1.26188   1.26842   1.27435   1.27790   1.30113
 Alpha virt. eigenvalues --    1.30784   1.31021   1.31389   1.33070   1.35287
 Alpha virt. eigenvalues --    1.36081   1.36626   1.36935   1.37567   1.37731
 Alpha virt. eigenvalues --    1.38528   1.38788   1.39458   1.40197   1.41104
 Alpha virt. eigenvalues --    1.41898   1.42688   1.42777   1.43247   1.44073
 Alpha virt. eigenvalues --    1.44594   1.45418   1.46586   1.47712   1.48438
 Alpha virt. eigenvalues --    1.49559   1.50208   1.51823   1.52724   1.53527
 Alpha virt. eigenvalues --    1.54349   1.55632   1.58002   1.58710   1.59904
 Alpha virt. eigenvalues --    1.61981   1.63099   1.64200   1.65652   1.68227
 Alpha virt. eigenvalues --    1.69219   1.70712   1.71479   1.72651   1.74229
 Alpha virt. eigenvalues --    1.75047   1.76178   1.77203   1.79357   1.80112
 Alpha virt. eigenvalues --    1.80868   1.81954   1.82454   1.82972   1.83776
 Alpha virt. eigenvalues --    1.84053   1.85810   1.86458   1.87128   1.87958
 Alpha virt. eigenvalues --    1.88646   1.89850   1.90426   1.91176   1.91868
 Alpha virt. eigenvalues --    1.92464   1.92905   1.93661   1.94906   1.95123
 Alpha virt. eigenvalues --    1.95828   1.96862   1.98590   1.98942   1.99717
 Alpha virt. eigenvalues --    2.00747   2.01419   2.01614   2.02419   2.03111
 Alpha virt. eigenvalues --    2.03344   2.05018   2.05977   2.06652   2.08108
 Alpha virt. eigenvalues --    2.08575   2.08736   2.09953   2.10701   2.11617
 Alpha virt. eigenvalues --    2.11941   2.12200   2.13324   2.14724   2.15101
 Alpha virt. eigenvalues --    2.16461   2.18233   2.18634   2.21379   2.22471
 Alpha virt. eigenvalues --    2.23816   2.24881   2.26449   2.27664   2.29188
 Alpha virt. eigenvalues --    2.30319   2.31334   2.31602   2.34376   2.34711
 Alpha virt. eigenvalues --    2.35513   2.36024   2.36618   2.37176   2.38185
 Alpha virt. eigenvalues --    2.39386   2.39649   2.40891   2.41409   2.43602
 Alpha virt. eigenvalues --    2.44594   2.45384   2.47405   2.47697   2.49193
 Alpha virt. eigenvalues --    2.49560   2.51067   2.51950   2.52816   2.53316
 Alpha virt. eigenvalues --    2.54139   2.54863   2.56428   2.56693   2.58144
 Alpha virt. eigenvalues --    2.59003   2.60570   2.61550   2.61690   2.65324
 Alpha virt. eigenvalues --    2.65637   2.67154   2.69413   2.69938   2.70571
 Alpha virt. eigenvalues --    2.70867   2.71948   2.72835   2.74426   2.75452
 Alpha virt. eigenvalues --    2.77189   2.78163   2.79192   2.79903   2.81649
 Alpha virt. eigenvalues --    2.84021   2.85702   2.86096   2.87152   2.88506
 Alpha virt. eigenvalues --    2.89623   2.90397   2.90807   2.93726   2.96645
 Alpha virt. eigenvalues --    2.98004   3.00291   3.01665   3.03694   3.04884
 Alpha virt. eigenvalues --    3.05898   3.07835   3.12341   3.16032   3.18061
 Alpha virt. eigenvalues --    3.23020   3.24975   3.25135   3.26261   3.26958
 Alpha virt. eigenvalues --    3.27822   3.28212   3.28955   3.30494   3.35465
 Alpha virt. eigenvalues --    3.38154   3.38497   3.43168   3.44433   3.45431
 Alpha virt. eigenvalues --    3.50252   3.50757   3.52813   3.55824   3.58951
 Alpha virt. eigenvalues --    3.87732   4.15046   4.23482   4.31046   4.32033
 Alpha virt. eigenvalues --    4.36201   4.39195   4.40409   4.41620   4.45385
 Alpha virt. eigenvalues --    4.46468   4.47679   4.49152   4.49437   4.53417
 Alpha virt. eigenvalues --    4.54780   4.56031   4.58777   4.71557   4.74067
 Alpha virt. eigenvalues --    4.76555   4.78131   4.79976   4.86669   4.95150
 Alpha virt. eigenvalues --    5.02633
          Condensed to atoms (all electrons):
               1          2          3          4          5          6
     1  C    9.770987  -1.200442  -2.697757   0.023320   0.484985  -0.970060
     2  C   -1.200442  24.685330   0.964268  -0.051112 -18.331282   3.720887
     3  C   -2.697757   0.964268  11.940026   0.062956  -3.917798   0.238442
     4  N    0.023320  -0.051112   0.062956   7.176580   0.257184  -0.028288
     5  C    0.484985 -18.331282  -3.917798   0.257184  32.432412  -7.065735
     6  C   -0.970060   3.720887   0.238442  -0.028288  -7.065735  17.400825
     7  C    0.244593  -2.977383   0.077902  -0.001165   4.162688  -6.121920
     8  C   -0.059497  -0.243115   0.010084  -0.000049   0.327956  -0.099815
     9  C    0.044552   0.507301  -0.071080   0.002215  -0.483715   0.599455
    10  C   -0.313995   0.678712  -0.093363   0.004676  -4.946504   1.379229
    11  C   -0.276470  -0.634507   0.384663  -0.006934   1.835424  -1.903806
    12  C   -0.151332  -0.365549   0.143366  -0.000700  -0.088071  -0.532479
    13  O    0.000702   0.004176   0.000026  -0.000001   0.027575  -0.088504
    14  O    0.000295   0.001294  -0.000078  -0.000003   0.017606  -0.040258
    15  N    0.003556   0.018459  -0.005413  -0.000017  -0.020864   0.067389
    16  N    0.038481   0.175304  -0.060980   0.000451  -0.116510   0.266440
    17  C    0.094172  -0.788090  -0.510069  -0.002363   2.283589  -0.064028
    18  C   -0.008281  -0.329020  -0.026207   0.000681   0.590781  -0.148383
    19  C    0.005398   0.017129   0.006198   0.000134  -0.002440   0.006325
    20  C   -0.004112   0.147525   0.028139   0.006002  -0.193770  -0.002170
    21  C    0.224636   0.578461  -0.207681   0.011298  -0.406574   0.157560
    22  C   -0.331672   0.275584   0.681707  -0.007388  -2.300585   0.225445
    23  C    0.253611  -1.113170  -0.525707   0.018313   0.950966  -0.766574
    24  O   -0.001295   0.044734  -0.003485  -0.000040  -0.114236   0.002243
    25  O   -0.006911  -0.002560   0.064811  -0.001258   0.072989   0.004992
    26  H    0.503279  -0.023157  -0.018083  -0.000116  -0.113775   0.006629
    27  H    0.533688  -0.131032  -0.039633   0.000681  -0.007624  -0.002036
    28  H    0.021228  -0.028121  -0.023042   0.000171   0.074149  -0.054354
    29  H   -0.003737   0.017190   0.000532   0.000003  -0.031682   0.029492
    30  H    0.001610   0.008118  -0.000464   0.000006  -0.009330   0.015229
    31  H    0.002098  -0.018878  -0.000853   0.000000   0.027582   0.056512
    32  H   -0.002988  -0.000450  -0.000473   0.000013  -0.020560   0.012704
    33  H   -0.001157   0.032384   0.000996  -0.000039  -0.023807  -0.001910
    34  H   -0.000788  -0.003669   0.000899  -0.000016   0.021616   0.066975
    35  H    0.000684   0.006273  -0.000133  -0.000013   0.046520   0.051879
    36  H    0.000007   0.000168  -0.000037   0.000001  -0.001375   0.000439
    37  H    0.000004   0.000291  -0.000094   0.000003  -0.000017  -0.000092
    38  H   -0.000053  -0.000957   0.000903  -0.000097   0.000692  -0.000349
    39  H   -0.001094  -0.019578  -0.000206   0.000530   0.023860  -0.001869
    40  H    0.008835   0.058729  -0.018036   0.000310  -0.033446  -0.001038
               7          8          9         10         11         12
     1  C    0.244593  -0.059497   0.044552  -0.313995  -0.276470  -0.151332
     2  C   -2.977383  -0.243115   0.507301   0.678712  -0.634507  -0.365549
     3  C    0.077902   0.010084  -0.071080  -0.093363   0.384663   0.143366
     4  N   -0.001165  -0.000049   0.002215   0.004676  -0.006934  -0.000700
     5  C    4.162688   0.327956  -0.483715  -4.946504   1.835424  -0.088071
     6  C   -6.121920  -0.099815   0.599455   1.379229  -1.903806  -0.532479
     7  C   14.267442   0.092406  -1.123401  -0.977204  -1.421305   0.130374
     8  C    0.092406   6.062974  -0.373092  -0.321550   0.060236  -0.065398
     9  C   -1.123401  -0.373092   6.142310   0.021653  -0.149303  -0.106162
    10  C   -0.977204  -0.321550   0.021653  20.768697  -6.213585  -3.491554
    11  C   -1.421305   0.060236  -0.149303  -6.213585  29.625255 -11.261601
    12  C    0.130374  -0.065398  -0.106162  -3.491554 -11.261601  22.047644
    13  O    0.045498  -0.043978   0.004299   0.126262   0.094823   0.114053
    14  O    0.011307  -0.002625   0.007883   0.117294  -0.883465   0.868198
    15  N   -0.020586   0.002896  -0.004594   0.046798   2.266147  -2.898859
    16  N   -0.059308  -0.013268   0.041922   0.126164  -1.955185   0.871992
    17  C    0.389975  -0.034529   0.123618  -3.437850   0.904596  -0.448624
    18  C    0.025678  -0.026414   0.058023  -1.657886   0.884583   2.424116
    19  C    0.034901  -0.000566  -0.006806  -0.183087  -0.111298   0.183384
    20  C   -0.074315   0.000315   0.012077   0.154642   0.012308   0.027046
    21  C    0.425634   0.004049  -0.033813  -0.133937  -0.897896  -0.595358
    22  C   -0.928599   0.025467  -0.092103   4.338231  -1.080740  -2.212903
    23  C    0.083248  -0.064829  -0.004062  -0.484730  -2.327186   0.809491
    24  O    0.017670  -0.003285  -0.001306  -0.187294   0.123684  -0.078980
    25  O   -0.178597  -0.006263   0.023368  -0.285141   0.161613  -0.038528
    26  H    0.009712  -0.003909   0.001471  -0.001274  -0.002700  -0.000645
    27  H   -0.000881   0.000665  -0.000828  -0.001428  -0.000605  -0.000050
    28  H    0.247009  -0.011370   0.025541  -0.023310   0.011635   0.007641
    29  H   -0.101601   0.416276   0.001859   0.018326   0.013047  -0.003922
    30  H   -0.080912   0.430050   0.012321   0.002018  -0.022988  -0.004919
    31  H   -0.137489   0.472807  -0.014900  -0.055363   0.013754  -0.001419
    32  H   -0.118136  -0.002364   0.459659   0.035856  -0.002692  -0.005559
    33  H   -0.052206   0.004481   0.433127  -0.012302  -0.003009  -0.000853
    34  H   -0.188628  -0.015244   0.491522  -0.120768   0.026341   0.067373
    35  H    0.022132   0.035262  -0.003941   0.348704  -0.147164   0.001055
    36  H    0.000100  -0.000016   0.000007   0.009306  -0.003522   0.003776
    37  H    0.000003   0.000000  -0.000002  -0.000036   0.000227   0.000098
    38  H   -0.000091   0.000000   0.000007  -0.000529   0.000159  -0.000005
    39  H    0.001211  -0.000013  -0.000192  -0.003168   0.000340  -0.000040
    40  H    0.035169   0.000687   0.001211   0.046864  -0.088796  -0.020545
              13         14         15         16         17         18
     1  C    0.000702   0.000295   0.003556   0.038481   0.094172  -0.008281
     2  C    0.004176   0.001294   0.018459   0.175304  -0.788090  -0.329020
     3  C    0.000026  -0.000078  -0.005413  -0.060980  -0.510069  -0.026207
     4  N   -0.000001  -0.000003  -0.000017   0.000451  -0.002363   0.000681
     5  C    0.027575   0.017606  -0.020864  -0.116510   2.283589   0.590781
     6  C   -0.088504  -0.040258   0.067389   0.266440  -0.064028  -0.148383
     7  C    0.045498   0.011307  -0.020586  -0.059308   0.389975   0.025678
     8  C   -0.043978  -0.002625   0.002896  -0.013268  -0.034529  -0.026414
     9  C    0.004299   0.007883  -0.004594   0.041922   0.123618   0.058023
    10  C    0.126262   0.117294   0.046798   0.126164  -3.437850  -1.657886
    11  C    0.094823  -0.883465   2.266147  -1.955185   0.904596   0.884583
    12  C    0.114053   0.868198  -2.898859   0.871992  -0.448624   2.424116
    13  O    8.283467  -0.085967   0.054793  -0.062915  -0.030285   0.002133
    14  O   -0.085967   8.018679  -0.122579   0.103566  -0.181853   0.299544
    15  N    0.054793  -0.122579   9.194377  -1.156557   0.635939  -1.207992
    16  N   -0.062915   0.103566  -1.156557   7.858089  -1.155573   0.424974
    17  C   -0.030285  -0.181853   0.635939  -1.155573  32.633064  -6.213078
    18  C    0.002133   0.299544  -1.207992   0.424974  -6.213078  30.519667
    19  C   -0.000337   0.030014  -0.070022   0.030989  -0.808688  -0.109982
    20  C   -0.000331  -0.001624  -0.035609   0.064182  -2.351332   0.330131
    21  C   -0.001200  -0.027779   0.305662   0.187006   0.579105  -2.797058
    22  C   -0.016589  -0.246437   0.513628   0.586928 -14.336641 -18.394433
    23  C    0.055211   0.058025  -0.067910   0.058876  -0.516441   0.598246
    24  O   -0.001324  -0.001704   0.006123   0.035733   0.112361  -0.091820
    25  O   -0.000188  -0.000056   0.003140   0.000778  -0.061361   0.009469
    26  H   -0.000001  -0.000000   0.000000   0.000037  -0.000087  -0.000050
    27  H   -0.000000  -0.000000   0.000000   0.000006  -0.000347  -0.000016
    28  H   -0.000134   0.000008   0.000062  -0.000152   0.007563   0.000978
    29  H    0.000387  -0.000013   0.000007   0.000114  -0.000575  -0.000084
    30  H    0.000681  -0.000003   0.000007   0.000614  -0.001042  -0.000175
    31  H   -0.003501   0.000321   0.000325  -0.000650   0.001721   0.000362
    32  H   -0.000187  -0.000013   0.000380   0.000367  -0.001187  -0.000100
    33  H    0.000138   0.000092  -0.002595  -0.000616  -0.017093  -0.002882
    34  H   -0.002204   0.000570   0.001756  -0.001067   0.023623   0.004669
    35  H    0.011849   0.000695  -0.000218   0.016496   0.017895  -0.009063
    36  H    0.000035   0.000097   0.002261   0.006533  -0.040161   0.260733
    37  H   -0.000000  -0.000004  -0.000680   0.000370   0.020214   0.022626
    38  H   -0.000000  -0.000001  -0.000080  -0.000290  -0.017099   0.000338
    39  H    0.000000   0.000000   0.000408  -0.000509   0.053056   0.006867
    40  H    0.000035   0.000012   0.003612   0.006957   0.190060   0.002552
              19         20         21         22         23         24
     1  C    0.005398  -0.004112   0.224636  -0.331672   0.253611  -0.001295
     2  C    0.017129   0.147525   0.578461   0.275584  -1.113170   0.044734
     3  C    0.006198   0.028139  -0.207681   0.681707  -0.525707  -0.003485
     4  N    0.000134   0.006002   0.011298  -0.007388   0.018313  -0.000040
     5  C   -0.002440  -0.193770  -0.406574  -2.300585   0.950966  -0.114236
     6  C    0.006325  -0.002170   0.157560   0.225445  -0.766574   0.002243
     7  C    0.034901  -0.074315   0.425634  -0.928599   0.083248   0.017670
     8  C   -0.000566   0.000315   0.004049   0.025467  -0.064829  -0.003285
     9  C   -0.006806   0.012077  -0.033813  -0.092103  -0.004062  -0.001306
    10  C   -0.183087   0.154642  -0.133937   4.338231  -0.484730  -0.187294
    11  C   -0.111298   0.012308  -0.897896  -1.080740  -2.327186   0.123684
    12  C    0.183384   0.027046  -0.595358  -2.212903   0.809491  -0.078980
    13  O   -0.000337  -0.000331  -0.001200  -0.016589   0.055211  -0.001324
    14  O    0.030014  -0.001624  -0.027779  -0.246437   0.058025  -0.001704
    15  N   -0.070022  -0.035609   0.305662   0.513628  -0.067910   0.006123
    16  N    0.030989   0.064182   0.187006   0.586928   0.058876   0.035733
    17  C   -0.808688  -2.351332   0.579105 -14.336641  -0.516441   0.112361
    18  C   -0.109982   0.330131  -2.797058 -18.394433   0.598246  -0.091820
    19  C    6.728855   0.343904   0.763623  -1.091937   0.009967   0.009851
    20  C    0.343904   6.070294  -0.370621   1.663101  -0.071651  -0.003272
    21  C    0.763623  -0.370621  13.161998  -4.849213  -0.118422   0.064155
    22  C   -1.091937   1.663101  -4.849213  43.446589  -0.334592  -0.033855
    23  C    0.009967  -0.071651  -0.118422  -0.334592   9.088009   0.420745
    24  O    0.009851  -0.003272   0.064155  -0.033855   0.420745   8.093788
    25  O   -0.007658   0.006692  -0.086481   0.126714   0.084452  -0.075831
    26  H    0.000004  -0.000001   0.000431  -0.000378  -0.004637   0.000031
    27  H   -0.000001  -0.000004   0.000130   0.000311   0.001221  -0.000001
    28  H    0.000026  -0.000151   0.000004  -0.007960   0.009617  -0.000023
    29  H   -0.000000   0.000003  -0.000015   0.000490  -0.003156  -0.000001
    30  H   -0.000005   0.000007   0.000240   0.001232  -0.000322   0.000040
    31  H    0.000021  -0.000005   0.000256  -0.000158   0.013727  -0.000032
    32  H   -0.000021   0.000093  -0.000877   0.000719   0.000539  -0.000001
    33  H   -0.000351   0.000841   0.002064   0.005138  -0.006864   0.000023
    34  H    0.000654  -0.000562   0.001581  -0.023899  -0.001799  -0.000057
    35  H    0.000331  -0.000386   0.004125  -0.010672  -0.116711  -0.004015
    36  H   -0.010663   0.001496  -0.011915   0.080439   0.012018  -0.000000
    37  H    0.249217   0.019773  -0.006584   0.008706   0.000488  -0.000024
    38  H    0.018638   0.259681   0.008106   0.044580   0.000200  -0.000002
    39  H   -0.007252   0.019847   0.235973   0.003299   0.004798  -0.000126
    40  H    0.006742  -0.009208   0.183637  -0.102714   0.008000  -0.000271
              25         26         27         28         29         30
     1  C   -0.006911   0.503279   0.533688   0.021228  -0.003737   0.001610
     2  C   -0.002560  -0.023157  -0.131032  -0.028121   0.017190   0.008118
     3  C    0.064811  -0.018083  -0.039633  -0.023042   0.000532  -0.000464
     4  N   -0.001258  -0.000116   0.000681   0.000171   0.000003   0.000006
     5  C    0.072989  -0.113775  -0.007624   0.074149  -0.031682  -0.009330
     6  C    0.004992   0.006629  -0.002036  -0.054354   0.029492   0.015229
     7  C   -0.178597   0.009712  -0.000881   0.247009  -0.101601  -0.080912
     8  C   -0.006263  -0.003909   0.000665  -0.011370   0.416276   0.430050
     9  C    0.023368   0.001471  -0.000828   0.025541   0.001859   0.012321
    10  C   -0.285141  -0.001274  -0.001428  -0.023310   0.018326   0.002018
    11  C    0.161613  -0.002700  -0.000605   0.011635   0.013047  -0.022988
    12  C   -0.038528  -0.000645  -0.000050   0.007641  -0.003922  -0.004919
    13  O   -0.000188  -0.000001  -0.000000  -0.000134   0.000387   0.000681
    14  O   -0.000056  -0.000000  -0.000000   0.000008  -0.000013  -0.000003
    15  N    0.003140   0.000000   0.000000   0.000062   0.000007   0.000007
    16  N    0.000778   0.000037   0.000006  -0.000152   0.000114   0.000614
    17  C   -0.061361  -0.000087  -0.000347   0.007563  -0.000575  -0.001042
    18  C    0.009469  -0.000050  -0.000016   0.000978  -0.000084  -0.000175
    19  C   -0.007658   0.000004  -0.000001   0.000026  -0.000000  -0.000005
    20  C    0.006692  -0.000001  -0.000004  -0.000151   0.000003   0.000007
    21  C   -0.086481   0.000431   0.000130   0.000004  -0.000015   0.000240
    22  C    0.126714  -0.000378   0.000311  -0.007960   0.000490   0.001232
    23  C    0.084452  -0.004637   0.001221   0.009617  -0.003156  -0.000322
    24  O   -0.075831   0.000031  -0.000001  -0.000023  -0.000001   0.000040
    25  O    8.297246   0.000288   0.000021   0.001615   0.000039  -0.000311
    26  H    0.000288   0.512785  -0.029192  -0.000700  -0.000004   0.000433
    27  H    0.000021  -0.029192   0.505602   0.000046   0.000000   0.000001
    28  H    0.001615  -0.000700   0.000046   0.620920  -0.004046  -0.004290
    29  H    0.000039  -0.000004   0.000000  -0.004046   0.547997  -0.026753
    30  H   -0.000311   0.000433   0.000001  -0.004290  -0.026753   0.561537
    31  H    0.000236   0.000000  -0.000000   0.004904  -0.024013  -0.026458
    32  H   -0.000029   0.000000  -0.000000  -0.004243   0.003131   0.000105
    33  H   -0.000384  -0.000002  -0.000000  -0.004217   0.000104  -0.000167
    34  H    0.000343  -0.000001  -0.000000   0.005221  -0.000250   0.000056
    35  H    0.006686   0.000006  -0.000000  -0.000013   0.000011   0.000342
    36  H   -0.000092   0.000000   0.000000   0.000000  -0.000000   0.000000
    37  H   -0.000007   0.000000   0.000000  -0.000000   0.000000   0.000000
    38  H   -0.000033  -0.000000  -0.000000   0.000000   0.000000  -0.000000
    39  H   -0.000062   0.000000  -0.000000  -0.000000  -0.000000  -0.000000
    40  H    0.000195  -0.000000   0.000000   0.000016   0.000000  -0.000000
              31         32         33         34         35         36
     1  C    0.002098  -0.002988  -0.001157  -0.000788   0.000684   0.000007
     2  C   -0.018878  -0.000450   0.032384  -0.003669   0.006273   0.000168
     3  C   -0.000853  -0.000473   0.000996   0.000899  -0.000133  -0.000037
     4  N    0.000000   0.000013  -0.000039  -0.000016  -0.000013   0.000001
     5  C    0.027582  -0.020560  -0.023807   0.021616   0.046520  -0.001375
     6  C    0.056512   0.012704  -0.001910   0.066975   0.051879   0.000439
     7  C   -0.137489  -0.118136  -0.052206  -0.188628   0.022132   0.000100
     8  C    0.472807  -0.002364   0.004481  -0.015244   0.035262  -0.000016
     9  C   -0.014900   0.459659   0.433127   0.491522  -0.003941   0.000007
    10  C   -0.055363   0.035856  -0.012302  -0.120768   0.348704   0.009306
    11  C    0.013754  -0.002692  -0.003009   0.026341  -0.147164  -0.003522
    12  C   -0.001419  -0.005559  -0.000853   0.067373   0.001055   0.003776
    13  O   -0.003501  -0.000187   0.000138  -0.002204   0.011849   0.000035
    14  O    0.000321  -0.000013   0.000092   0.000570   0.000695   0.000097
    15  N    0.000325   0.000380  -0.002595   0.001756  -0.000218   0.002261
    16  N   -0.000650   0.000367  -0.000616  -0.001067   0.016496   0.006533
    17  C    0.001721  -0.001187  -0.017093   0.023623   0.017895  -0.040161
    18  C    0.000362  -0.000100  -0.002882   0.004669  -0.009063   0.260733
    19  C    0.000021  -0.000021  -0.000351   0.000654   0.000331  -0.010663
    20  C   -0.000005   0.000093   0.000841  -0.000562  -0.000386   0.001496
    21  C    0.000256  -0.000877   0.002064   0.001581   0.004125  -0.011915
    22  C   -0.000158   0.000719   0.005138  -0.023899  -0.010672   0.080439
    23  C    0.013727   0.000539  -0.006864  -0.001799  -0.116711   0.012018
    24  O   -0.000032  -0.000001   0.000023  -0.000057  -0.004015  -0.000000
    25  O    0.000236  -0.000029  -0.000384   0.000343   0.006686  -0.000092
    26  H    0.000000   0.000000  -0.000002  -0.000001   0.000006   0.000000
    27  H   -0.000000  -0.000000  -0.000000  -0.000000  -0.000000   0.000000
    28  H    0.004904  -0.004243  -0.004217   0.005221  -0.000013   0.000000
    29  H   -0.024013   0.003131   0.000104  -0.000250   0.000011  -0.000000
    30  H   -0.026458   0.000105  -0.000167   0.000056   0.000342   0.000000
    31  H    0.486445  -0.000051   0.000024   0.002584  -0.000580  -0.000000
    32  H   -0.000051   0.545795  -0.027044  -0.025860   0.000002  -0.000000
    33  H    0.000024  -0.027044   0.567790  -0.029650   0.000008   0.000000
    34  H    0.002584  -0.025860  -0.029650   0.531509   0.000138   0.000000
    35  H   -0.000580   0.000002   0.000008   0.000138   0.502027   0.000000
    36  H   -0.000000  -0.000000   0.000000   0.000000   0.000000   0.543145
    37  H   -0.000000   0.000000  -0.000000  -0.000000   0.000000  -0.005208
    38  H    0.000000  -0.000000   0.000000  -0.000000   0.000000  -0.000134
    39  H   -0.000000  -0.000000  -0.000001  -0.000000   0.000000   0.000013
    40  H    0.000000   0.000016   0.002133  -0.000084  -0.000002  -0.000141
              37         38         39         40
     1  C    0.000004  -0.000053  -0.001094   0.008835
     2  C    0.000291  -0.000957  -0.019578   0.058729
     3  C   -0.000094   0.000903  -0.000206  -0.018036
     4  N    0.000003  -0.000097   0.000530   0.000310
     5  C   -0.000017   0.000692   0.023860  -0.033446
     6  C   -0.000092  -0.000349  -0.001869  -0.001038
     7  C    0.000003  -0.000091   0.001211   0.035169
     8  C    0.000000   0.000000  -0.000013   0.000687
     9  C   -0.000002   0.000007  -0.000192   0.001211
    10  C   -0.000036  -0.000529  -0.003168   0.046864
    11  C    0.000227   0.000159   0.000340  -0.088796
    12  C    0.000098  -0.000005  -0.000040  -0.020545
    13  O   -0.000000  -0.000000   0.000000   0.000035
    14  O   -0.000004  -0.000001   0.000000   0.000012
    15  N   -0.000680  -0.000080   0.000408   0.003612
    16  N    0.000370  -0.000290  -0.000509   0.006957
    17  C    0.020214  -0.017099   0.053056   0.190060
    18  C    0.022626   0.000338   0.006867   0.002552
    19  C    0.249217   0.018638  -0.007252   0.006742
    20  C    0.019773   0.259681   0.019847  -0.009208
    21  C   -0.006584   0.008106   0.235973   0.183637
    22  C    0.008706   0.044580   0.003299  -0.102714
    23  C    0.000488   0.000200   0.004798   0.008000
    24  O   -0.000024  -0.000002  -0.000126  -0.000271
    25  O   -0.000007  -0.000033  -0.000062   0.000195
    26  H    0.000000  -0.000000   0.000000  -0.000000
    27  H    0.000000  -0.000000  -0.000000   0.000000
    28  H   -0.000000   0.000000  -0.000000   0.000016
    29  H    0.000000   0.000000  -0.000000   0.000000
    30  H    0.000000  -0.000000  -0.000000  -0.000000
    31  H   -0.000000   0.000000  -0.000000   0.000000
    32  H    0.000000  -0.000000  -0.000000   0.000016
    33  H   -0.000000   0.000000  -0.000001   0.002133
    34  H   -0.000000  -0.000000  -0.000000  -0.000084
    35  H    0.000000   0.000000   0.000000  -0.000002
    36  H   -0.005208  -0.000134   0.000013  -0.000141
    37  H    0.555030  -0.005421  -0.000155   0.000014
    38  H   -0.005421   0.557030  -0.005329  -0.000162
    39  H   -0.000155  -0.005329   0.544467  -0.005702
    40  H    0.000014  -0.000162  -0.005702   0.594626
 Mulliken charges:
               1
     1  C   -0.229079
     2  C    0.319756
     3  C   -0.385250
     4  N   -0.465928
     5  C    0.591126
     6  C   -0.415424
     7  C    0.239074
     8  C   -0.555422
     9  C   -0.546100
    10  C    0.722426
    11  C   -1.024077
    12  C    0.674447
    13  O   -0.488495
    14  O    0.058961
    15  N   -0.513150
    16  N    0.680212
    17  C   -1.052156
    18  C    0.555776
    19  C   -0.035190
    20  C   -0.048978
    21  C   -0.354310
    22  C    0.375161
    23  C   -0.011003
    24  O   -0.328901
    25  O   -0.113937
    26  H    0.163602
    27  H    0.171305
    28  H    0.127768
    29  H    0.150843
    30  H    0.143493
    31  H    0.200669
    32  H    0.153457
    33  H    0.137808
    34  H    0.167117
    35  H    0.219793
    36  H    0.152688
    37  H    0.141260
    38  H    0.140298
    39  H    0.150626
    40  H    0.129732
 Sum of Mulliken charges =  -0.00000
 Mulliken charges with hydrogens summed into heavy atoms:
               1
     1  C    0.105829
     2  C    0.319756
     3  C   -0.385250
     4  N   -0.465928
     5  C    0.591126
     6  C   -0.415424
     7  C    0.366843
     8  C   -0.060417
     9  C   -0.087718
    10  C    0.942219
    11  C   -1.024077
    12  C    0.674447
    13  O   -0.488495
    14  O    0.058961
    15  N   -0.513150
    16  N    0.680212
    17  C   -1.052156
    18  C    0.708464
    19  C    0.106070
    20  C    0.091320
    21  C   -0.203683
    22  C    0.504893
    23  C   -0.011003
    24  O   -0.328901
    25  O   -0.113937
 Electronic spatial extent (au):  <R**2>=           7157.9277
 Charge=              0.0000 electrons
 Dipole moment (field-independent basis, Debye):
    X=              3.8400    Y=              1.1789    Z=             -2.1350  Tot=              4.5490
 Quadrupole moment (field-independent basis, Debye-Ang):
   XX=           -137.2058   YY=           -161.4079   ZZ=           -153.1503
   XY=            -29.7034   XZ=             -0.8663   YZ=              0.3955
 Traceless Quadrupole moment (field-independent basis, Debye-Ang):
   XX=             13.3822   YY=            -10.8199   ZZ=             -2.5623
   XY=            -29.7034   XZ=             -0.8663   YZ=              0.3955
 Octapole moment (field-independent basis, Debye-Ang**2):
  XXX=             68.5189  YYY=             62.8555  ZZZ=             -9.7148  XYY=            -28.9250
  XXY=             -4.2501  XXZ=             31.0712  XZZ=              4.6243  YZZ=            -25.3479
  YYZ=             -7.6781  XYZ=             -0.2966
 Hexadecapole moment (field-independent basis, Debye-Ang**3):
 XXXX=          -4242.8967 YYYY=          -4272.7556 ZZZZ=          -1154.8173 XXXY=           -215.2256
 XXXZ=            -61.8403 YYYX=           -410.0517 YYYZ=             81.4188 ZZZX=              8.1283
 ZZZY=             -6.3329 XXYY=          -1576.7014 XXZZ=           -991.2221 YYZZ=           -871.7953
 XXYZ=             57.9722 YYXZ=             23.1135 ZZXY=              5.5539
 N-N= 2.214848323296D+03 E-N=-7.126167172326D+03  KE= 1.149325256796D+03
 Unable to Open any file for archive entry.
 1\1\GINC-N2\SP\RB3LYP TD-FC\6-31+G(d,p)\C18H15N3O4\HPCMGAC13\06-Aug-20
 25\0\\# td=(50-50,nstates=3) b3lyp/6-31+g(d,p) geom=connectivity\\Titl
 e Card Required\\0,1\C,0,4.510971,0.00157,0.201317\C,0,3.349411,0.6796
 16,0.181353\C,0,3.314843,2.054219,-0.253171\N,0,3.255203,3.153983,-0.6
 27649\C,0,2.048866,0.094834,0.565578\C,0,1.371783,-0.974406,0.114133\C
 ,0,1.821353,-1.984644,-0.915602\C,0,1.910099,-3.400952,-0.306492\C,0,0
 .949942,-1.990163,-2.189511\C,0,0.087291,-1.050735,0.939644\C,0,-1.236
 752,-1.25187,0.277412\C,0,-1.919468,-2.499608,0.210909\O,0,-1.633292,-
 3.634291,0.541409\O,0,-3.160783,-2.167637,-0.389741\N,0,-3.23568,-0.83
 286,-0.662059\N,0,-2.089705,-0.33657,-0.249627\C,0,-1.923294,1.091998,
 -0.379816\C,0,-2.896348,1.925581,0.172935\C,0,-2.743074,3.305904,0.045
 946\C,0,-1.631101,3.834572,-0.616565\C,0,-0.668982,2.983896,-1.166428\
 C,0,-0.815098,1.599651,-1.057437\C,0,0.177626,0.204702,1.823696\O,0,-0
 .600317,0.617628,2.638074\O,0,1.376661,0.823982,1.559766\H,0,4.547095,
 -1.024225,0.550719\H,0,5.436566,0.46311,-0.124973\H,0,2.830657,-1.6872
 91,-1.222458\H,0,2.320469,-4.098027,-1.04455\H,0,2.563932,-3.417747,0.
 572541\H,0,0.924037,-3.772326,-0.008563\H,0,1.38325,-2.67538,-2.925443
 \H,0,0.900757,-0.997589,-2.649384\H,0,-0.069071,-2.330134,-1.98696\H,0
 ,0.172881,-1.909628,1.625051\H,0,-3.740296,1.496093,0.699935\H,0,-3.48
 7177,3.967396,0.477762\H,0,-1.510808,4.910135,-0.700027\H,0,0.198014,3
 .392094,-1.675159\H,0,-0.085595,0.9292,-1.496599\\Version=ES64L-G16Rev
 C.02\State=1-A\HF=-1160.0325197\RMSD=7.505e-09\PG=C01 [X(C18H15N3O4)]\
 \@
 The archive entry for this job was punched.


 THERE IS NO SUBJECT, HOWEVER COMPLEX,
 WHICH, IF STUDIED WITH PATIENCE AND INTELLIGIENCE
 WILL NOT BECOME
 MORE COMPLEX
                        QUOTED BY D. GORDON ROHMAN
 Job cpu time:       0 days  3 hours 36 minutes 19.6 seconds.
 Elapsed time:       0 days  0 hours 13 minutes 51.7 seconds.
 File lengths (MBytes):  RWF=   1639 Int=      0 D2E=      0 Chk=     79 Scr=      2
 Normal termination of Gaussian 16 at Wed Aug  6 09:41:50 2025.
