 Entering Gaussian System, Link 0=g16
 Input=M1827e.gjf
 Output=M1827e.log
 Initial command:
 /hpc/softwares/Gaussian/g16/l1.exe "/hpc/home/hpcmgac13/pbs.12835.admin1.x8z/Gau-2031005.inp" -scrdir="/hpc/home/hpcmgac13/pbs.12835.admin1.x8z/"
 Default linda workers: n2
 Default is to use  16 SMP processors on each worker.
 Entering Link 1 = /hpc/softwares/Gaussian/g16/l1.exe PID=   2031006.
  
 Copyright (c) 1988-2021, Gaussian, Inc.  All Rights Reserved.
  
 This is part of the Gaussian(R) 16 program.  It is based on
 the Gaussian(R) 09 system (copyright 2009, Gaussian, Inc.),
 the Gaussian(R) 03 system (copyright 2003, Gaussian, Inc.),
 the Gaussian(R) 98 system (copyright 1998, Gaussian, Inc.),
 the Gaussian(R) 94 system (copyright 1995, Gaussian, Inc.),
 the Gaussian 92(TM) system (copyright 1992, Gaussian, Inc.),
 the Gaussian 90(TM) system (copyright 1990, Gaussian, Inc.),
 the Gaussian 88(TM) system (copyright 1988, Gaussian, Inc.),
 the Gaussian 86(TM) system (copyright 1986, Carnegie Mellon
 University), and the Gaussian 82(TM) system (copyright 1983,
 Carnegie Mellon University). Gaussian is a federally registered
 trademark of Gaussian, Inc.
  
 This software contains proprietary and confidential information,
 including trade secrets, belonging to Gaussian, Inc.
  
 This software is provided under written license and may be
 used, copied, transmitted, or stored only in accord with that
 written license.
  
 The following legend is applicable only to US Government
 contracts under FAR:
  
                    RESTRICTED RIGHTS LEGEND
  
 Use, reproduction and disclosure by the US Government is
 subject to restrictions as set forth in subparagraphs (a)
 and (c) of the Commercial Computer Software - Restricted
 Rights clause in FAR 52.227-19.
  
 Gaussian, Inc.
 340 Quinnipiac St., Bldg. 40, Wallingford CT 06492
  
  
 ---------------------------------------------------------------
 Warning -- This program may not be used in any manner that
 competes with the business of Gaussian, Inc. or will provide
 assistance to any competitor of Gaussian, Inc.  The licensee
 of this program is prohibited from giving any competitor of
 Gaussian, Inc. access to this program.  By using this program,
 the user acknowledges that Gaussian, Inc. is engaged in the
 business of creating and licensing software in the field of
 computational chemistry and represents and warrants to the
 licensee that it is not a competitor of Gaussian, Inc. and that
 it will not use this program in any manner prohibited above.
 ---------------------------------------------------------------
  

 Cite this work as:
 Gaussian 16, Revision C.02,
 M. J. Frisch, G. W. Trucks, H. B. Schlegel, G. E. Scuseria, 
 M. A. Robb, J. R. Cheeseman, G. Scalmani, V. Barone, 
 G. A. Petersson, H. Nakatsuji, X. Li, M. Caricato, A. V. Marenich, 
 J. Bloino, B. G. Janesko, R. Gomperts, B. Mennucci, H. P. Hratchian, 
 J. V. Ortiz, A. F. Izmaylov, J. L. Sonnenberg, D. Williams-Young, 
 F. Ding, F. Lipparini, F. Egidi, J. Goings, B. Peng, A. Petrone, 
 T. Henderson, D. Ranasinghe, V. G. Zakrzewski, J. Gao, N. Rega, 
 G. Zheng, W. Liang, M. Hada, M. Ehara, K. Toyota, R. Fukuda, 
 J. Hasegawa, M. Ishida, T. Nakajima, Y. Honda, O. Kitao, H. Nakai, 
 T. Vreven, K. Throssell, J. A. Montgomery, Jr., J. E. Peralta, 
 F. Ogliaro, M. J. Bearpark, J. J. Heyd, E. N. Brothers, K. N. Kudin, 
 V. N. Staroverov, T. A. Keith, R. Kobayashi, J. Normand, 
 K. Raghavachari, A. P. Rendell, J. C. Burant, S. S. Iyengar, 
 J. Tomasi, M. Cossi, J. M. Millam, M. Klene, C. Adamo, R. Cammi, 
 J. W. Ochterski, R. L. Martin, K. Morokuma, O. Farkas, 
 J. B. Foresman, and D. J. Fox, Gaussian, Inc., Wallingford CT, 2019.
 
 ******************************************
 Gaussian 16:  ES64L-G16RevC.02  7-Dec-2021
                 6-Aug-2025 
 ******************************************
 SetLPE:    new flags="-opt 'Tsnet.Node.lindarsharg: ssh'  -nodelist 'n2.head.cm.mguif.local' -env GAUSS_MDEF=4294967296 -env GAUSS_EXEDIR="/hpc/softwares/Gaussian/g16/bsd:/hpc/softwares/Gaussian/g16""
 Will use up to    1 processors via Linda.
 ----------------------------------------------------------
 # td=(50-50,nstates=3) b3lyp/6-31+g(d,p) geom=connectivity
 ----------------------------------------------------------
 1/38=1,57=2,172=1/1;
 2/12=2,17=6,18=5,40=1/2;
 3/5=1,6=6,7=111,11=9,25=1,30=1,74=-5/1,2,3,8;
 4//1;
 5/5=2,38=5/2;
 8/6=1,10=2,108=3/1;
 9/41=3,42=1,48=2,70=2/14;
 6/7=2,8=2,9=2,10=2/1;
 99/5=1,9=1/99;
 -------------------
 Title Card Required
 -------------------
 Symbolic Z-matrix:
 Charge =  0 Multiplicity = 1
 C                     4.43171  -2.43105   0.38838 
 C                     2.96279  -2.07263   0.0794 
 C                     2.58832  -2.70642  -1.28331 
 C                     2.08976  -2.57818   1.2147 
 C                     0.76118  -2.35492   1.31759 
 O                     0.07671  -3.03225   2.31551 
 C                    -0.04419  -1.52259   0.44253 
 C                     0.34285  -0.39785  -0.22255 
 C                    -0.63811   0.33991  -1.142 
 C                    -2.06878  -0.15817  -1.17018 
 C                    -2.46972  -1.04129  -2.18195 
 C                    -3.77666  -1.52705  -2.25422 
 C                    -4.71252  -1.12556  -1.30154 
 C                    -4.33382  -0.24191  -0.28812 
 C                    -3.02437   0.24571  -0.21214 
 C                    -2.60833   1.23167   0.87727 
 C                    -3.60261   1.44236   1.93201 
 N                    -4.38018   1.61717   2.77656 
 C                     1.69731   0.17525  -0.12302 
 C                     1.84284   1.66944  -0.17622 
 C                     2.62083   2.28612  -1.16847 
 C                     2.78413   3.67461  -1.19345 
 C                     2.17124   4.47166  -0.22435 
 C                     1.39663   3.87056   0.77321 
 C                     1.234     2.48437   0.79431 
 C                     2.82578  -0.55686   0.05747 
 H                     5.09699  -2.05136  -0.39468 
 H                     4.75101  -2.00296   1.34517 
 H                     4.55879  -3.5173    0.44333 
 H                     2.70775  -3.79437  -1.23304 
 H                     1.55493  -2.49279  -1.56371 
 H                     3.24574  -2.32302  -2.07262 
 H                     2.55227  -3.19033   1.98594 
 H                    -0.75824  -2.58519   2.50329 
 H                    -1.08379  -1.83283   0.3441 
 H                    -0.61275   1.40787  -0.90136 
 H                    -0.23049   0.27774  -2.16007 
 H                    -1.73938  -1.35239  -2.92477 
 H                    -4.05872  -2.21111  -3.04909 
 H                    -5.73364  -1.49242  -1.34288 
 H                    -5.06539   0.07052   0.45091 
 H                    -1.68313   0.89417   1.35913 
 H                    -2.38176   2.21213   0.4374 
 H                     3.09339   1.67068  -1.92877 
 H                     3.38879   4.13138  -1.97189 
 H                     2.29774   5.55016  -0.24234 
 H                     0.92803   4.48048   1.54054 
 H                     0.65075   2.02239   1.58672 
 H                     3.74711   0.00351   0.21641 
 
                          Input orientation:                          
 ---------------------------------------------------------------------
 Center     Atomic      Atomic             Coordinates (Angstroms)
 Number     Number       Type             X           Y           Z
 ---------------------------------------------------------------------
      1          6           0        4.431707   -2.431054    0.388383
      2          6           0        2.962791   -2.072632    0.079401
      3          6           0        2.588318   -2.706415   -1.283305
      4          6           0        2.089756   -2.578181    1.214699
      5          6           0        0.761176   -2.354922    1.317592
      6          8           0        0.076710   -3.032252    2.315514
      7          6           0       -0.044191   -1.522588    0.442529
      8          6           0        0.342851   -0.397847   -0.222546
      9          6           0       -0.638110    0.339913   -1.142001
     10          6           0       -2.068782   -0.158168   -1.170184
     11          6           0       -2.469722   -1.041293   -2.181945
     12          6           0       -3.776659   -1.527052   -2.254224
     13          6           0       -4.712515   -1.125560   -1.301541
     14          6           0       -4.333816   -0.241914   -0.288117
     15          6           0       -3.024366    0.245708   -0.212142
     16          6           0       -2.608329    1.231667    0.877273
     17          6           0       -3.602605    1.442355    1.932013
     18          7           0       -4.380180    1.617167    2.776563
     19          6           0        1.697306    0.175245   -0.123019
     20          6           0        1.842836    1.669437   -0.176217
     21          6           0        2.620833    2.286116   -1.168473
     22          6           0        2.784129    3.674605   -1.193450
     23          6           0        2.171243    4.471660   -0.224351
     24          6           0        1.396629    3.870555    0.773206
     25          6           0        1.234004    2.484370    0.794312
     26          6           0        2.825782   -0.556857    0.057474
     27          1           0        5.096988   -2.051355   -0.394677
     28          1           0        4.751012   -2.002957    1.345169
     29          1           0        4.558789   -3.517297    0.443331
     30          1           0        2.707749   -3.794366   -1.233043
     31          1           0        1.554925   -2.492793   -1.563708
     32          1           0        3.245743   -2.323024   -2.072618
     33          1           0        2.552265   -3.190326    1.985935
     34          1           0       -0.758238   -2.585191    2.503293
     35          1           0       -1.083793   -1.832830    0.344100
     36          1           0       -0.612745    1.407866   -0.901362
     37          1           0       -0.230492    0.277742   -2.160069
     38          1           0       -1.739376   -1.352388   -2.924771
     39          1           0       -4.058718   -2.211111   -3.049091
     40          1           0       -5.733642   -1.492416   -1.342875
     41          1           0       -5.065391    0.070520    0.450913
     42          1           0       -1.683134    0.894167    1.359134
     43          1           0       -2.381763    2.212128    0.437397
     44          1           0        3.093388    1.670679   -1.928767
     45          1           0        3.388789    4.131376   -1.971892
     46          1           0        2.297738    5.550155   -0.242336
     47          1           0        0.928026    4.480477    1.540543
     48          1           0        0.650748    2.022387    1.586722
     49          1           0        3.747112    0.003512    0.216408
 ---------------------------------------------------------------------
                    Distance matrix (angstroms):
                    1          2          3          4          5
     1  C    0.000000
     2  C    1.543260   0.000000
     3  C    2.503687   1.548831   0.000000
     4  C    2.487806   1.518773   2.550496   0.000000
     5  C    3.787086   2.541636   3.197915   1.351132   0.000000
     6  O    4.800132   3.774988   4.400664   2.338873   1.386765
     7  C    4.567483   3.078368   3.363042   2.502849   1.451596
     8  C    4.607158   3.124126   3.390696   3.141848   2.525305
     9  C    5.976904   4.503186   4.439585   4.637948   3.907651
    10  C    7.060559   5.526605   5.309891   5.370062   4.361585
    11  C    7.494514   5.974073   5.400366   5.889657   4.940757
    12  C    8.670517   7.152877   6.545725   6.895877   5.833968
    13  C    9.390258   7.855843   7.470047   7.396787   6.191323
    14  C    9.060043   7.531738   7.414857   6.998491   5.744741
    15  C    7.944728   6.426955   6.431535   6.013690   4.840836
    16  C    7.950890   6.526283   6.868896   6.058119   4.940756
    17  C    9.051865   7.674095   8.116532   7.005871   5.817165
    18  N    9.987034   8.649192   9.150730   7.867683   6.658801
    19  C    3.811991   2.587543   3.231738   3.086237   3.058340
    20  C    4.882116   3.914425   4.574874   4.476369   4.426841
    21  C    5.287226   4.546736   4.993957   5.442696   5.583733
    22  C    6.518879   5.889211   6.384656   6.736369   6.837607
    23  C    7.289211   6.598983   7.267744   7.195677   7.139195
    24  C    7.005003   6.185119   6.993275   6.500887   6.281458
    25  C    5.878050   4.926060   5.752817   5.151549   4.890413
    26  C    2.490203   1.522112   2.544539   2.442674   3.013890
    27  H    1.095424   2.186321   2.740837   3.451243   4.671540
    28  H    1.095747   2.191976   3.475770   2.725837   4.005425
    29  H    1.095031   2.183280   2.742546   2.751921   4.066609
    30  H    2.731240   2.179891   1.095640   2.802225   3.516658
    31  H    3.477117   2.204184   1.091861   2.830703   2.991811
    32  H    2.733991   2.184936   1.096454   3.493975   4.203286
    33  H    2.580885   2.247809   3.305057   1.087861   2.086284
    34  H    5.606437   4.470350   5.054944   3.125955   1.941013
    35  H    5.548024   4.062316   4.110474   3.374152   2.150390
    36  H    6.468945   5.085294   5.226853   5.260209   4.579300
    37  H    5.963915   4.553739   4.197570   4.992886   4.473081
    38  H    7.086803   5.626204   4.822524   5.770618   5.025483
    39  H    9.162528   7.688188   6.895391   7.491220   6.505381
    40  H   10.354353   8.831051   8.410253   8.302146   7.071397
    41  H    9.821235   8.317622   8.324551   7.667797   6.370462
    42  H    7.027854   5.658996   6.179966   5.129597   4.066074
    43  H    8.245297   6.859416   7.201013   6.598920   5.613444
    44  H    4.897397   4.249961   4.453164   5.379727   5.673052
    45  H    7.051529   6.548205   6.918836   7.540557   7.732860
    46  H    8.285610   7.658505   8.327004   8.260512   8.202722
    47  H    7.834061   7.015586   7.898234   7.161036   6.841069
    48  H    5.963623   4.938293   5.861126   4.834705   4.386965
    49  H    2.534829   2.223579   3.306909   3.226229   3.961140
                    6          7          8          9         10
     6  O    0.000000
     7  C    2.408687   0.000000
     8  C    3.667788   1.362780   0.000000
     9  C    4.882302   2.516423   1.533614   0.000000
    10  C    5.001358   2.925996   2.602199   1.515157   0.000000
    11  C    5.538535   3.605927   3.487669   2.518733   1.401543
    12  C    6.164137   4.604760   4.730030   3.817471   2.442505
    13  C    6.297240   4.999266   5.220203   4.332879   2.818231
    14  C    5.832463   4.535951   4.679725   3.837432   2.432167
    15  C    5.172112   3.526600   3.428181   2.562758   1.412126
    16  C    5.240131   3.788103   3.546037   2.958793   2.532752
    17  C    5.805733   4.865363   4.857478   4.410575   3.812862
    18  N    6.457053   5.840084   5.946592   5.566831   4.906240
    19  C    4.342904   2.497057   1.474072   2.553352   3.923154
    20  C    5.606586   3.759354   2.554558   2.975813   4.430448
    21  C    6.848048   4.919747   3.645221   3.795934   5.288385
    22  C    8.038960   6.138944   4.846376   4.778550   6.183966
    23  C    8.194308   6.425254   5.201454   5.079949   6.348836
    24  C    7.195113   5.592075   4.507907   4.502623   5.658308
    25  C    5.838365   4.220574   3.183603   3.442792   4.663759
    26  C    4.334019   3.052482   2.503726   3.773789   5.061902
    27  H    5.788824   5.235669   5.036421   6.258435   7.452102
    28  H    4.883658   4.903008   4.946311   6.381041   7.499322
    29  H    4.881534   5.016601   5.286633   6.663265   7.603412
    30  H    4.482794   3.942295   4.260304   5.319335   6.003427
    31  H    4.186227   2.742892   2.767063   3.607141   4.328578
    32  H    5.459073   4.217858   3.944091   4.800166   5.809059
    33  H    2.502395   3.450367   4.190088   5.694301   6.364679
    34  H    0.965537   2.426054   3.664297   4.675343   4.593735
    35  H    2.582993   1.089363   2.101327   2.669821   2.463281
    36  H    5.526146   3.273661   2.152802   1.095022   2.155173
    37  H    5.575058   3.170081   2.130525   1.098399   2.132885
    38  H    5.794886   3.773769   3.542434   2.693499   2.147847
    39  H    6.823124   5.364877   5.536343   4.673893   3.421215
    40  H    7.036696   5.963089   6.275108   5.418692   3.904003
    41  H    6.288492   5.267876   5.470100   4.712830   3.414662
    42  H    4.407775   3.060556   2.876739   2.766758   2.766511
    43  H    6.088919   4.405947   3.830276   3.006661   2.881072
    44  H    7.016540   5.066004   3.841282   4.039061   5.528845
    45  H    8.981608   7.041455   5.731650   5.592837   6.987704
    46  H    9.226769   7.481802   6.261046   6.047745   7.246541
    47  H    7.600422   6.179614   5.220053   5.176205   6.151904
    48  H    5.139069   3.789323   3.037398   3.455113   4.444232
    49  H    5.205186   4.093176   3.455830   4.603109   5.981087
                   11         12         13         14         15
    11  C    0.000000
    12  C    1.396163   0.000000
    13  C    2.410878   1.394499   0.000000
    14  C    2.774966   2.414038   1.396879   0.000000
    15  C    2.417463   2.806906   2.432491   1.399359   0.000000
    16  C    3.813709   4.333797   3.838144   2.550859   1.527098
    17  C    4.937265   5.135392   4.275741   2.881043   2.522642
    18  N    5.941722   5.963151   4.925843   3.584773   3.556893
    19  C    4.804504   6.115893   6.645812   6.047786   4.723039
    20  C    5.474409   6.790757   7.214637   6.466592   5.071287
    21  C    6.165430   7.526421   8.089205   7.452054   6.078331
    22  C    7.128798   8.439574   8.902412   8.174588   6.816078
    23  C    7.467488   8.688065   8.937300   8.033532   6.697251
    24  C    6.914321   8.066127   8.160109   7.132798   5.801347
    25  C    5.916586   7.105760   7.265348   6.293242   4.915107
    26  C    5.769925   7.062397   7.680903   7.174850   5.911094
    27  H    7.840258   9.081543   9.894738   9.603411   8.441932
    28  H    8.093475   9.268403   9.865761   9.396967   8.242464
    29  H    7.900800   8.984296   9.732526   9.504818   8.490824
    30  H    5.940205   6.944859   7.885907   7.943327   7.086719
    31  H    4.322829   5.462166   6.420192   6.432018   5.504182
    32  H    5.858441   7.069702   8.084699   8.060098   7.026665
    33  H    6.870948   7.797481   8.236977   7.828318   6.909174
    34  H    5.221518   5.732756   5.678344   5.105651   4.530222
    35  H    2.988015   3.754506   4.046726   3.673331   2.897507
    36  H    3.329660   4.522646   4.835960   4.116335   2.764336
    37  H    2.598939   3.980132   4.774396   4.539991   3.406050
    38  H    1.087187   2.151897   3.394979   3.862152   3.400510
    39  H    2.155302   1.085959   2.158658   3.402410   3.892830
    40  H    3.400106   2.159060   1.085814   2.153087   3.411716
    41  H    3.860773   3.395708   2.150866   1.085810   2.153164
    42  H    4.111443   4.827163   4.509505   3.321179   2.165251
    43  H    4.177731   4.813733   4.426790   3.218572   2.168328
    44  H    6.194117   7.584784   8.315316   7.843029   6.511855
    45  H    7.818106   9.134614   9.680696   9.033238   7.702188
    46  H    8.362891   9.541114   9.738107   8.804980   7.514177
    47  H    7.476065   8.522014   8.445164   7.302873   6.051989
    48  H    5.772895   6.852249   6.856838   5.786878   4.460825
    49  H    6.744831   8.065592   8.668579   8.100381   6.789347
                   16         17         18         19         20
    16  C    0.000000
    17  C    1.464736   0.000000
    18  N    2.625903   1.161226   0.000000
    19  C    4.544789   5.823897   6.886403   0.000000
    20  C    4.595036   5.843717   6.888220   1.502205   0.000000
    21  C    5.713237   7.004008   8.063807   2.530149   1.403618
    22  C    6.271718   7.452639   8.445199   3.817398   2.437518
    23  C    5.878387   6.867599   7.750791   4.323664   2.821812
    24  C    4.797317   5.677264   6.516342   3.814308   2.438324
    25  C    4.042236   5.076706   6.016679   2.527489   1.405958
    26  C    5.779312   6.988198   8.002857   1.357206   2.444827
    27  H    8.471600   9.659317  10.645728   4.073007   4.947881
    28  H    8.052429   9.055246   9.926372   4.028059   4.925300
    29  H    8.608632   9.665541  10.569383   4.705710   5.887482
    30  H    7.614140   8.789846   9.777544   4.243932   5.631882
    31  H    6.096120   7.369231   8.423491   3.035504   4.396838
    32  H    7.457067   8.781516   9.858720   3.527030   4.637265
    33  H    6.885847   7.703705   8.473245   4.062722   5.366143
    34  H    4.542596   4.963659   5.554543   4.532904   5.661026
    35  H    3.464048   4.426366   5.355887   3.461947   4.593665
    36  H    2.678982   4.119280   5.269204   2.731576   2.573739
    37  H    3.973604   5.428868   6.586676   2.806507   3.189228
    38  H    4.678457   5.905130   6.949627   4.689804   5.433067
    39  H    5.419657   6.194130   6.978345   6.883924   7.624985
    40  H    4.702900   4.886624   5.335835   7.712855   8.292251
    41  H    2.750854   2.493057   2.875809   6.787815   7.118527
    42  H    1.096395   2.076793   3.131436   3.760452   3.923112
    43  H    1.098238   2.077711   3.133584   4.593665   4.303286
    44  H    6.369943   7.732663   8.831603   2.728753   2.152978
    45  H    7.245100   8.446946   9.445949   4.682992   3.416952
    46  H    6.631166   7.511049   8.317255   5.409659   3.907848
    47  H    4.847731   5.469008   6.156569   4.679129   3.418492
    48  H    3.427848   4.306585   5.185572   2.725882   2.157221
    49  H    6.506669   7.683223   8.672436   2.084804   2.560416
                   21         22         23         24         25
    21  C    0.000000
    22  C    1.398281   0.000000
    23  C    2.422829   1.396452   0.000000
    24  C    2.789129   2.414806   1.398740   0.000000
    25  C    2.411457   2.787606   2.421861   1.395851   0.000000
    26  C    3.102813   4.412688   5.078763   4.707093   3.510805
    27  H    5.054083   6.226875   7.151134   7.079945   6.075289
    28  H    5.408531   6.522877   7.144177   6.788017   5.727905
    29  H    6.327179   7.586298   8.364784   8.042912   6.870036
    30  H    6.081446   7.469466   8.344608   8.030883   6.760519
    31  H    4.912264   6.299590   7.118801   6.780739   5.516829
    32  H    4.738371   6.079274   7.123087   7.062461   5.947892
    33  H    6.320317   7.568985   7.983519   7.256876   5.946423
    34  H    6.973494   8.086985   8.113017   7.022344   5.708773
    35  H    5.742634   6.903385   7.117934   6.234198   4.920680
    36  H    3.361354   4.094163   4.194731   3.592576   2.728489
    37  H    3.625863   4.643379   5.206177   4.915275   3.967660
    38  H    5.944301   6.980704   7.516964   7.126619   6.115004
    39  H    8.269110   9.214641   9.563002   9.019835   8.051844
    40  H    9.170876   9.963576   9.965365   9.169516   8.302439
    41  H    8.161453   8.792515   8.496757   7.503455   6.754774
    42  H    5.181742   5.848330   5.492004   4.322862   3.370084
    43  H    5.254547   5.611144   5.125745   4.139975   3.643525
    44  H    1.086332   2.156862   3.406006   3.875449   3.396257
    45  H    2.154118   1.086382   2.156875   3.401807   3.873966
    46  H    3.408236   2.158444   1.086037   2.159717   3.406642
    47  H    3.875511   3.401362   2.158823   1.086462   2.152888
    48  H    3.397335   3.874338   3.404531   2.152643   1.086982
    49  H    2.897703   4.048699   4.758359   4.559475   3.578315
                   26         27         28         29         30
    26  C    0.000000
    27  H    2.756146   0.000000
    28  H    2.730545   1.774572   0.000000
    29  H    3.452014   1.772259   1.772988   0.000000
    30  H    3.487238   3.073989   3.745831   2.512637   0.000000
    31  H    2.826863   3.756023   4.349308   3.755132   1.769869
    32  H    2.798751   2.513245   3.748272   3.079022   1.777406
    33  H    3.275505   3.666086   2.579712   2.551994   3.278850
    34  H    4.789715   6.554913   5.659689   5.777806   5.237879
    35  H    4.122504   6.228611   5.922502   5.889483   4.550911
    36  H    4.074674   6.695072   6.741699   7.267062   6.180527
    37  H    3.867152   6.076458   6.504127   6.642080   5.106339
    38  H    5.510655   7.322964   7.796202   7.463098   5.348095
    39  H    7.731988   9.534065   9.847040   9.389599   7.182604
    40  H    8.723531  10.886415  10.835783  10.640715   8.750321
    41  H    7.925844  10.415917  10.072774  10.271189   8.842780
    42  H    4.912241   7.597500   7.056327   7.698137   6.926874
    43  H    5.910173   8.648777   8.334715   8.999867   8.048073
    44  H    2.996445   4.496819   5.192492   5.889766   5.522632
    45  H    5.139536   6.605431   7.105532   8.105825   7.989186
    46  H    6.137126   8.101973   8.098656   9.370228   9.405832
    47  H    5.583521   7.986874   7.529164   8.851593   8.906920
    48  H    3.704305   6.347469   5.750992   6.875189   6.783579
    49  H    1.090010   2.533391   2.511540   3.620278   4.195839
                   31         32         33         34         35
    31  H    0.000000
    32  H    1.773887   0.000000
    33  H    3.752493   4.207728   0.000000
    34  H    4.679718   6.086013   3.404890   0.000000
    35  H    3.322366   4.982539   4.214183   2.309577   0.000000
    36  H    4.511390   5.493570   6.284675   5.249509   3.503594
    37  H    3.349511   4.342331   6.079521   5.497440   3.384302
    38  H    3.742384   5.149729   6.775783   5.652107   3.368402
    39  H    5.813665   7.370290   8.367523   6.470091   4.528468
    40  H    7.360213   9.047198   9.089562   6.382931   4.958111
    41  H    7.379557   9.009562   8.427223   5.460461   4.414439
    42  H    5.522638   6.813301   5.917311   3.777627   2.970861
    43  H    6.452768   7.650922   7.478577   5.469738   4.249131
    44  H    4.453609   3.999196   6.264749   7.251938   5.906720
    45  H    6.885440   6.456771   8.364896   9.073995   7.806380
    46  H    8.184547   8.138525   9.023635   9.113798   8.141691
    47  H    7.658712   8.044524   7.853518   7.327622   6.733256
    48  H    5.579390   6.245588   5.563049   4.904602   4.406295
    49  H    3.769089   3.302087   3.841808   5.677095   5.169729
                   36         37         38         39         40
    36  H    0.000000
    37  H    1.734255   0.000000
    38  H    3.603121   2.349218   0.000000
    39  H    5.439160   4.651888   2.476330   0.000000
    40  H    5.901708   5.838315   4.298391   2.496611   0.000000
    41  H    4.841818   5.498765   4.947958   4.297588   2.471235
    42  H    2.553324   3.856804   4.837563   5.892249   5.422476
    43  H    2.359775   3.888013   4.941924   5.876463   5.303594
    44  H    3.854874   3.611364   5.786758   8.214380   9.394940
    45  H    4.957400   5.290095   7.568205   9.841385  10.735057
    46  H    5.105270   6.153697   8.434385  10.417277  10.738345
    47  H    4.216374   5.718363   7.815138   9.524164   9.400392
    48  H    2.857379   4.225969   6.120079   7.848079   7.854732
    49  H    4.714867   4.641571   6.465835   8.746372   9.723881
                   41         42         43         44         45
    41  H    0.000000
    42  H    3.597627   0.000000
    43  H    3.433442   1.753483   0.000000
    44  H    8.648067   5.850506   5.989088   0.000000
    45  H    9.686779   6.877475   6.541212   2.478740   0.000000
    46  H    9.204491   6.331688   5.788108   4.304352   2.488913
    47  H    7.520376   4.439897   4.161375   4.961841   4.302839
    48  H    6.146063   2.602246   3.248549   4.295213   4.960689
    49  H    8.815877   5.620201   6.518430   2.794383   4.685756
                   46         47         48         49
    46  H    0.000000
    47  H    2.489775   0.000000
    48  H    4.301532   2.474110   0.000000
    49  H    5.751207   5.453787   3.942219   0.000000
 Stoichiometry    C24H23NO
 Framework group  C1[X(C24H23NO)]
 Deg. of freedom   141
 Full point group                 C1      NOp   1
 Largest Abelian subgroup         C1      NOp   1
 Largest concise Abelian subgroup C1      NOp   1
                         Standard orientation:                         
 ---------------------------------------------------------------------
 Center     Atomic      Atomic             Coordinates (Angstroms)
 Number     Number       Type             X           Y           Z
 ---------------------------------------------------------------------
      1          6           0        4.431707   -2.431054    0.388383
      2          6           0        2.962791   -2.072632    0.079401
      3          6           0        2.588318   -2.706415   -1.283305
      4          6           0        2.089756   -2.578181    1.214699
      5          6           0        0.761176   -2.354922    1.317592
      6          8           0        0.076710   -3.032252    2.315514
      7          6           0       -0.044191   -1.522588    0.442529
      8          6           0        0.342851   -0.397847   -0.222546
      9          6           0       -0.638110    0.339913   -1.142001
     10          6           0       -2.068782   -0.158168   -1.170184
     11          6           0       -2.469722   -1.041293   -2.181945
     12          6           0       -3.776659   -1.527052   -2.254224
     13          6           0       -4.712515   -1.125560   -1.301541
     14          6           0       -4.333816   -0.241914   -0.288117
     15          6           0       -3.024366    0.245708   -0.212142
     16          6           0       -2.608329    1.231667    0.877273
     17          6           0       -3.602605    1.442355    1.932013
     18          7           0       -4.380180    1.617167    2.776563
     19          6           0        1.697306    0.175245   -0.123019
     20          6           0        1.842836    1.669437   -0.176217
     21          6           0        2.620833    2.286116   -1.168473
     22          6           0        2.784129    3.674605   -1.193450
     23          6           0        2.171243    4.471660   -0.224351
     24          6           0        1.396629    3.870555    0.773206
     25          6           0        1.234004    2.484370    0.794312
     26          6           0        2.825782   -0.556857    0.057474
     27          1           0        5.096988   -2.051355   -0.394677
     28          1           0        4.751012   -2.002957    1.345169
     29          1           0        4.558789   -3.517297    0.443331
     30          1           0        2.707749   -3.794366   -1.233043
     31          1           0        1.554925   -2.492793   -1.563708
     32          1           0        3.245743   -2.323024   -2.072618
     33          1           0        2.552265   -3.190326    1.985935
     34          1           0       -0.758238   -2.585191    2.503293
     35          1           0       -1.083793   -1.832830    0.344100
     36          1           0       -0.612745    1.407866   -0.901362
     37          1           0       -0.230492    0.277742   -2.160069
     38          1           0       -1.739376   -1.352388   -2.924771
     39          1           0       -4.058718   -2.211111   -3.049091
     40          1           0       -5.733642   -1.492416   -1.342875
     41          1           0       -5.065391    0.070520    0.450913
     42          1           0       -1.683134    0.894167    1.359134
     43          1           0       -2.381763    2.212128    0.437397
     44          1           0        3.093388    1.670679   -1.928767
     45          1           0        3.388789    4.131376   -1.971892
     46          1           0        2.297738    5.550155   -0.242336
     47          1           0        0.928026    4.480477    1.540543
     48          1           0        0.650748    2.022387    1.586722
     49          1           0        3.747112    0.003512    0.216408
 ---------------------------------------------------------------------
 Rotational constants (GHZ):           0.2316863           0.1601058           0.1217425
 Standard basis: 6-31+G(d,p) (6D, 7F)
 There are   609 symmetry adapted cartesian basis functions of A   symmetry.
 There are   609 symmetry adapted basis functions of A   symmetry.
   609 basis functions,   993 primitive gaussians,   609 cartesian basis functions
    91 alpha electrons       91 beta electrons
       nuclear repulsion energy      2185.7416387194 Hartrees.
 NAtoms=   49 NActive=   49 NUniq=   49 SFac= 1.00D+00 NAtFMM=   60 NAOKFM=F Big=F
 Integral buffers will be    131072 words long.
 Regular integral format.
 Two-electron integral symmetry is turned on.
 One-electron integrals computed using PRISM.
 NBasis=   609 RedAO= T EigKep=  1.03D-06  NBF=   609
 NBsUse=   605 1.00D-06 EigRej=  9.34D-07 NBFU=   605
 ExpMin= 4.38D-02 ExpMax= 5.48D+03 ExpMxC= 8.25D+02 IAcc=3 IRadAn=         5 AccDes= 0.00D+00
 Harris functional with IExCor=  402 and IRadAn=       5 diagonalized for initial guess.
 HarFok:  IExCor=  402 AccDes= 0.00D+00 IRadAn=         5 IDoV= 1 UseB2=F ITyADJ=14
 ICtDFT=  3500011 ScaDFX=  1.000000  1.000000  1.000000  1.000000
 FoFCou: FMM=F IPFlag=           0 FMFlag=      100000 FMFlg1=           0
         NFxFlg=           0 DoJE=T BraDBF=F KetDBF=T FulRan=T
         wScrn=  0.000000 ICntrl=       500 IOpCl=  0 I1Cent=   200000004 NGrid=           0
         NMat0=    1 NMatS0=      1 NMatT0=    0 NMatD0=    1 NMtDS0=    0 NMtDT0=    0
 Petite list used in FoFCou.
 Requested convergence on RMS density matrix=1.00D-08 within 128 cycles.
 Requested convergence on MAX density matrix=1.00D-06.
 Requested convergence on             energy=1.00D-06.
 No special actions if energy rises.
 SCF Done:  E(RB3LYP) =  -1058.39642850     A.U. after   17 cycles
            NFock= 17  Conv=0.48D-08     -V/T= 2.0098
 DoSCS=F DFT=T ScalE2(SS,OS)=  1.000000  1.000000
 ExpMin= 4.38D-02 ExpMax= 5.48D+03 ExpMxC= 8.25D+02 IAcc=3 IRadAn=         5 AccDes= 0.00D+00
 HarFok:  IExCor=  205 AccDes= 0.00D+00 IRadAn=         5 IDoV=-2 UseB2=F ITyADJ=14
 ICtDFT= 12500011 ScaDFX=  1.000000  1.000000  1.000000  1.000000
 GSVD:  LWork=        -884 too small for GESVD, short by        3770 words or        3770 for optimal perf.
 Range of M.O.s used for correlation:    27   605
 NBasis=   609 NAE=    91 NBE=    91 NFC=    26 NFV=     0
 NROrb=    579 NOA=    65 NOB=    65 NVA=   514 NVB=   514

 **** Warning!!: The largest alpha MO coefficient is  0.16372560D+03

 Orbital symmetries:
       Occupied  (A) (A) (A) (A) (A) (A) (A) (A) (A) (A) (A) (A)
                 (A) (A) (A) (A) (A) (A) (A) (A) (A) (A) (A) (A)
                 (A) (A) (A) (A) (A) (A) (A) (A) (A) (A) (A) (A)
                 (A) (A) (A) (A) (A) (A) (A) (A) (A) (A) (A) (A)
                 (A) (A) (A) (A) (A) (A) (A) (A) (A) (A) (A) (A)
                 (A) (A) (A) (A) (A) (A) (A) (A) (A) (A) (A) (A)
                 (A) (A) (A) (A) (A) (A) (A) (A) (A) (A) (A) (A)
                 (A) (A) (A) (A) (A) (A) (A)
       Virtual   (A) (A) (A) (A) (A) (A) (A) (A) (A) (A) (A) (A)
                 (A) (A) (A) (A) (A) (A) (A) (A) (A) (A) (A) (A)
                 (A) (A) (A) (A) (A) (A) (A) (A) (A) (A) (A) (A)
                 (A) (A) (A) (A) (A) (A) (A) (A) (A) (A) (A) (A)
                 (A) (A) (A) (A) (A) (A) (A) (A) (A) (A) (A) (A)
                 (A) (A) (A) (A) (A) (A) (A) (A) (A) (A) (A) (A)
                 (A) (A) (A) (A) (A) (A) (A) (A) (A) (A) (A) (A)
                 (A) (A) (A) (A) (A) (A) (A) (A) (A) (A) (A) (A)
                 (A) (A) (A) (A) (A) (A) (A) (A) (A) (A) (A) (A)
                 (A) (A) (A) (A) (A) (A) (A) (A) (A) (A) (A) (A)
                 (A) (A) (A) (A) (A) (A) (A) (A) (A) (A) (A) (A)
                 (A) (A) (A) (A) (A) (A) (A) (A) (A) (A) (A) (A)
                 (A) (A) (A) (A) (A) (A) (A) (A) (A) (A) (A) (A)
                 (A) (A) (A) (A) (A) (A) (A) (A) (A) (A) (A) (A)
                 (A) (A) (A) (A) (A) (A) (A) (A) (A) (A) (A) (A)
                 (A) (A) (A) (A) (A) (A) (A) (A) (A) (A) (A) (A)
                 (A) (A) (A) (A) (A) (A) (A) (A) (A) (A) (A) (A)
                 (A) (A) (A) (A) (A) (A) (A) (A) (A) (A) (A) (A)
                 (A) (A) (A) (A) (A) (A) (A) (A) (A) (A) (A) (A)
                 (A) (A) (A) (A) (A) (A) (A) (A) (A) (A) (A) (A)
                 (A) (A) (A) (A) (A) (A) (A) (A) (A) (A) (A) (A)
                 (A) (A) (A) (A) (A) (A) (A) (A) (A) (A) (A) (A)
                 (A) (A) (A) (A) (A) (A) (A) (A) (A) (A) (A) (A)
                 (A) (A) (A) (A) (A) (A) (A) (A) (A) (A) (A) (A)
                 (A) (A) (A) (A) (A) (A) (A) (A) (A) (A) (A) (A)
                 (A) (A) (A) (A) (A) (A) (A) (A) (A) (A) (A) (A)
                 (A) (A) (A) (A) (A) (A) (A) (A) (A) (A) (A) (A)
                 (A) (A) (A) (A) (A) (A) (A) (A) (A) (A) (A) (A)
                 (A) (A) (A) (A) (A) (A) (A) (A) (A) (A) (A) (A)
                 (A) (A) (A) (A) (A) (A) (A) (A) (A) (A) (A) (A)
                 (A) (A) (A) (A) (A) (A) (A) (A) (A) (A) (A) (A)
                 (A) (A) (A) (A) (A) (A) (A) (A) (A) (A) (A) (A)
                 (A) (A) (A) (A) (A) (A) (A) (A) (A) (A) (A) (A)
                 (A) (A) (A) (A) (A) (A) (A) (A) (A) (A) (A) (A)
                 (A) (A) (A) (A) (A) (A) (A) (A) (A) (A) (A) (A)
                 (A) (A) (A) (A) (A) (A) (A) (A) (A) (A) (A) (A)
                 (A) (A) (A) (A) (A) (A) (A) (A) (A) (A) (A) (A)
                 (A) (A) (A) (A) (A) (A) (A) (A) (A) (A) (A) (A)
                 (A) (A) (A) (A) (A) (A) (A) (A) (A) (A) (A) (A)
                 (A) (A) (A) (A) (A) (A) (A) (A) (A) (A) (A) (A)
                 (A) (A) (A) (A) (A) (A) (A) (A) (A) (A) (A) (A)
                 (A) (A) (A) (A) (A) (A) (A) (A) (A) (A) (A) (A)
                 (A) (A) (A) (A) (A) (A) (A) (A) (A) (A)
    24 initial guesses have been made.
 Convergence on wavefunction:    0.001000000000000
 Iteration     1 Dimension    24 NMult     0 NNew     24
 CISAX will form    24 AO SS matrices at one time.
 New state      1 was old state      2
 New state      2 was old state      4
 New state      3 was old state      1
 New state      4 was old state      6
 New state      6 was old state      8
 New state      7 was old state     18
 New state      8 was old state      7
 New state      9 was old state     10
 New state     10 was old state      9
 New state     11 was old state     12
 New state     12 was old state     11
 Vector   6 SDiff=1.16D+01 TDiff=5.57D+01 assumed to be singlet.
 Vector  12 SDiff=1.04D+01 TDiff=3.94D+01 assumed to be singlet.
 Iteration     2 Dimension    36 NMult    24 NNew     12
 New state      5 was old state      8
 New state      6 was old state      5
 Iteration     3 Dimension    48 NMult    36 NNew     12
 New state      3 was old state      4
 New state      4 was old state      3
 Iteration     4 Dimension    60 NMult    48 NNew     12
 Iteration     5 Dimension    72 NMult    60 NNew     12
 Iteration     6 Dimension    82 NMult    72 NNew     10
 Iteration     7 Dimension    90 NMult    82 NNew      8
 Iteration     8 Dimension    94 NMult    90 NNew      4
 Iteration     9 Dimension    96 NMult    94 NNew      2
 Iteration    10 Dimension    98 NMult    96 NNew      2
 Iteration    11 Dimension   100 NMult    98 NNew      2
 Iteration    12 Dimension   102 NMult   100 NNew      2
 ***********************************************************************
 Excited states from <AA,BB:AA,BB> singles matrix:
 ***********************************************************************
 
 Ground to excited state transition densities written to RWF  633
 Ground to excited state transition electric dipole moments (Au):
       state          X           Y           Z        Dip. S.      Osc.
         1        -0.0000      0.0000      0.0000      0.0000      0.0000
         2         0.0000     -0.0000     -0.0000      0.0000      0.0000
         3        -0.0000      0.0000     -0.0000      0.0000      0.0000
         4        -0.1779      0.6349     -0.3802      0.5794      0.0557
         5         0.2881      0.2119     -0.1503      0.1505      0.0162
         6        -0.2833      0.1305     -0.0091      0.0974      0.0109
 Ground to excited state transition velocity dipole moments (Au):
       state          X           Y           Z        Dip. S.      Osc.
         1        -0.0000     -0.0000     -0.0000      0.0000      0.0000
         2         0.0000      0.0000      0.0000      0.0000      0.0000
         3         0.0000     -0.0000     -0.0000      0.0000      0.0000
         4         0.0272     -0.0890      0.0576      0.0120      0.0554
         5        -0.0464     -0.0336      0.0206      0.0037      0.0153
         6         0.0480     -0.0225     -0.0009      0.0028      0.0112
 Ground to excited state transition magnetic dipole moments (Au):
       state          X           Y           Z
         1        -0.0000     -0.0000     -0.0000
         2         0.0000     -0.0000      0.0000
         3         0.0000     -0.0000      0.0000
         4        -0.0299      0.1099      0.3241
         5         0.2004      0.2841      0.4329
         6        -0.1670     -0.0184     -0.2148
 Ground to excited state transition velocity quadrupole moments (Au):
       state          XX          YY          ZZ          XY          XZ          YZ
         1        -0.0000      0.0000      0.0000      0.0000      0.0000     -0.0000
         2         0.0000     -0.0000      0.0000      0.0000     -0.0000      0.0000
         3         0.0000      0.0000      0.0000     -0.0000      0.0000      0.0000
         4        -0.1388      0.3082      0.0826     -0.3864      0.1429     -0.2707
         5        -0.2641      0.1488      0.0644     -0.0658      0.0705      0.0053
         6         0.2216     -0.0895      0.0219     -0.1440      0.0325      0.0214
 <0|del|b> * <b|rxdel|0> + <0|del|b> * <b|delr+rdel|0>
 Rotatory Strengths (R) in cgs (10**-40 erg-esu-cm/Gauss)
       state          XX          YY          ZZ    R(velocity)    E-M Angle
         1         0.0000      0.0000     -0.0000      0.0000       90.00
         2         0.0000      0.0000     -0.0000      0.0000       90.00
         3         0.0000     -0.0000      0.0000     -0.0000       90.00
         4        -1.6044     80.3936    -39.0737     13.2385       77.57
         5         0.8018      1.5267    -45.8546    -14.5087      107.13
         6         3.0997    -14.5836    -19.7065    -10.3968      120.81
 1/2[<0|r|b>*<b|rxdel|0> + (<0|rxdel|b>*<b|r|0>)*]
 Rotatory Strengths (R) in cgs (10**-40 erg-esu-cm/Gauss)
       state          XX          YY          ZZ     R(length)
         1        -0.0000      0.0000      0.0000      0.0000
         2        -0.0000     -0.0000      0.0000      0.0000
         3         0.0000      0.0000      0.0000      0.0000
         4        -3.7593    -49.3269     87.1364     11.3501
         5       -40.8427    -42.5810     46.0059    -12.4726
         6       -33.4541      1.7015     -1.3769    -11.0432
  1/2[<0|del|b>*<b|r|0> + (<0|r|b>*<b|del|0>)*] (Au)
       state          X           Y           Z        Dip. S.   Osc.(frdel)
         1         0.0000     -0.0000     -0.0000      0.0000      0.0000
         2         0.0000     -0.0000     -0.0000      0.0000      0.0000
         3        -0.0000     -0.0000      0.0000      0.0000      0.0000
         4        -0.0048     -0.0565     -0.0219      0.0832      0.0555
         5        -0.0134     -0.0071     -0.0031      0.0236      0.0157
         6        -0.0136     -0.0029      0.0000      0.0165      0.0110

 Excitation energies and oscillator strengths:
 
 Excited State   1:      Triplet-A      2.5630 eV  483.75 nm  f=0.0000  <S**2>=2.000
      90 -> 92         0.13694
      91 -> 92         0.63663
      91 -> 94         0.13310
 This state for optimization and/or second-order correction.
 Total Energy, E(TD-HF/TD-DFT) =  -1058.30224023    
 Copying the excited state density for this state as the 1-particle RhoCI density.
 
 Excited State   2:      Triplet-A      3.2240 eV  384.57 nm  f=0.0000  <S**2>=2.000
      86 -> 92        -0.14798
      89 -> 92         0.10959
      90 -> 92         0.58715
      90 -> 93        -0.11027
      91 -> 92        -0.13157
      91 -> 94        -0.10976
 
 Excited State   3:      Triplet-A      3.6755 eV  337.33 nm  f=0.0000  <S**2>=2.000
      86 -> 92        -0.13309
      86 -> 93         0.14180
      86 -> 94         0.20751
      87 -> 95         0.27696
      88 -> 96        -0.30200
      89 -> 93        -0.24481
      89 -> 94         0.21166
      90 -> 93         0.27189
      90 -> 94         0.11996
 
 Excited State   4:      Singlet-A      3.9211 eV  316.20 nm  f=0.0557  <S**2>=0.000
      91 -> 92         0.68753
 
 Excited State   5:      Singlet-A      4.4039 eV  281.53 nm  f=0.0162  <S**2>=0.000
      90 -> 92         0.60110
      91 -> 92         0.10079
      91 -> 93         0.22288
      91 -> 94         0.21324
 
 Excited State   6:      Singlet-A      4.5654 eV  271.58 nm  f=0.0109  <S**2>=0.000
      90 -> 92        -0.19009
      91 -> 93         0.66535
      91 -> 94        -0.10478
 SavETr:  write IOETrn=   770 NScale= 10 NData=  16 NLR=1 NState=    6 LETran=     118.

 **********************************************************************

            Population analysis using the SCF Density.

 **********************************************************************

 Orbital symmetries:
       Occupied  (A) (A) (A) (A) (A) (A) (A) (A) (A) (A) (A) (A)
                 (A) (A) (A) (A) (A) (A) (A) (A) (A) (A) (A) (A)
                 (A) (A) (A) (A) (A) (A) (A) (A) (A) (A) (A) (A)
                 (A) (A) (A) (A) (A) (A) (A) (A) (A) (A) (A) (A)
                 (A) (A) (A) (A) (A) (A) (A) (A) (A) (A) (A) (A)
                 (A) (A) (A) (A) (A) (A) (A) (A) (A) (A) (A) (A)
                 (A) (A) (A) (A) (A) (A) (A) (A) (A) (A) (A) (A)
                 (A) (A) (A) (A) (A) (A) (A)
       Virtual   (A) (A) (A) (A) (A) (A) (A) (A) (A) (A) (A) (A)
                 (A) (A) (A) (A) (A) (A) (A) (A) (A) (A) (A) (A)
                 (A) (A) (A) (A) (A) (A) (A) (A) (A) (A) (A) (A)
                 (A) (A) (A) (A) (A) (A) (A) (A) (A) (A) (A) (A)
                 (A) (A) (A) (A) (A) (A) (A) (A) (A) (A) (A) (A)
                 (A) (A) (A) (A) (A) (A) (A) (A) (A) (A) (A) (A)
                 (A) (A) (A) (A) (A) (A) (A) (A) (A) (A) (A) (A)
                 (A) (A) (A) (A) (A) (A) (A) (A) (A) (A) (A) (A)
                 (A) (A) (A) (A) (A) (A) (A) (A) (A) (A) (A) (A)
                 (A) (A) (A) (A) (A) (A) (A) (A) (A) (A) (A) (A)
                 (A) (A) (A) (A) (A) (A) (A) (A) (A) (A) (A) (A)
                 (A) (A) (A) (A) (A) (A) (A) (A) (A) (A) (A) (A)
                 (A) (A) (A) (A) (A) (A) (A) (A) (A) (A) (A) (A)
                 (A) (A) (A) (A) (A) (A) (A) (A) (A) (A) (A) (A)
                 (A) (A) (A) (A) (A) (A) (A) (A) (A) (A) (A) (A)
                 (A) (A) (A) (A) (A) (A) (A) (A) (A) (A) (A) (A)
                 (A) (A) (A) (A) (A) (A) (A) (A) (A) (A) (A) (A)
                 (A) (A) (A) (A) (A) (A) (A) (A) (A) (A) (A) (A)
                 (A) (A) (A) (A) (A) (A) (A) (A) (A) (A) (A) (A)
                 (A) (A) (A) (A) (A) (A) (A) (A) (A) (A) (A) (A)
                 (A) (A) (A) (A) (A) (A) (A) (A) (A) (A) (A) (A)
                 (A) (A) (A) (A) (A) (A) (A) (A) (A) (A) (A) (A)
                 (A) (A) (A) (A) (A) (A) (A) (A) (A) (A) (A) (A)
                 (A) (A) (A) (A) (A) (A) (A) (A) (A) (A) (A) (A)
                 (A) (A) (A) (A) (A) (A) (A) (A) (A) (A) (A) (A)
                 (A) (A) (A) (A) (A) (A) (A) (A) (A) (A) (A) (A)
                 (A) (A) (A) (A) (A) (A) (A) (A) (A) (A) (A) (A)
                 (A) (A) (A) (A) (A) (A) (A) (A) (A) (A) (A) (A)
                 (A) (A) (A) (A) (A) (A) (A) (A) (A) (A) (A) (A)
                 (A) (A) (A) (A) (A) (A) (A) (A) (A) (A) (A) (A)
                 (A) (A) (A) (A) (A) (A) (A) (A) (A) (A) (A) (A)
                 (A) (A) (A) (A) (A) (A) (A) (A) (A) (A) (A) (A)
                 (A) (A) (A) (A) (A) (A) (A) (A) (A) (A) (A) (A)
                 (A) (A) (A) (A) (A) (A) (A) (A) (A) (A) (A) (A)
                 (A) (A) (A) (A) (A) (A) (A) (A) (A) (A) (A) (A)
                 (A) (A) (A) (A) (A) (A) (A) (A) (A) (A) (A) (A)
                 (A) (A) (A) (A) (A) (A) (A) (A) (A) (A) (A) (A)
                 (A) (A) (A) (A) (A) (A) (A) (A) (A) (A) (A) (A)
                 (A) (A) (A) (A) (A) (A) (A) (A) (A) (A) (A) (A)
                 (A) (A) (A) (A) (A) (A) (A) (A) (A) (A) (A) (A)
                 (A) (A) (A) (A) (A) (A) (A) (A) (A) (A) (A) (A)
                 (A) (A) (A) (A) (A) (A) (A) (A) (A) (A) (A) (A)
                 (A) (A) (A) (A) (A) (A) (A) (A) (A) (A)
 The electronic state is 1-A.
 Alpha  occ. eigenvalues --  -19.18510 -14.35074 -10.25440 -10.25323 -10.24452
 Alpha  occ. eigenvalues --  -10.22938 -10.22701 -10.22091 -10.21815 -10.21650
 Alpha  occ. eigenvalues --  -10.21436 -10.21255 -10.20989 -10.20966 -10.20925
 Alpha  occ. eigenvalues --  -10.20890 -10.20842 -10.20779 -10.20750 -10.20703
 Alpha  occ. eigenvalues --  -10.20689 -10.20614 -10.20590 -10.18906 -10.18450
 Alpha  occ. eigenvalues --  -10.18055  -1.05948  -0.92039  -0.88781  -0.87825
 Alpha  occ. eigenvalues --   -0.85705  -0.82460  -0.81359  -0.79371  -0.78018
 Alpha  occ. eigenvalues --   -0.76046  -0.74798  -0.73902  -0.72421  -0.70061
 Alpha  occ. eigenvalues --   -0.69173  -0.64745  -0.63012  -0.62569  -0.61763
 Alpha  occ. eigenvalues --   -0.60334  -0.59546  -0.55538  -0.54346  -0.53446
 Alpha  occ. eigenvalues --   -0.53370  -0.51901  -0.50607  -0.48559  -0.48178
 Alpha  occ. eigenvalues --   -0.47693  -0.46762  -0.46275  -0.45567  -0.45084
 Alpha  occ. eigenvalues --   -0.44983  -0.44426  -0.43858  -0.43457  -0.42904
 Alpha  occ. eigenvalues --   -0.42667  -0.41849  -0.40700  -0.39534  -0.38987
 Alpha  occ. eigenvalues --   -0.38524  -0.37644  -0.37521  -0.37412  -0.37161
 Alpha  occ. eigenvalues --   -0.36442  -0.36332  -0.35928  -0.35736  -0.35062
 Alpha  occ. eigenvalues --   -0.34160  -0.34007  -0.33751  -0.33079  -0.30851
 Alpha  occ. eigenvalues --   -0.27069  -0.26980  -0.26838  -0.26354  -0.24400
 Alpha  occ. eigenvalues --   -0.22332
 Alpha virt. eigenvalues --   -0.05687  -0.03478  -0.03146  -0.02915  -0.02557
 Alpha virt. eigenvalues --   -0.01458  -0.00312  -0.00064   0.00325   0.00623
 Alpha virt. eigenvalues --    0.01260   0.01439   0.01640   0.01840   0.02347
 Alpha virt. eigenvalues --    0.02963   0.03309   0.03751   0.03951   0.04119
 Alpha virt. eigenvalues --    0.04358   0.04706   0.05153   0.05458   0.05753
 Alpha virt. eigenvalues --    0.05856   0.06553   0.06776   0.06978   0.07235
 Alpha virt. eigenvalues --    0.07500   0.08216   0.08486   0.08811   0.09101
 Alpha virt. eigenvalues --    0.09299   0.09467   0.09826   0.10308   0.10726
 Alpha virt. eigenvalues --    0.11033   0.11258   0.11443   0.11675   0.12145
 Alpha virt. eigenvalues --    0.12308   0.12723   0.13220   0.13264   0.13525
 Alpha virt. eigenvalues --    0.13785   0.13928   0.14024   0.14833   0.15051
 Alpha virt. eigenvalues --    0.15330   0.15376   0.15638   0.15704   0.15947
 Alpha virt. eigenvalues --    0.16245   0.16709   0.17055   0.17333   0.17482
 Alpha virt. eigenvalues --    0.17645   0.18274   0.18547   0.18793   0.19075
 Alpha virt. eigenvalues --    0.19197   0.19285   0.19463   0.19811   0.20133
 Alpha virt. eigenvalues --    0.20332   0.20596   0.21016   0.21283   0.21663
 Alpha virt. eigenvalues --    0.21714   0.21911   0.22201   0.22370   0.22722
 Alpha virt. eigenvalues --    0.22868   0.23098   0.23216   0.23418   0.23545
 Alpha virt. eigenvalues --    0.23947   0.24313   0.24563   0.24756   0.24897
 Alpha virt. eigenvalues --    0.25425   0.25543   0.25663   0.26108   0.26568
 Alpha virt. eigenvalues --    0.26711   0.27210   0.27303   0.27335   0.27462
 Alpha virt. eigenvalues --    0.27780   0.27987   0.28255   0.28420   0.28621
 Alpha virt. eigenvalues --    0.28822   0.29142   0.29514   0.29711   0.29973
 Alpha virt. eigenvalues --    0.30201   0.30632   0.30926   0.31337   0.31506
 Alpha virt. eigenvalues --    0.31769   0.31869   0.32085   0.32514   0.32762
 Alpha virt. eigenvalues --    0.33050   0.33181   0.33335   0.33598   0.34582
 Alpha virt. eigenvalues --    0.35054   0.35381   0.35596   0.35728   0.36109
 Alpha virt. eigenvalues --    0.36593   0.36623   0.37360   0.37990   0.38534
 Alpha virt. eigenvalues --    0.38639   0.39045   0.39665   0.40499   0.40813
 Alpha virt. eigenvalues --    0.41377   0.42000   0.43272   0.43733   0.45030
 Alpha virt. eigenvalues --    0.45354   0.47017   0.47377   0.48375   0.50555
 Alpha virt. eigenvalues --    0.51509   0.55215   0.56361   0.56411   0.59815
 Alpha virt. eigenvalues --    0.60638   0.61564   0.65903   0.67367   0.67732
 Alpha virt. eigenvalues --    0.68957   0.69151   0.70273   0.70413   0.70440
 Alpha virt. eigenvalues --    0.70732   0.71294   0.71795   0.72349   0.72558
 Alpha virt. eigenvalues --    0.72966   0.73192   0.73565   0.74080   0.74212
 Alpha virt. eigenvalues --    0.74544   0.75084   0.75654   0.75880   0.76323
 Alpha virt. eigenvalues --    0.76809   0.77460   0.78032   0.78422   0.78850
 Alpha virt. eigenvalues --    0.79540   0.80138   0.80309   0.80822   0.81252
 Alpha virt. eigenvalues --    0.82452   0.83073   0.83458   0.83930   0.84093
 Alpha virt. eigenvalues --    0.84949   0.85388   0.86569   0.86989   0.87848
 Alpha virt. eigenvalues --    0.88034   0.88199   0.88841   0.89115   0.89399
 Alpha virt. eigenvalues --    0.90678   0.91330   0.91879   0.92413   0.92814
 Alpha virt. eigenvalues --    0.92918   0.93686   0.93915   0.94964   0.96026
 Alpha virt. eigenvalues --    0.96481   0.97235   0.98510   0.98882   0.99886
 Alpha virt. eigenvalues --    1.00149   1.00330   1.01079   1.01633   1.02547
 Alpha virt. eigenvalues --    1.03196   1.03830   1.05048   1.05662   1.06138
 Alpha virt. eigenvalues --    1.06313   1.06440   1.07066   1.08570   1.08843
 Alpha virt. eigenvalues --    1.09153   1.09633   1.10767   1.11199   1.13385
 Alpha virt. eigenvalues --    1.13755   1.14025   1.14647   1.15598   1.16274
 Alpha virt. eigenvalues --    1.17584   1.17678   1.18595   1.18717   1.20188
 Alpha virt. eigenvalues --    1.20717   1.21904   1.23024   1.23285   1.24004
 Alpha virt. eigenvalues --    1.24127   1.25356   1.26239   1.27038   1.27169
 Alpha virt. eigenvalues --    1.27840   1.28883   1.29736   1.30725   1.31053
 Alpha virt. eigenvalues --    1.31735   1.32359   1.32940   1.33857   1.34944
 Alpha virt. eigenvalues --    1.36445   1.37452   1.37564   1.38794   1.39483
 Alpha virt. eigenvalues --    1.39950   1.40161   1.40627   1.41444   1.41560
 Alpha virt. eigenvalues --    1.43843   1.44558   1.44582   1.45209   1.47064
 Alpha virt. eigenvalues --    1.49328   1.49858   1.51494   1.52265   1.53247
 Alpha virt. eigenvalues --    1.53562   1.56159   1.56816   1.58271   1.59949
 Alpha virt. eigenvalues --    1.61203   1.62504   1.65215   1.67278   1.68166
 Alpha virt. eigenvalues --    1.68936   1.71011   1.71869   1.73023   1.74867
 Alpha virt. eigenvalues --    1.76040   1.76752   1.77177   1.79236   1.80194
 Alpha virt. eigenvalues --    1.81142   1.82708   1.83251   1.84485   1.84634
 Alpha virt. eigenvalues --    1.85887   1.86767   1.87517   1.88562   1.88703
 Alpha virt. eigenvalues --    1.90356   1.90716   1.91758   1.91914   1.92638
 Alpha virt. eigenvalues --    1.92907   1.93231   1.93671   1.93975   1.95062
 Alpha virt. eigenvalues --    1.95313   1.96161   1.97272   1.97562   1.98535
 Alpha virt. eigenvalues --    1.98954   1.99387   1.99950   2.00239   2.01029
 Alpha virt. eigenvalues --    2.01577   2.02232   2.02808   2.03524   2.04160
 Alpha virt. eigenvalues --    2.04589   2.05835   2.06253   2.06870   2.07727
 Alpha virt. eigenvalues --    2.09005   2.09347   2.11501   2.12748   2.13340
 Alpha virt. eigenvalues --    2.13805   2.15106   2.15666   2.16704   2.19129
 Alpha virt. eigenvalues --    2.19429   2.20897   2.21346   2.22860   2.23985
 Alpha virt. eigenvalues --    2.25258   2.26372   2.26656   2.27196   2.28000
 Alpha virt. eigenvalues --    2.28965   2.29099   2.31514   2.31866   2.33091
 Alpha virt. eigenvalues --    2.33521   2.35065   2.35705   2.36135   2.37532
 Alpha virt. eigenvalues --    2.37950   2.38276   2.38494   2.40022   2.40705
 Alpha virt. eigenvalues --    2.41444   2.43197   2.43966   2.44339   2.45138
 Alpha virt. eigenvalues --    2.46307   2.47640   2.48946   2.49396   2.49794
 Alpha virt. eigenvalues --    2.50483   2.51234   2.52751   2.53606   2.54237
 Alpha virt. eigenvalues --    2.54539   2.55006   2.55688   2.56391   2.56923
 Alpha virt. eigenvalues --    2.57482   2.58536   2.59089   2.59274   2.59910
 Alpha virt. eigenvalues --    2.60795   2.61367   2.62693   2.63022   2.64232
 Alpha virt. eigenvalues --    2.64720   2.66546   2.67820   2.69346   2.70327
 Alpha virt. eigenvalues --    2.70750   2.71244   2.72070   2.73368   2.74576
 Alpha virt. eigenvalues --    2.75319   2.75531   2.76223   2.77955   2.79011
 Alpha virt. eigenvalues --    2.79775   2.81707   2.81998   2.84053   2.84804
 Alpha virt. eigenvalues --    2.86738   2.89084   2.89615   2.91059   2.91518
 Alpha virt. eigenvalues --    2.91992   2.93264   2.94080   2.95535   2.97116
 Alpha virt. eigenvalues --    2.99257   3.00909   3.02084   3.04210   3.05802
 Alpha virt. eigenvalues --    3.07128   3.10277   3.12907   3.17428   3.18934
 Alpha virt. eigenvalues --    3.21701   3.23278   3.26360   3.26611   3.28045
 Alpha virt. eigenvalues --    3.28376   3.28957   3.30207   3.31347   3.33533
 Alpha virt. eigenvalues --    3.34521   3.40474   3.40705   3.41933   3.43427
 Alpha virt. eigenvalues --    3.45483   3.46400   3.47222   3.48252   3.49386
 Alpha virt. eigenvalues --    3.50300   3.52611   3.52798   3.54165   3.56758
 Alpha virt. eigenvalues --    3.62051   3.84281   3.88328   4.24837   4.32621
 Alpha virt. eigenvalues --    4.33214   4.34631   4.35464   4.35557   4.38680
 Alpha virt. eigenvalues --    4.40652   4.45116   4.46726   4.48205   4.48818
 Alpha virt. eigenvalues --    4.49410   4.50839   4.52286   4.53893   4.54185
 Alpha virt. eigenvalues --    4.56792   4.58762   4.66500   4.69600   4.75157
 Alpha virt. eigenvalues --    4.81004   4.83353   4.87399   4.91183
          Condensed to atoms (all electrons):
               1          2          3          4          5          6
     1  C    8.237112  -2.854383  -1.086618   1.073100  -0.306082  -0.025074
     2  C   -2.854383  12.729206   0.087479  -2.470243   3.469584   0.030606
     3  C   -1.086618   0.087479   6.751292  -0.742270  -0.305682   0.030013
     4  C    1.073100  -2.470243  -0.742270  11.625341  -3.700177  -0.309641
     5  C   -0.306082   3.469584  -0.305682  -3.700177  26.529888  -0.100453
     6  O   -0.025074   0.030606   0.030013  -0.309641  -0.100453   8.297495
     7  C    0.170729   0.293003  -0.435027  -0.726164  -2.164699   0.032420
     8  C   -0.066204  -2.526158  -0.071840   0.891946  -9.809665   0.281033
     9  C   -0.015675   0.186863  -0.128907   0.060817   3.432430  -0.018551
    10  C   -0.151851  -0.149680   0.288629  -0.116034  -1.433936   0.057559
    11  C    0.066603  -0.014016  -0.109472   0.204039   1.033725  -0.036600
    12  C    0.004103  -0.020400   0.017292   0.016287  -0.158577   0.003234
    13  C    0.001600   0.006557  -0.005995   0.001874   0.108980  -0.004277
    14  C   -0.000617  -0.029630   0.007962   0.038012  -0.426394   0.006285
    15  C   -0.022034  -0.248220   0.068916  -0.038031  -1.726743   0.009805
    16  C   -0.023519   0.040854   0.006757  -0.043648   0.111763   0.007683
    17  C   -0.004754   0.002291   0.002777  -0.046884  -0.172100   0.007456
    18  N    0.000019   0.000095  -0.000020   0.000381   0.002488  -0.000078
    19  C    0.138456  -1.276855   0.501107  -0.399714  -5.023534   0.068651
    20  C   -0.364698  -0.031911   0.457243  -0.314749   0.577006   0.000717
    21  C    0.075148   1.332869  -0.397006  -0.219438   0.621574  -0.004508
    22  C    0.011351   0.147976  -0.048440  -0.034578   0.004631   0.000178
    23  C    0.009144  -0.031442   0.000756   0.007035  -0.023386   0.000001
    24  C    0.003130   0.086541  -0.028684  -0.024780  -0.021227   0.001392
    25  C    0.112158  -1.632233   0.228337   0.345846  -1.310075   0.005650
    26  C    0.170834  -0.704311   0.037842   0.534075  -2.927235  -0.037817
    27  H    0.447247  -0.113724  -0.024576  -0.007915  -0.014131   0.000019
    28  H    0.501940  -0.132692   0.004332  -0.030268   0.022469  -0.000081
    29  H    0.439302  -0.078139  -0.019029   0.045480   0.002499  -0.000038
    30  H   -0.021273  -0.081818   0.458659   0.048131  -0.042944   0.000032
    31  H    0.020123  -0.131268   0.497924  -0.041491  -0.021206   0.000313
    32  H   -0.028723  -0.053647   0.449469  -0.012834   0.010105  -0.000015
    33  H   -0.015389  -0.071655   0.002711   0.344966  -0.064285  -0.008157
    34  H    0.006608  -0.003093  -0.004994   0.153114  -0.037174   0.193139
    35  H   -0.000680  -0.008760   0.006251   0.015817  -0.281130  -0.003006
    36  H   -0.000376   0.004052  -0.000607  -0.001578   0.005769   0.000119
    37  H    0.001003  -0.013371   0.001735   0.010711   0.013302  -0.000049
    38  H   -0.000025  -0.000836   0.001046   0.002590   0.014690   0.000001
    39  H    0.000001   0.000050  -0.000006  -0.000070   0.000630  -0.000000
    40  H   -0.000000   0.000001  -0.000001  -0.000019  -0.000350  -0.000000
    41  H   -0.000000  -0.000000   0.000002  -0.000043   0.000430  -0.000001
    42  H    0.000107  -0.000115   0.000030   0.004162  -0.019552  -0.000359
    43  H    0.000005   0.000117   0.000012  -0.000189   0.005119   0.000000
    44  H    0.000398  -0.000320   0.002380   0.002837  -0.003656   0.000001
    45  H    0.000001  -0.000211   0.000082   0.000020  -0.000061  -0.000000
    46  H   -0.000005  -0.000062  -0.000003   0.000004  -0.000007   0.000000
    47  H    0.000001   0.000061   0.000012   0.000008  -0.000078  -0.000000
    48  H    0.000597   0.000944  -0.000188   0.000032   0.015894  -0.000065
    49  H   -0.071732  -0.003946   0.003555  -0.000844  -0.000305  -0.000038
               7          8          9         10         11         12
     1  C    0.170729  -0.066204  -0.015675  -0.151851   0.066603   0.004103
     2  C    0.293003  -2.526158   0.186863  -0.149680  -0.014016  -0.020400
     3  C   -0.435027  -0.071840  -0.128907   0.288629  -0.109472   0.017292
     4  C   -0.726164   0.891946   0.060817  -0.116034   0.204039   0.016287
     5  C   -2.164699  -9.809665   3.432430  -1.433936   1.033725  -0.158577
     6  O    0.032420   0.281033  -0.018551   0.057559  -0.036600   0.003234
     7  C   39.270705  -9.592626   4.271795  -8.030824   3.811755  -0.697193
     8  C   -9.592626  35.886999  -4.911356  -0.276359  -0.521687   0.498689
     9  C    4.271795  -4.911356  16.807024  -3.197818   3.832308  -1.108141
    10  C   -8.030824  -0.276359  -3.197818  31.776359 -13.228243   0.261582
    11  C    3.811755  -0.521687   3.832308 -13.228243  19.357687  -1.292072
    12  C   -0.697193   0.498689  -1.108141   0.261582  -1.292072   7.335836
    13  C    0.775061  -0.622030   0.520723  -2.262852   0.346127   0.277377
    14  C   -1.572570   1.453083  -1.769133  -0.744255   2.690898  -0.051355
    15  C   -1.321676   1.175800  -4.170257  -3.934302  -3.176334   0.255831
    16  C   -0.067571  -1.765365  -0.504944  -1.205651  -0.932843  -0.138888
    17  C   -0.344084  -0.417971  -0.125899  -0.177672  -1.323636  -0.016807
    18  N    0.011623  -0.002168   0.014504   0.017952   0.014525  -0.000104
    19  C  -11.701084   1.573314  -5.745235   5.998307  -3.602405   0.354192
    20  C   -7.598995  -7.111073   1.029341   1.902232  -0.845441   0.072996
    21  C    3.680236   0.928496  -1.014291  -0.877760  -0.159859  -0.044529
    22  C   -0.229349  -0.375178  -0.005330   0.091499  -0.076919  -0.005610
    23  C    0.108698   0.335360  -0.050495  -0.088667   0.019132  -0.000599
    24  C   -0.307373  -0.359761   0.139084   0.143161  -0.029446  -0.009016
    25  C   -2.280877   3.538679   0.337092   0.049998   0.673487   0.042793
    26  C    1.095894  -2.932738  -2.067519   0.586911  -0.481863   0.032003
    27  H    0.001382   0.006990  -0.000173  -0.000276   0.000086   0.000003
    28  H   -0.012366   0.006772   0.001435   0.000066  -0.000020  -0.000001
    29  H    0.011171  -0.004475  -0.000396   0.000019   0.000008   0.000000
    30  H    0.024255  -0.008728  -0.000634  -0.000858   0.000673   0.000295
    31  H   -0.057215   0.011719   0.000294   0.010035  -0.003968   0.000821
    32  H    0.024775  -0.013242  -0.012965  -0.002843  -0.000275  -0.000150
    33  H    0.135734  -0.060184  -0.005260   0.001132  -0.000740   0.000014
    34  H   -0.007787  -0.052256  -0.001928  -0.003878   0.008458   0.000930
    35  H    0.029620   0.320864  -0.210777  -0.035475  -0.009635  -0.009710
    36  H   -0.144955  -0.232855   0.385137   0.173654  -0.215979  -0.021007
    37  H    0.063217  -0.007774   0.555874  -0.341216   0.294871   0.055989
    38  H    0.061655  -0.061897   0.044342  -0.124912   0.343488  -0.008223
    39  H   -0.001816   0.001319  -0.013927   0.036710  -0.013749   0.280380
    40  H   -0.001086   0.001265   0.001803   0.024870  -0.006079  -0.007087
    41  H    0.000007   0.000748   0.006057   0.090044  -0.012804   0.012272
    42  H    0.087587  -0.034135   0.048743   0.009477  -0.016616   0.005493
    43  H    0.006713   0.019592   0.008258   0.027722   0.003525   0.002501
    44  H    0.001568  -0.052911   0.007699   0.010500  -0.001183  -0.000033
    45  H   -0.000737  -0.004343   0.000693   0.000078   0.000063   0.000005
    46  H   -0.000078  -0.000409   0.000529   0.000103   0.000025   0.000000
    47  H   -0.000631  -0.002356  -0.000671  -0.000007   0.000009   0.000011
    48  H    0.030884   0.074981   0.016308  -0.015487   0.001642   0.000138
    49  H   -0.003872   0.084130  -0.008342  -0.001604  -0.000945  -0.000103
              13         14         15         16         17         18
     1  C    0.001600  -0.000617  -0.022034  -0.023519  -0.004754   0.000019
     2  C    0.006557  -0.029630  -0.248220   0.040854   0.002291   0.000095
     3  C   -0.005995   0.007962   0.068916   0.006757   0.002777  -0.000020
     4  C    0.001874   0.038012  -0.038031  -0.043648  -0.046884   0.000381
     5  C    0.108980  -0.426394  -1.726743   0.111763  -0.172100   0.002488
     6  O   -0.004277   0.006285   0.009805   0.007683   0.007456  -0.000078
     7  C    0.775061  -1.572570  -1.321676  -0.067571  -0.344084   0.011623
     8  C   -0.622030   1.453083   1.175800  -1.765365  -0.417971  -0.002168
     9  C    0.520723  -1.769133  -4.170257  -0.504944  -0.125899   0.014504
    10  C   -2.262852  -0.744255  -3.934302  -1.205651  -0.177672   0.017952
    11  C    0.346127   2.690898  -3.176334  -0.932843  -1.323636   0.014525
    12  C    0.277377  -0.051355   0.255831  -0.138888  -0.016807  -0.000104
    13  C    7.160822  -1.518714   1.116060   0.205075   0.214950   0.029265
    14  C   -1.518714  13.211164  -5.973578   1.398085  -1.471576   0.022294
    15  C    1.116060  -5.973578  21.651896  -0.803421   1.123975  -0.070801
    16  C    0.205075   1.398085  -0.803421  10.283578  -1.625778   0.141585
    17  C    0.214950  -1.471576   1.123975  -1.625778   9.865524   0.146881
    18  N    0.029265   0.022294  -0.070801   0.141585   0.146881   7.176371
    19  C   -0.252646   0.345013   1.404714   0.535473   0.493011  -0.007741
    20  C   -0.051302  -0.032204  -0.004083   0.513460   0.270614  -0.000170
    21  C    0.021465  -0.135278   0.002481   0.224445   0.001715   0.001164
    22  C   -0.002577   0.004384  -0.055922   0.037722   0.015520  -0.000218
    23  C    0.002082  -0.005652   0.020915  -0.031853  -0.007264  -0.000116
    24  C   -0.000519   0.031696  -0.014618  -0.013930   0.041437  -0.002288
    25  C   -0.004044   0.188862   0.272115  -0.833189  -0.348256   0.002839
    26  C   -0.000988  -0.024421   0.432380   0.082577   0.069472  -0.000500
    27  H    0.000000  -0.000001  -0.000025  -0.000013  -0.000000   0.000000
    28  H    0.000000   0.000002   0.000010   0.000016  -0.000000   0.000000
    29  H   -0.000000   0.000001   0.000022  -0.000005  -0.000000  -0.000000
    30  H    0.000008  -0.000016  -0.000076   0.000004  -0.000000  -0.000000
    31  H   -0.000054   0.000095  -0.002040  -0.000715   0.000031   0.000000
    32  H    0.000012  -0.000030  -0.000107  -0.000030   0.000002  -0.000000
    33  H   -0.000013  -0.000024  -0.000163   0.000284   0.000060  -0.000000
    34  H   -0.000046   0.001773  -0.000058  -0.003719  -0.009343   0.000190
    35  H    0.006179   0.055712   0.175071   0.034593   0.003399  -0.000106
    36  H   -0.001018  -0.017217  -0.026182   0.111862   0.043404  -0.000077
    37  H    0.003814   0.008619  -0.068307  -0.068882  -0.009919   0.000012
    38  H    0.004582  -0.022588   0.040619   0.010812   0.000364  -0.000002
    39  H   -0.010820   0.008942   0.018855   0.004472   0.000237   0.000002
    40  H    0.249428   0.039228   0.019421  -0.010212   0.000584   0.000097
    41  H    0.024004   0.274593   0.009445  -0.112090   0.012842   0.001228
    42  H    0.006901  -0.028574  -0.045480   0.371528  -0.064771   0.000174
    43  H   -0.008634  -0.052976   0.013850   0.266220   0.032084  -0.002813
    44  H   -0.000005   0.000147   0.002049  -0.000437  -0.000002  -0.000000
    45  H   -0.000000   0.000002   0.000060  -0.000030   0.000001  -0.000000
    46  H    0.000000  -0.000002   0.000074  -0.000293  -0.000047  -0.000000
    47  H   -0.000014  -0.000285   0.000759   0.000496   0.000634   0.000010
    48  H   -0.000162  -0.003901  -0.023551   0.016224   0.009354  -0.000005
    49  H    0.000011  -0.000033   0.000632   0.000656   0.000038   0.000000
              19         20         21         22         23         24
     1  C    0.138456  -0.364698   0.075148   0.011351   0.009144   0.003130
     2  C   -1.276855  -0.031911   1.332869   0.147976  -0.031442   0.086541
     3  C    0.501107   0.457243  -0.397006  -0.048440   0.000756  -0.028684
     4  C   -0.399714  -0.314749  -0.219438  -0.034578   0.007035  -0.024780
     5  C   -5.023534   0.577006   0.621574   0.004631  -0.023386  -0.021227
     6  O    0.068651   0.000717  -0.004508   0.000178   0.000001   0.001392
     7  C  -11.701084  -7.598995   3.680236  -0.229349   0.108698  -0.307373
     8  C    1.573314  -7.111073   0.928496  -0.375178   0.335360  -0.359761
     9  C   -5.745235   1.029341  -1.014291  -0.005330  -0.050495   0.139084
    10  C    5.998307   1.902232  -0.877760   0.091499  -0.088667   0.143161
    11  C   -3.602405  -0.845441  -0.159859  -0.076919   0.019132  -0.029446
    12  C    0.354192   0.072996  -0.044529  -0.005610  -0.000599  -0.009016
    13  C   -0.252646  -0.051302   0.021465  -0.002577   0.002082  -0.000519
    14  C    0.345013  -0.032204  -0.135278   0.004384  -0.005652   0.031696
    15  C    1.404714  -0.004083   0.002481  -0.055922   0.020915  -0.014618
    16  C    0.535473   0.513460   0.224445   0.037722  -0.031853  -0.013930
    17  C    0.493011   0.270614   0.001715   0.015520  -0.007264   0.041437
    18  N   -0.007741  -0.000170   0.001164  -0.000218  -0.000116  -0.002288
    19  C   19.683826   1.906515  -1.880666   0.429400  -0.372401   0.130120
    20  C    1.906515  33.787054  -6.592960   0.001494  -1.654085   0.818352
    21  C   -1.880666  -6.592960  35.231840  -3.137258   0.407046   2.401594
    22  C    0.429400   0.001494  -3.137258   8.039814   0.138636  -0.076855
    23  C   -0.372401  -1.654085   0.407046   0.138636   5.780114  -0.017035
    24  C    0.130120   0.818352   2.401594  -0.076855  -0.017035   8.857810
    25  C    0.771028 -11.025261 -24.701234   1.010589   1.180367  -5.602388
    26  C    1.942776   0.484127  -0.081462  -0.081053   0.023891  -0.138547
    27  H    0.015792  -0.001485  -0.002989   0.000134   0.000067  -0.000109
    28  H    0.007614   0.005354   0.001073   0.000362  -0.000122   0.000395
    29  H   -0.003496  -0.001773   0.001110   0.000025   0.000008  -0.000018
    30  H   -0.030239  -0.002098  -0.003943  -0.000074   0.000000  -0.000018
    31  H    0.063748   0.027997   0.000441  -0.000623   0.000114  -0.000474
    32  H   -0.018507  -0.006520  -0.004344  -0.001134   0.000032   0.000039
    33  H   -0.003371  -0.007660   0.002977   0.000142  -0.000023  -0.000122
    34  H   -0.028278   0.001551   0.001113   0.000016  -0.000010  -0.000567
    35  H    0.157417   0.024710   0.001779   0.000290  -0.000113   0.000468
    36  H    0.150480   0.121404  -0.056763   0.027314  -0.001658   0.024248
    37  H   -0.144818   0.011300  -0.033999  -0.009822  -0.001182  -0.005927
    38  H   -0.010161  -0.002800  -0.000318  -0.000153  -0.000002   0.000003
    39  H    0.000849   0.000105   0.000011   0.000001  -0.000000   0.000001
    40  H    0.000039  -0.000016  -0.000002   0.000000  -0.000000   0.000001
    41  H   -0.000269   0.000104  -0.000011   0.000003  -0.000005   0.000005
    42  H   -0.003069  -0.008842   0.008818  -0.001039   0.000185  -0.022088
    43  H   -0.005906  -0.019582  -0.004504  -0.000025   0.002305   0.013940
    44  H    0.038534   0.059969   0.219081  -0.112166  -0.011871  -0.008356
    45  H   -0.003482   0.043092  -0.009184   0.274263  -0.004042   0.006963
    46  H    0.001369  -0.008313  -0.002834   0.033775   0.260708   0.030708
    47  H   -0.004691   0.041284   0.012984  -0.003059   0.013578   0.259699
    48  H   -0.023503   0.098301   0.073665  -0.005000  -0.006039  -0.121918
    49  H   -0.103521  -0.037832   0.114590   0.028318   0.002636   0.002455
              25         26         27         28         29         30
     1  C    0.112158   0.170834   0.447247   0.501940   0.439302  -0.021273
     2  C   -1.632233  -0.704311  -0.113724  -0.132692  -0.078139  -0.081818
     3  C    0.228337   0.037842  -0.024576   0.004332  -0.019029   0.458659
     4  C    0.345846   0.534075  -0.007915  -0.030268   0.045480   0.048131
     5  C   -1.310075  -2.927235  -0.014131   0.022469   0.002499  -0.042944
     6  O    0.005650  -0.037817   0.000019  -0.000081  -0.000038   0.000032
     7  C   -2.280877   1.095894   0.001382  -0.012366   0.011171   0.024255
     8  C    3.538679  -2.932738   0.006990   0.006772  -0.004475  -0.008728
     9  C    0.337092  -2.067519  -0.000173   0.001435  -0.000396  -0.000634
    10  C    0.049998   0.586911  -0.000276   0.000066   0.000019  -0.000858
    11  C    0.673487  -0.481863   0.000086  -0.000020   0.000008   0.000673
    12  C    0.042793   0.032003   0.000003  -0.000001   0.000000   0.000295
    13  C   -0.004044  -0.000988   0.000000   0.000000  -0.000000   0.000008
    14  C    0.188862  -0.024421  -0.000001   0.000002   0.000001  -0.000016
    15  C    0.272115   0.432380  -0.000025   0.000010   0.000022  -0.000076
    16  C   -0.833189   0.082577  -0.000013   0.000016  -0.000005   0.000004
    17  C   -0.348256   0.069472  -0.000000  -0.000000  -0.000000  -0.000000
    18  N    0.002839  -0.000500   0.000000   0.000000  -0.000000  -0.000000
    19  C    0.771028   1.942776   0.015792   0.007614  -0.003496  -0.030239
    20  C  -11.025261   0.484127  -0.001485   0.005354  -0.001773  -0.002098
    21  C  -24.701234  -0.081462  -0.002989   0.001073   0.001110  -0.003943
    22  C    1.010589  -0.081053   0.000134   0.000362   0.000025  -0.000074
    23  C    1.180367   0.023891   0.000067  -0.000122   0.000008   0.000000
    24  C   -5.602388  -0.138547  -0.000109   0.000395  -0.000018  -0.000018
    25  C   44.996946  -0.227276   0.003362  -0.003460  -0.000222   0.002006
    26  C   -0.227276   9.885534   0.041876  -0.018566  -0.039231   0.009144
    27  H    0.003362   0.041876   0.554160  -0.029196  -0.029033  -0.000152
    28  H   -0.003460  -0.018566  -0.029196   0.543538  -0.028115   0.000054
    29  H   -0.000222  -0.039231  -0.029033  -0.028115   0.547454   0.002618
    30  H    0.002006   0.009144  -0.000152   0.000054   0.002618   0.556502
    31  H   -0.002277  -0.017454   0.000090  -0.000162   0.000085  -0.026774
    32  H    0.003336   0.015904   0.002668   0.000054  -0.000138  -0.030549
    33  H   -0.004689   0.057332   0.000332  -0.000079   0.000422   0.000335
    34  H   -0.004155   0.004919  -0.000000   0.000000   0.000000  -0.000000
    35  H   -0.010760   0.007714  -0.000000   0.000000   0.000000  -0.000012
    36  H   -0.019876  -0.003515  -0.000000  -0.000000  -0.000000   0.000000
    37  H    0.022703  -0.037084   0.000000   0.000000   0.000000  -0.000000
    38  H    0.000038  -0.000135   0.000000  -0.000000   0.000000   0.000000
    39  H   -0.000024  -0.000010   0.000000   0.000000  -0.000000  -0.000000
    40  H    0.000016  -0.000000  -0.000000   0.000000   0.000000  -0.000000
    41  H    0.000044  -0.000025  -0.000000   0.000000   0.000000  -0.000000
    42  H    0.005258   0.003265   0.000000  -0.000000  -0.000000   0.000000
    43  H    0.005587  -0.000001   0.000000  -0.000000   0.000000   0.000000
    44  H    0.065959   0.075797  -0.000002   0.000001  -0.000000  -0.000000
    45  H    0.005317   0.001223   0.000000   0.000000  -0.000000  -0.000000
    46  H   -0.004127  -0.001071  -0.000000  -0.000000   0.000000   0.000000
    47  H   -0.009621   0.000875   0.000000  -0.000000  -0.000000   0.000000
    48  H    0.158171  -0.006157   0.000000   0.000000  -0.000000  -0.000000
    49  H   -0.077302   0.365580   0.000264   0.000258   0.000338  -0.000109
              31         32         33         34         35         36
     1  C    0.020123  -0.028723  -0.015389   0.006608  -0.000680  -0.000376
     2  C   -0.131268  -0.053647  -0.071655  -0.003093  -0.008760   0.004052
     3  C    0.497924   0.449469   0.002711  -0.004994   0.006251  -0.000607
     4  C   -0.041491  -0.012834   0.344966   0.153114   0.015817  -0.001578
     5  C   -0.021206   0.010105  -0.064285  -0.037174  -0.281130   0.005769
     6  O    0.000313  -0.000015  -0.008157   0.193139  -0.003006   0.000119
     7  C   -0.057215   0.024775   0.135734  -0.007787   0.029620  -0.144955
     8  C    0.011719  -0.013242  -0.060184  -0.052256   0.320864  -0.232855
     9  C    0.000294  -0.012965  -0.005260  -0.001928  -0.210777   0.385137
    10  C    0.010035  -0.002843   0.001132  -0.003878  -0.035475   0.173654
    11  C   -0.003968  -0.000275  -0.000740   0.008458  -0.009635  -0.215979
    12  C    0.000821  -0.000150   0.000014   0.000930  -0.009710  -0.021007
    13  C   -0.000054   0.000012  -0.000013  -0.000046   0.006179  -0.001018
    14  C    0.000095  -0.000030  -0.000024   0.001773   0.055712  -0.017217
    15  C   -0.002040  -0.000107  -0.000163  -0.000058   0.175071  -0.026182
    16  C   -0.000715  -0.000030   0.000284  -0.003719   0.034593   0.111862
    17  C    0.000031   0.000002   0.000060  -0.009343   0.003399   0.043404
    18  N    0.000000  -0.000000  -0.000000   0.000190  -0.000106  -0.000077
    19  C    0.063748  -0.018507  -0.003371  -0.028278   0.157417   0.150480
    20  C    0.027997  -0.006520  -0.007660   0.001551   0.024710   0.121404
    21  C    0.000441  -0.004344   0.002977   0.001113   0.001779  -0.056763
    22  C   -0.000623  -0.001134   0.000142   0.000016   0.000290   0.027314
    23  C    0.000114   0.000032  -0.000023  -0.000010  -0.000113  -0.001658
    24  C   -0.000474   0.000039  -0.000122  -0.000567   0.000468   0.024248
    25  C   -0.002277   0.003336  -0.004689  -0.004155  -0.010760  -0.019876
    26  C   -0.017454   0.015904   0.057332   0.004919   0.007714  -0.003515
    27  H    0.000090   0.002668   0.000332  -0.000000  -0.000000  -0.000000
    28  H   -0.000162   0.000054  -0.000079   0.000000   0.000000  -0.000000
    29  H    0.000085  -0.000138   0.000422   0.000000   0.000000  -0.000000
    30  H   -0.026774  -0.030549   0.000335  -0.000000  -0.000012   0.000000
    31  H    0.547885  -0.028652  -0.000102  -0.000004  -0.000035   0.000007
    32  H   -0.028652   0.567817  -0.000077  -0.000000  -0.000003  -0.000000
    33  H   -0.000102  -0.000077   0.563212   0.000036  -0.000158  -0.000000
    34  H   -0.000004  -0.000000   0.000036   0.431677   0.002540  -0.000003
    35  H   -0.000035  -0.000003  -0.000158   0.002540   0.585425   0.000300
    36  H    0.000007  -0.000000  -0.000000  -0.000003   0.000300   0.578055
    37  H   -0.000011   0.000004  -0.000000   0.000002   0.000084  -0.034769
    38  H    0.000035  -0.000000   0.000000   0.000000  -0.000273   0.000205
    39  H   -0.000000  -0.000000   0.000000   0.000000  -0.000008   0.000002
    40  H   -0.000000  -0.000000   0.000000  -0.000000  -0.000000  -0.000000
    41  H   -0.000000   0.000000   0.000000  -0.000000  -0.000011  -0.000003
    42  H   -0.000000   0.000000   0.000000   0.000031  -0.000639  -0.004482
    43  H    0.000000   0.000000  -0.000000   0.000000   0.000009   0.000753
    44  H    0.000002   0.000006  -0.000000  -0.000000   0.000000   0.000049
    45  H    0.000000   0.000000  -0.000000   0.000000   0.000000  -0.000002
    46  H   -0.000000  -0.000000   0.000000  -0.000000  -0.000000  -0.000000
    47  H    0.000000   0.000000  -0.000000   0.000000   0.000000   0.000003
    48  H    0.000000   0.000000  -0.000000   0.000002   0.000020  -0.000795
    49  H   -0.000079   0.000305  -0.000164  -0.000001   0.000010   0.000012
              37         38         39         40         41         42
     1  C    0.001003  -0.000025   0.000001  -0.000000  -0.000000   0.000107
     2  C   -0.013371  -0.000836   0.000050   0.000001  -0.000000  -0.000115
     3  C    0.001735   0.001046  -0.000006  -0.000001   0.000002   0.000030
     4  C    0.010711   0.002590  -0.000070  -0.000019  -0.000043   0.004162
     5  C    0.013302   0.014690   0.000630  -0.000350   0.000430  -0.019552
     6  O   -0.000049   0.000001  -0.000000  -0.000000  -0.000001  -0.000359
     7  C    0.063217   0.061655  -0.001816  -0.001086   0.000007   0.087587
     8  C   -0.007774  -0.061897   0.001319   0.001265   0.000748  -0.034135
     9  C    0.555874   0.044342  -0.013927   0.001803   0.006057   0.048743
    10  C   -0.341216  -0.124912   0.036710   0.024870   0.090044   0.009477
    11  C    0.294871   0.343488  -0.013749  -0.006079  -0.012804  -0.016616
    12  C    0.055989  -0.008223   0.280380  -0.007087   0.012272   0.005493
    13  C    0.003814   0.004582  -0.010820   0.249428   0.024004   0.006901
    14  C    0.008619  -0.022588   0.008942   0.039228   0.274593  -0.028574
    15  C   -0.068307   0.040619   0.018855   0.019421   0.009445  -0.045480
    16  C   -0.068882   0.010812   0.004472  -0.010212  -0.112090   0.371528
    17  C   -0.009919   0.000364   0.000237   0.000584   0.012842  -0.064771
    18  N    0.000012  -0.000002   0.000002   0.000097   0.001228   0.000174
    19  C   -0.144818  -0.010161   0.000849   0.000039  -0.000269  -0.003069
    20  C    0.011300  -0.002800   0.000105  -0.000016   0.000104  -0.008842
    21  C   -0.033999  -0.000318   0.000011  -0.000002  -0.000011   0.008818
    22  C   -0.009822  -0.000153   0.000001   0.000000   0.000003  -0.001039
    23  C   -0.001182  -0.000002  -0.000000  -0.000000  -0.000005   0.000185
    24  C   -0.005927   0.000003   0.000001   0.000001   0.000005  -0.022088
    25  C    0.022703   0.000038  -0.000024   0.000016   0.000044   0.005258
    26  C   -0.037084  -0.000135  -0.000010  -0.000000  -0.000025   0.003265
    27  H    0.000000   0.000000   0.000000  -0.000000  -0.000000   0.000000
    28  H    0.000000  -0.000000   0.000000   0.000000   0.000000  -0.000000
    29  H    0.000000   0.000000  -0.000000   0.000000   0.000000  -0.000000
    30  H   -0.000000   0.000000  -0.000000  -0.000000  -0.000000   0.000000
    31  H   -0.000011   0.000035  -0.000000  -0.000000  -0.000000  -0.000000
    32  H    0.000004  -0.000000  -0.000000  -0.000000   0.000000   0.000000
    33  H   -0.000000   0.000000   0.000000   0.000000   0.000000   0.000000
    34  H    0.000002   0.000000   0.000000  -0.000000  -0.000000   0.000031
    35  H    0.000084  -0.000273  -0.000008  -0.000000  -0.000011  -0.000639
    36  H   -0.034769   0.000205   0.000002  -0.000000  -0.000003  -0.004482
    37  H    0.573662   0.004545  -0.000008  -0.000000   0.000002   0.000094
    38  H    0.004545   0.591099  -0.005348  -0.000179   0.000016  -0.000005
    39  H   -0.000008  -0.005348   0.569402  -0.004980  -0.000168  -0.000000
    40  H   -0.000000  -0.000179  -0.004980   0.566190  -0.005136   0.000002
    41  H    0.000002   0.000016  -0.000168  -0.005136   0.553658   0.000217
    42  H    0.000094  -0.000005  -0.000000   0.000002   0.000217   0.528693
    43  H    0.000105   0.000001   0.000000   0.000002   0.000237  -0.033690
    44  H   -0.000012   0.000000  -0.000000  -0.000000  -0.000000  -0.000000
    45  H    0.000000  -0.000000  -0.000000  -0.000000  -0.000000   0.000000
    46  H    0.000000   0.000000  -0.000000   0.000000   0.000000   0.000000
    47  H    0.000000  -0.000000  -0.000000  -0.000000   0.000000  -0.000002
    48  H    0.000000  -0.000000   0.000000   0.000000   0.000000   0.000106
    49  H   -0.000021  -0.000000  -0.000000  -0.000000  -0.000000  -0.000000
              43         44         45         46         47         48
     1  C    0.000005   0.000398   0.000001  -0.000005   0.000001   0.000597
     2  C    0.000117  -0.000320  -0.000211  -0.000062   0.000061   0.000944
     3  C    0.000012   0.002380   0.000082  -0.000003   0.000012  -0.000188
     4  C   -0.000189   0.002837   0.000020   0.000004   0.000008   0.000032
     5  C    0.005119  -0.003656  -0.000061  -0.000007  -0.000078   0.015894
     6  O    0.000000   0.000001  -0.000000   0.000000  -0.000000  -0.000065
     7  C    0.006713   0.001568  -0.000737  -0.000078  -0.000631   0.030884
     8  C    0.019592  -0.052911  -0.004343  -0.000409  -0.002356   0.074981
     9  C    0.008258   0.007699   0.000693   0.000529  -0.000671   0.016308
    10  C    0.027722   0.010500   0.000078   0.000103  -0.000007  -0.015487
    11  C    0.003525  -0.001183   0.000063   0.000025   0.000009   0.001642
    12  C    0.002501  -0.000033   0.000005   0.000000   0.000011   0.000138
    13  C   -0.008634  -0.000005  -0.000000   0.000000  -0.000014  -0.000162
    14  C   -0.052976   0.000147   0.000002  -0.000002  -0.000285  -0.003901
    15  C    0.013850   0.002049   0.000060   0.000074   0.000759  -0.023551
    16  C    0.266220  -0.000437  -0.000030  -0.000293   0.000496   0.016224
    17  C    0.032084  -0.000002   0.000001  -0.000047   0.000634   0.009354
    18  N   -0.002813  -0.000000  -0.000000  -0.000000   0.000010  -0.000005
    19  C   -0.005906   0.038534  -0.003482   0.001369  -0.004691  -0.023503
    20  C   -0.019582   0.059969   0.043092  -0.008313   0.041284   0.098301
    21  C   -0.004504   0.219081  -0.009184  -0.002834   0.012984   0.073665
    22  C   -0.000025  -0.112166   0.274263   0.033775  -0.003059  -0.005000
    23  C    0.002305  -0.011871  -0.004042   0.260708   0.013578  -0.006039
    24  C    0.013940  -0.008356   0.006963   0.030708   0.259699  -0.121918
    25  C    0.005587   0.065959   0.005317  -0.004127  -0.009621   0.158171
    26  C   -0.000001   0.075797   0.001223  -0.001071   0.000875  -0.006157
    27  H    0.000000  -0.000002   0.000000  -0.000000   0.000000   0.000000
    28  H   -0.000000   0.000001   0.000000  -0.000000  -0.000000   0.000000
    29  H    0.000000  -0.000000  -0.000000   0.000000  -0.000000  -0.000000
    30  H    0.000000  -0.000000  -0.000000   0.000000   0.000000  -0.000000
    31  H    0.000000   0.000002   0.000000  -0.000000   0.000000   0.000000
    32  H    0.000000   0.000006   0.000000  -0.000000   0.000000   0.000000
    33  H   -0.000000  -0.000000  -0.000000   0.000000  -0.000000  -0.000000
    34  H    0.000000  -0.000000   0.000000  -0.000000   0.000000   0.000002
    35  H    0.000009   0.000000   0.000000  -0.000000   0.000000   0.000020
    36  H    0.000753   0.000049  -0.000002  -0.000000   0.000003  -0.000795
    37  H    0.000105  -0.000012   0.000000   0.000000   0.000000   0.000000
    38  H    0.000001   0.000000  -0.000000   0.000000  -0.000000  -0.000000
    39  H    0.000000  -0.000000  -0.000000  -0.000000  -0.000000   0.000000
    40  H    0.000002  -0.000000  -0.000000   0.000000  -0.000000   0.000000
    41  H    0.000237  -0.000000  -0.000000   0.000000   0.000000   0.000000
    42  H   -0.033690  -0.000000   0.000000   0.000000  -0.000002   0.000106
    43  H    0.513753   0.000000  -0.000000   0.000000  -0.000008  -0.000220
    44  H    0.000000   0.589683  -0.005646  -0.000157   0.000016  -0.000182
    45  H   -0.000000  -0.005646   0.573564  -0.005595  -0.000170   0.000016
    46  H    0.000000  -0.000157  -0.005595   0.574292  -0.005720  -0.000168
    47  H   -0.000008   0.000016  -0.000170  -0.005720   0.575462  -0.005621
    48  H   -0.000220  -0.000182   0.000016  -0.000168  -0.005621   0.603642
    49  H   -0.000000   0.000134   0.000000  -0.000000   0.000001   0.000037
              49
     1  C   -0.071732
     2  C   -0.003946
     3  C    0.003555
     4  C   -0.000844
     5  C   -0.000305
     6  O   -0.000038
     7  C   -0.003872
     8  C    0.084130
     9  C   -0.008342
    10  C   -0.001604
    11  C   -0.000945
    12  C   -0.000103
    13  C    0.000011
    14  C   -0.000033
    15  C    0.000632
    16  C    0.000656
    17  C    0.000038
    18  N    0.000000
    19  C   -0.103521
    20  C   -0.037832
    21  C    0.114590
    22  C    0.028318
    23  C    0.002636
    24  C    0.002455
    25  C   -0.077302
    26  C    0.365580
    27  H    0.000264
    28  H    0.000258
    29  H    0.000338
    30  H   -0.000109
    31  H   -0.000079
    32  H    0.000305
    33  H   -0.000164
    34  H   -0.000001
    35  H    0.000010
    36  H    0.000012
    37  H   -0.000021
    38  H   -0.000000
    39  H   -0.000000
    40  H   -0.000000
    41  H   -0.000000
    42  H   -0.000000
    43  H   -0.000000
    44  H    0.000134
    45  H    0.000000
    46  H   -0.000000
    47  H    0.000001
    48  H    0.000037
    49  H    0.574792
 Mulliken charges:
               1
     1  C   -0.431108
     2  C    0.263995
     3  C   -0.505238
     4  C   -0.145023
     5  C    0.111867
     6  O   -0.484994
     7  C   -0.699834
     8  C    0.805967
     9  C   -0.620531
    10  C    0.843866
    11  C   -0.590304
    12  C    0.058536
    13  C   -0.336251
    14  C    0.094171
    15  C   -0.089745
    16  C   -0.219197
    17  C   -0.191893
    18  N   -0.496493
    19  C   -0.066154
    20  C   -0.532470
    21  C   -0.002575
    22  C   -0.035455
    23  C   -0.004751
    24  C   -0.187177
    25  C    0.072760
    26  C   -0.132966
    27  H    0.149329
    28  H    0.159386
    29  H    0.153547
    30  H    0.147600
    31  H    0.152847
    32  H    0.140258
    33  H    0.132627
    34  H    0.351197
    35  H    0.143017
    36  H    0.156886
    37  H    0.155519
    38  H    0.117723
    39  H    0.128964
    40  H    0.132202
    41  H    0.144608
    42  H    0.202589
    43  H    0.206136
    44  H    0.120131
    45  H    0.128056
    46  H    0.127303
    47  H    0.127028
    48  H    0.112003
    49  H    0.132042
 Sum of Mulliken charges =  -0.00000
 Mulliken charges with hydrogens summed into heavy atoms:
               1
     1  C    0.031154
     2  C    0.263995
     3  C   -0.064533
     4  C   -0.012397
     5  C    0.111867
     6  O   -0.133797
     7  C   -0.556818
     8  C    0.805967
     9  C   -0.308127
    10  C    0.843866
    11  C   -0.472581
    12  C    0.187500
    13  C   -0.204049
    14  C    0.238779
    15  C   -0.089745
    16  C    0.189528
    17  C   -0.191893
    18  N   -0.496493
    19  C   -0.066154
    20  C   -0.532470
    21  C    0.117556
    22  C    0.092601
    23  C    0.122552
    24  C   -0.060149
    25  C    0.184763
    26  C   -0.000924
 Electronic spatial extent (au):  <R**2>=           9621.4085
 Charge=             -0.0000 electrons
 Dipole moment (field-independent basis, Debye):
    X=              2.2990    Y=              0.5766    Z=             -3.8837  Tot=              4.5498
 Quadrupole moment (field-independent basis, Debye-Ang):
   XX=           -162.9126   YY=           -155.7887   ZZ=           -163.9785
   XY=             10.6599   XZ=             10.1097   YZ=              0.6463
 Traceless Quadrupole moment (field-independent basis, Debye-Ang):
   XX=             -2.0194   YY=              5.1046   ZZ=             -3.0852
   XY=             10.6599   XZ=             10.1097   YZ=              0.6463
 Octapole moment (field-independent basis, Debye-Ang**2):
  XXX=             72.0974  YYY=             55.4537  ZZZ=            -39.5337  XYY=             24.1046
  XXY=            -69.8733  XXZ=            -85.1004  XZZ=             45.9477  YZZ=            -20.9517
  YYZ=            -23.3167  XYZ=              8.8241
 Hexadecapole moment (field-independent basis, Debye-Ang**3):
 XXXX=          -7476.8290 YYYY=          -4407.0471 ZZZZ=          -1901.0926 XXXY=            258.5546
 XXXZ=            357.7830 YYYX=            101.0245 YYYZ=             33.6083 ZZZX=            148.0746
 ZZZY=            -39.4050 XXYY=          -1963.2844 XXZZ=          -1740.3957 YYZZ=          -1100.1552
 XXYZ=           -153.8466 YYXZ=             22.3244 ZZXY=            160.8642
 N-N= 2.185741638719D+03 E-N=-6.822453405077D+03  KE= 1.048152835280D+03
 Unable to Open any file for archive entry.
 1\1\GINC-N2\SP\RB3LYP TD-FC\6-31+G(d,p)\C24H23N1O1\HPCMGAC13\06-Aug-20
 25\0\\# td=(50-50,nstates=3) b3lyp/6-31+g(d,p) geom=connectivity\\Titl
 e Card Required\\0,1\C,0,4.431707,-2.431054,0.388383\C,0,2.962791,-2.0
 72632,0.079401\C,0,2.588318,-2.706415,-1.283305\C,0,2.089756,-2.578181
 ,1.214699\C,0,0.761176,-2.354922,1.317592\O,0,0.07671,-3.032252,2.3155
 14\C,0,-0.044191,-1.522588,0.442529\C,0,0.342851,-0.397847,-0.222546\C
 ,0,-0.63811,0.339913,-1.142001\C,0,-2.068782,-0.158168,-1.170184\C,0,-
 2.469722,-1.041293,-2.181945\C,0,-3.776659,-1.527052,-2.254224\C,0,-4.
 712515,-1.12556,-1.301541\C,0,-4.333816,-0.241914,-0.288117\C,0,-3.024
 366,0.245708,-0.212142\C,0,-2.608329,1.231667,0.877273\C,0,-3.602605,1
 .442355,1.932013\N,0,-4.38018,1.617167,2.776563\C,0,1.697306,0.175245,
 -0.123019\C,0,1.842836,1.669437,-0.176217\C,0,2.620833,2.286116,-1.168
 473\C,0,2.784129,3.674605,-1.19345\C,0,2.171243,4.47166,-0.224351\C,0,
 1.396629,3.870555,0.773206\C,0,1.234004,2.48437,0.794312\C,0,2.825782,
 -0.556857,0.057474\H,0,5.096988,-2.051355,-0.394677\H,0,4.751012,-2.00
 2957,1.345169\H,0,4.558789,-3.517297,0.443331\H,0,2.707749,-3.794366,-
 1.233043\H,0,1.554925,-2.492793,-1.563708\H,0,3.245743,-2.323024,-2.07
 2618\H,0,2.552265,-3.190326,1.985935\H,0,-0.758238,-2.585191,2.503293\
 H,0,-1.083793,-1.83283,0.3441\H,0,-0.612745,1.407866,-0.901362\H,0,-0.
 230492,0.277742,-2.160069\H,0,-1.739376,-1.352388,-2.924771\H,0,-4.058
 718,-2.211111,-3.049091\H,0,-5.733642,-1.492416,-1.342875\H,0,-5.06539
 1,0.07052,0.450913\H,0,-1.683134,0.894167,1.359134\H,0,-2.381763,2.212
 128,0.437397\H,0,3.093388,1.670679,-1.928767\H,0,3.388789,4.131376,-1.
 971892\H,0,2.297738,5.550155,-0.242336\H,0,0.928026,4.480477,1.540543\
 H,0,0.650748,2.022387,1.586722\H,0,3.747112,0.003512,0.216408\\Version
 =ES64L-G16RevC.02\State=1-A\HF=-1058.3964285\RMSD=4.802e-09\PG=C01 [X(
 C24H23N1O1)]\\@
 The archive entry for this job was punched.


 EDUCATION WITHOUT COMMON SENSE IS A LOAD OF BOOKS ON THE BACK OF AN ASS.
 Job cpu time:       0 days  5 hours 40 minutes  4.2 seconds.
 Elapsed time:       0 days  0 hours 21 minutes 45.0 seconds.
 File lengths (MBytes):  RWF=   1941 Int=      0 D2E=      0 Chk=     94 Scr=      2
 Normal termination of Gaussian 16 at Wed Aug  6 10:13:31 2025.
