 Entering Gaussian System, Link 0=g16
 Input=M1840enew.gjf
 Output=M1840enew.log
 Initial command:
 /hpc/softwares/Gaussian/g16/l1.exe "/hpc/home/hpcmgac13/pbs.12981.admin1.x8z/Gau-2574568.inp" -scrdir="/hpc/home/hpcmgac13/pbs.12981.admin1.x8z/"
 Default linda workers: n2
 Default is to use   8 SMP processors on each worker.
 Entering Link 1 = /hpc/softwares/Gaussian/g16/l1.exe PID=   2574569.
  
 Copyright (c) 1988-2021, Gaussian, Inc.  All Rights Reserved.
  
 This is part of the Gaussian(R) 16 program.  It is based on
 the Gaussian(R) 09 system (copyright 2009, Gaussian, Inc.),
 the Gaussian(R) 03 system (copyright 2003, Gaussian, Inc.),
 the Gaussian(R) 98 system (copyright 1998, Gaussian, Inc.),
 the Gaussian(R) 94 system (copyright 1995, Gaussian, Inc.),
 the Gaussian 92(TM) system (copyright 1992, Gaussian, Inc.),
 the Gaussian 90(TM) system (copyright 1990, Gaussian, Inc.),
 the Gaussian 88(TM) system (copyright 1988, Gaussian, Inc.),
 the Gaussian 86(TM) system (copyright 1986, Carnegie Mellon
 University), and the Gaussian 82(TM) system (copyright 1983,
 Carnegie Mellon University). Gaussian is a federally registered
 trademark of Gaussian, Inc.
  
 This software contains proprietary and confidential information,
 including trade secrets, belonging to Gaussian, Inc.
  
 This software is provided under written license and may be
 used, copied, transmitted, or stored only in accord with that
 written license.
  
 The following legend is applicable only to US Government
 contracts under FAR:
  
                    RESTRICTED RIGHTS LEGEND
  
 Use, reproduction and disclosure by the US Government is
 subject to restrictions as set forth in subparagraphs (a)
 and (c) of the Commercial Computer Software - Restricted
 Rights clause in FAR 52.227-19.
  
 Gaussian, Inc.
 340 Quinnipiac St., Bldg. 40, Wallingford CT 06492
  
  
 ---------------------------------------------------------------
 Warning -- This program may not be used in any manner that
 competes with the business of Gaussian, Inc. or will provide
 assistance to any competitor of Gaussian, Inc.  The licensee
 of this program is prohibited from giving any competitor of
 Gaussian, Inc. access to this program.  By using this program,
 the user acknowledges that Gaussian, Inc. is engaged in the
 business of creating and licensing software in the field of
 computational chemistry and represents and warrants to the
 licensee that it is not a competitor of Gaussian, Inc. and that
 it will not use this program in any manner prohibited above.
 ---------------------------------------------------------------
  

 Cite this work as:
 Gaussian 16, Revision C.02,
 M. J. Frisch, G. W. Trucks, H. B. Schlegel, G. E. Scuseria, 
 M. A. Robb, J. R. Cheeseman, G. Scalmani, V. Barone, 
 G. A. Petersson, H. Nakatsuji, X. Li, M. Caricato, A. V. Marenich, 
 J. Bloino, B. G. Janesko, R. Gomperts, B. Mennucci, H. P. Hratchian, 
 J. V. Ortiz, A. F. Izmaylov, J. L. Sonnenberg, D. Williams-Young, 
 F. Ding, F. Lipparini, F. Egidi, J. Goings, B. Peng, A. Petrone, 
 T. Henderson, D. Ranasinghe, V. G. Zakrzewski, J. Gao, N. Rega, 
 G. Zheng, W. Liang, M. Hada, M. Ehara, K. Toyota, R. Fukuda, 
 J. Hasegawa, M. Ishida, T. Nakajima, Y. Honda, O. Kitao, H. Nakai, 
 T. Vreven, K. Throssell, J. A. Montgomery, Jr., J. E. Peralta, 
 F. Ogliaro, M. J. Bearpark, J. J. Heyd, E. N. Brothers, K. N. Kudin, 
 V. N. Staroverov, T. A. Keith, R. Kobayashi, J. Normand, 
 K. Raghavachari, A. P. Rendell, J. C. Burant, S. S. Iyengar, 
 J. Tomasi, M. Cossi, J. M. Millam, M. Klene, C. Adamo, R. Cammi, 
 J. W. Ochterski, R. L. Martin, K. Morokuma, O. Farkas, 
 J. B. Foresman, and D. J. Fox, Gaussian, Inc., Wallingford CT, 2019.
 
 ******************************************
 Gaussian 16:  ES64L-G16RevC.02  7-Dec-2021
                 8-Aug-2025 
 ******************************************
 SetLPE:    new flags="-opt 'Tsnet.Node.lindarsharg: ssh'  -nodelist 'n2.head.cm.mguif.local' -env GAUSS_MDEF=2147483648 -env GAUSS_EXEDIR="/hpc/softwares/Gaussian/g16/bsd:/hpc/softwares/Gaussian/g16""
 Will use up to    1 processors via Linda.
 ----------------------------------------------------------
 # td=(50-50,nstates=3) b3lyp/6-31+g(d,p) geom=connectivity
 ----------------------------------------------------------
 1/38=1,57=2,172=1/1;
 2/12=2,17=6,18=5,40=1/2;
 3/5=1,6=6,7=111,11=9,25=1,30=1,74=-5/1,2,3,8;
 4//1;
 5/5=2,38=5/2;
 8/6=1,10=2,108=3/1;
 9/41=3,42=1,48=2,70=2/14;
 6/7=2,8=2,9=2,10=2/1;
 99/5=1,9=1/99;
 -------------------
 Title Card Required
 -------------------
 Symbolic Z-matrix:
 Charge =  0 Multiplicity = 1
 C                    -1.18732  -3.99087   1.38836 
 C                    -0.9407   -2.80913   0.77498 
 C                    -1.98185  -1.86296   0.4911 
 C                    -2.84718  -1.03875   0.23543 
 Si                   -4.1873    0.17956  -0.15619 
 C                    -3.68344   1.86532   0.52503 
 C                    -4.39032   0.24736  -2.03166 
 C                    -5.77669  -0.42526   0.66632 
 C                     0.38584  -2.43527   0.37016 
 C                     1.49997  -2.08511   0.00988 
 Si                    3.14902  -1.48907  -0.55765 
 C                     4.40737  -2.88796  -0.43382 
 C                     2.99349  -0.90029  -2.34459 
 C                     3.68891  -0.06024   0.59619 
 C                     2.59291   0.77608   1.31253 
 C                     1.62772   1.42629   0.37764 
 C                     1.47269   2.76115   0.193 
 C                     0.4945    3.26979  -0.72985 
 N                    -0.30346   3.66722  -1.4771 
 C                     2.26008   3.7353    0.89994 
 N                     2.90008   4.52158   1.47012 
 H                    -0.38344  -4.68964   1.59041 
 H                    -2.19434  -4.25942   1.68656 
 H                    -4.47908   2.59998   0.35292 
 H                    -3.49707   1.81897   1.6035 
 H                    -2.77715   2.23964   0.03745 
 H                    -5.18432   0.9518   -2.30661 
 H                    -4.65371  -0.73484  -2.43858 
 H                    -3.4662    0.57808  -2.51738 
 H                    -6.06265  -1.4159    0.29656 
 H                    -5.65967  -0.49278   1.75335 
 H                    -6.60392   0.26387   0.4588 
 H                     5.40527  -2.53931  -0.72495 
 H                     4.46965  -3.2773    0.58793 
 H                     4.1359   -3.71829  -1.09443 
 H                     3.95882  -0.53361  -2.71316 
 H                     2.26422  -0.09075  -2.45246 
 H                     2.67495  -1.72186  -2.99518 
 H                     4.32238  -0.49659   1.37904 
 H                     4.34044   0.61285   0.02311 
 H                     3.06108   1.52784   1.95583 
 H                     2.01131   0.10463   1.95854 
 H                     0.98107   0.77144  -0.20251 
 
                          Input orientation:                          
 ---------------------------------------------------------------------
 Center     Atomic      Atomic             Coordinates (Angstroms)
 Number     Number       Type             X           Y           Z
 ---------------------------------------------------------------------
      1          6           0       -1.187315   -3.990874    1.388363
      2          6           0       -0.940701   -2.809128    0.774976
      3          6           0       -1.981848   -1.862955    0.491100
      4          6           0       -2.847181   -1.038748    0.235431
      5         14           0       -4.187296    0.179557   -0.156185
      6          6           0       -3.683437    1.865318    0.525029
      7          6           0       -4.390323    0.247358   -2.031657
      8          6           0       -5.776689   -0.425258    0.666317
      9          6           0        0.385842   -2.435267    0.370160
     10          6           0        1.499974   -2.085109    0.009879
     11         14           0        3.149023   -1.489065   -0.557648
     12          6           0        4.407369   -2.887960   -0.433824
     13          6           0        2.993489   -0.900285   -2.344585
     14          6           0        3.688913   -0.060240    0.596191
     15          6           0        2.592906    0.776080    1.312528
     16          6           0        1.627719    1.426287    0.377636
     17          6           0        1.472693    2.761153    0.192999
     18          6           0        0.494496    3.269787   -0.729854
     19          7           0       -0.303458    3.667220   -1.477098
     20          6           0        2.260076    3.735295    0.899943
     21          7           0        2.900080    4.521577    1.470117
     22          1           0       -0.383440   -4.689644    1.590410
     23          1           0       -2.194335   -4.259421    1.686562
     24          1           0       -4.479079    2.599984    0.352924
     25          1           0       -3.497065    1.818971    1.603499
     26          1           0       -2.777146    2.239639    0.037452
     27          1           0       -5.184321    0.951796   -2.306607
     28          1           0       -4.653710   -0.734844   -2.438581
     29          1           0       -3.466199    0.578078   -2.517378
     30          1           0       -6.062652   -1.415904    0.296557
     31          1           0       -5.659672   -0.492778    1.753354
     32          1           0       -6.603917    0.263869    0.458795
     33          1           0        5.405271   -2.539307   -0.724950
     34          1           0        4.469647   -3.277298    0.587931
     35          1           0        4.135904   -3.718285   -1.094431
     36          1           0        3.958823   -0.533606   -2.713160
     37          1           0        2.264215   -0.090754   -2.452456
     38          1           0        2.674953   -1.721856   -2.995177
     39          1           0        4.322383   -0.496591    1.379036
     40          1           0        4.340435    0.612854    0.023107
     41          1           0        3.061079    1.527836    1.955831
     42          1           0        2.011309    0.104630    1.958540
     43          1           0        0.981069    0.771438   -0.202514
 ---------------------------------------------------------------------
                    Distance matrix (angstroms):
                    1          2          3          4          5
     1  C    0.000000
     2  C    1.354100   0.000000
     3  C    2.442213   1.435206   0.000000
     4  C    3.577633   2.657070   1.222082   0.000000
     5  Si   5.364514   4.509953   3.074871   1.852981   0.000000
     6  C    6.424247   5.425451   4.098363   3.035917   1.886721
     7  C    6.318102   5.396220   4.076576   3.029033   1.887647
     8  C    5.856392   5.392719   4.061834   3.023913   1.889042
     9  C    2.435462   1.436442   2.438877   3.524323   5.294142
    10  C    3.571230   2.658284   3.521933   4.476997   6.123833
    11  Si   5.371204   4.499366   5.250286   6.065165   7.534391
    12  C    5.986424   5.483545   6.536682   7.516381   9.129897
    13  C    6.400450   5.371517   5.807049   6.386633   7.584117
    14  C    6.313083   5.387177   5.951332   6.618773   7.915696
    15  C    6.084379   5.062515   5.344869   5.835091   6.963052
    16  C    6.188022   4.969245   4.884768   5.110905   5.971072
    17  C    7.354890   6.098459   5.779714   5.753465   6.230734
    18  C    7.748066   6.424758   5.828211   5.537333   5.638953
    19  N    8.224261   6.886291   6.105214   5.616887   5.384496
    20  C    8.474476   7.286293   7.035728   7.022616   7.438231
    21  N    9.443268   8.305062   8.096539   8.091519   8.469291
    22  H    1.084121   2.124103   3.428347   4.608148   6.420984
    23  H    1.084034   2.122719   2.686509   3.592315   5.203089
    24  H    7.439573   6.477402   5.115963   3.989645   2.490541
    25  H    6.255839   5.351705   4.133992   3.234272   2.502116
    26  H    6.570526   5.422778   4.203519   3.285106   2.503988
    27  H    7.352472   6.453605   5.099590   3.985780   2.492935
    28  H    6.104353   5.330670   4.122440   3.241334   2.502599
    29  H    6.428332   5.356389   4.148841   3.251964   2.500806
    30  H    5.620625   5.329572   4.109825   3.238092   2.503484
    31  H    5.689628   5.347092   4.122749   3.242265   2.503251
    32  H    6.950289   6.450992   5.088020   3.982432   2.495068
    33  H    7.073565   6.526403   7.517031   8.442569   9.986644
    34  H    5.757699   5.433786   6.605417   7.659722   9.351268
    35  H    5.880071   5.485724   6.586581   7.596837   9.238460
    36  H    7.433568   6.430430   6.879391   7.434450   8.567729
    37  H    6.471158   5.298808   5.462076   5.852333   6.853315
    38  H    6.267454   5.335651   5.818920   6.434083   7.665879
    39  H    6.524329   5.780378   6.511429   7.280413   8.673449
    40  H    7.322176   6.337639   6.805873   7.377987   8.540614
    41  H    6.987634   6.018132   6.250921   6.667433   7.669251
    42  H    5.227758   4.313371   4.687225   5.280279   6.549838
    43  H    5.469222   4.179610   4.024923   4.257237   5.202352
                    6          7          8          9         10
     6  C    0.000000
     7  C    3.107109   0.000000
     8  C    3.106188   3.107006   0.000000
     9  C    5.922672   5.981384   6.488808   0.000000
    10  C    6.537507   6.656115   7.492386   1.222171   0.000000
    11  Si   7.688081   7.875888   9.071831   3.064522   1.843019
    12  C    9.432613   9.475372  10.535191   4.126015   3.048670
    13  C    7.775898   7.479017   9.284783   4.065198   3.029504
    14  C    7.619999   8.501427   9.472897   4.074570   3.038965
    15  C    6.418651   7.760709   8.480031   4.008982   3.328333
    16  C    5.331309   6.588732   7.637854   4.056342   3.532912
    17  C    5.243896   6.755976   7.932893   5.311818   4.849797
    18  C    4.582836   5.889926   7.411505   5.811151   5.498464
    19  N    4.321993   5.357747   7.162322   6.413099   6.209087
    20  C    6.242013   8.061500   9.052866   6.470646   5.936924
    21  N    7.161815   9.147751  10.020159   7.478568   6.909478
    22  H    7.415696   7.317682   6.937296   2.676382   3.581749
    23  H    6.409291   6.241680   5.345556   3.423122   4.602914
    24  H    1.096540   3.350963   3.306674   7.001536   7.603739
    25  H    1.095436   4.059832   3.333401   5.890385   6.538491
    26  H    1.095085   3.294349   4.061330   5.654196   6.082595
    27  H    3.332467   1.096478   3.329483   7.047268   7.698617
    28  H    4.060204   1.095299   3.316220   6.014778   6.759142
    29  H    3.310652   1.095128   4.059675   5.679467   6.175959
    30  H    4.059468   3.314167   1.095389   6.528981   7.597587
    31  H    3.312839   4.060216   1.095400   6.498825   7.538949
    32  H    3.331400   3.332060   1.096480   7.493325   8.449395
    33  H   10.176826  10.267748  11.464775   5.138556   3.999702
    34  H    9.639670   9.888605  10.636150   4.175393   3.251833
    35  H    9.743786   9.449935  10.592628   4.225414   3.291640
    36  H    8.639725   8.413239  10.305959   5.088160   3.983471
    37  H    6.932979   6.676396   8.631036   4.122158   3.259541
    38  H    8.104862   7.397587   9.301503   4.132127   3.246982
    39  H    8.390536   9.386029  10.124441   4.502516   3.516244
    40  H    8.136530   8.976735  10.190564   5.005027   3.917576
    41  H    6.902868   8.547694   9.142405   5.037602   4.390575
    42  H    6.130669   7.544729   7.912240   3.408250   2.975517
    43  H    4.845979   5.698445   6.917676   3.311375   2.911054
                   11         12         13         14         15
    11  Si   0.000000
    12  C    1.885650   0.000000
    13  C    1.887855   3.098535   0.000000
    14  C    1.914254   3.094044   3.136472   0.000000
    15  C    2.989600   4.446033   4.042913   1.553641   0.000000
    16  C    3.418830   5.195926   3.832591   2.550696   1.492775
    17  C    4.630109   6.396695   4.707258   3.610326   2.539436
    18  C    5.451866   7.301785   5.122677   4.801226   3.846196
    19  N    6.273140   8.139453   5.699517   5.842218   4.952739
    20  C    5.496247   7.089239   5.705564   4.066931   3.006319
    21  N    6.348356   7.797317   6.630027   4.730650   3.761374
    22  H    5.228399   5.504129   6.422389   6.245311   6.229767
    23  H    6.423615   7.068199   7.378852   7.309900   6.958006
    24  H    8.702724  10.474037   8.681458   8.593722   7.366168
    25  H    7.732021   9.422630   8.069016   7.495624   6.185469
    26  H    7.026867   8.839210   6.988094   6.885605   5.710104
    27  H    8.857837  10.500074   8.385000   9.390673   8.579876
    28  H    8.061600   9.526705   7.649566   8.903049   8.298624
    29  H    7.202415   8.851423   6.628950   7.829265   7.170784
    30  H    9.251485  10.598195   9.447496   9.849905   8.986416
    31  H    9.161137  10.576671   9.583129   9.429855   8.361182
    32  H    9.961213  11.488221  10.066002  10.298848   9.250555
    33  H    2.494324   1.096413   3.335611   3.291971   4.801302
    34  H    2.500835   1.095192   4.053256   3.310450   4.525160
    35  H    2.496296   1.095233   3.287723   4.054540   5.326689
    36  H    2.492972   3.307499   1.096435   3.353913   4.448277
    37  H    2.515642   4.061077   1.094905   3.365255   3.877440
    38  H    2.494089   3.304783   1.095315   4.084973   4.980235
    39  H    2.472352   3.002054   3.974202   1.097512   2.148303
    40  H    2.484915   3.531142   3.116058   1.098163   2.177868
    41  H    3.927722   5.198288   4.939020   2.182838   1.094606
    42  H    3.188332   4.518861   4.526745   2.167379   1.098377
    43  H    3.152145   5.018389   3.381266   2.943134   2.212101
                   16         17         18         19         20
    16  C    0.000000
    17  C    1.356463   0.000000
    18  C    2.430889   1.437788   0.000000
    19  N    3.491599   2.600941   1.163210   0.000000
    20  C    2.450346   1.438296   2.447490   3.496665   0.000000
    21  N    3.520403   2.601453   3.491946   4.436063   1.163161
    22  H    6.551350   7.804637   8.337082   8.902425   8.856891
    23  H    6.974859   8.060167   8.352117   8.741613   9.185643
    24  H    6.218614   5.956101   5.133955   4.682284   6.855973
    25  H    5.283971   5.251258   4.845819   4.806790   6.108352
    26  H    4.492227   4.284542   3.514770   3.232798   5.324893
    27  H    7.337179   7.337414   6.333103   5.646631   8.570232
    28  H    7.215117   7.528614   6.742466   6.263171   8.884161
    29  H    5.920183   6.041905   5.111521   4.541796   7.378098
    30  H    8.199172   8.616261   8.124371   7.883674   9.806464
    31  H    7.660384   7.993335   7.628696   7.512019   9.018166
    32  H    8.313702   8.458056   7.799737   7.417969   9.529731
    33  H    5.586728   6.663533   7.606662   8.466185   7.204385
    34  H    5.499499   6.752821   7.771918   8.676013   7.359077
    35  H    5.909703   7.122730   7.888341   8.625547   7.940536
    36  H    4.339153   5.047974   5.513698   6.110796   5.844978
    37  H    3.273524   3.969674   4.170431   4.654743   5.086968
    38  H    4.731107   5.630920   5.899371   6.341738   6.717483
    39  H    3.458537   4.487796   5.769379   6.847863   4.731966
    40  H    2.854153   3.587199   4.734711   5.757214   3.853099
    41  H    2.134369   2.674251   4.103004   5.261376   2.574758
    42  H    2.095990   3.234866   4.421131   5.463863   3.790019
    43  H    1.087914   2.087364   2.599344   3.414693   3.411117
                   21         22         23         24         25
    21  N    0.000000
    22  H    9.779702   0.000000
    23  H   10.154105   1.863780   0.000000
    24  H    7.706661   8.452473   7.351876   0.000000
    25  H    6.945886   7.215047   6.216981   1.771516   0.000000
    26  H    6.284160   7.493762   6.730306   1.768035   1.774189
    27  H    9.610646   8.370248   7.214028   3.207335   4.346004
    28  H    9.998381   7.078730   5.957178   4.352479   4.919168
    29  H    8.484150   7.357052   6.533923   3.654130   4.303765
    30  H   10.814873   6.681682   4.998158   4.317202   4.330676
    31  H    9.924381   6.743802   5.118654   3.594465   3.169150
    32  H   10.463117   8.031947   6.435214   3.159680   3.658035
    33  H    7.807073   6.594999   8.156482  11.192609  10.181741
    34  H    8.004014   5.152877   6.824970  10.708752   9.511668
    35  H    8.717769   5.345688   6.935321  10.781154   9.808274
    36  H    6.646474   7.392470   8.432117   9.508862   8.930757
    37  H    6.088062   6.671179   7.374817   7.783460   7.300011
    38  H    7.679192   6.260123   7.215808   9.003791   8.472254
    39  H    5.216632   6.306437   7.531340   9.386555   8.158185
    40  H    4.409827   7.272408   8.319217   9.046618   8.085714
    41  H    3.037157   7.117254   7.822035   7.782853   6.574051
    42  H    4.531875   5.371723   6.066824   7.136521   5.779896
    43  H    4.532531   5.907612   6.241902   5.784921   4.940920
                   26         27         28         29         30
    26  H    0.000000
    27  H    3.598283   0.000000
    28  H    4.301137   1.773054   0.000000
    29  H    3.124538   1.770885   1.772048   0.000000
    30  H    4.921857   3.626835   3.151181   4.316916   0.000000
    31  H    4.326590   4.335440   4.317740   4.919066   1.771105
    32  H    4.327282   3.183700   3.632564   4.336082   1.772266
    33  H    9.506394  11.261834  10.362225   9.572558  11.568006
    34  H    9.124452  10.929899   9.942811   9.353316  10.699486
    35  H    9.196101  10.495028   9.378964   8.847343  10.547339
    36  H    7.786529   9.271935   8.619258   7.510334  10.500800
    37  H    6.086517   7.522557   6.947858   5.769679   8.868473
    38  H    7.390241   8.330110   7.415746   6.575084   9.342102
    39  H    7.725938  10.298505   9.757111   8.774905  10.481691
    40  H    7.301137   9.811393   9.421828   8.209678  10.602587
    41  H    6.186414   9.299829   9.162344   7.969755   9.729402
    42  H    5.583739   8.407512   8.028815   7.089506   8.382306
    43  H    4.041952   6.517037   6.246568   5.017387   7.392398
                   31         32         33         34         35
    31  H    0.000000
    32  H    1.772003   0.000000
    33  H   11.522293  12.388690   0.000000
    34  H   10.569525  11.626709   1.773042   0.000000
    35  H   10.698929  11.559144   1.771383   1.770931   0.000000
    36  H   10.605039  11.057520   3.173015   4.322729   3.576845
    37  H    8.979891   9.340498   4.341189   4.925642   4.301910
    38  H    9.670840  10.098042   3.643733   4.298719   3.119766
    39  H    9.989072  10.991323   3.126035   2.894800   4.065972
    40  H   10.208737  10.958579   3.410218   3.933066   4.477666
    41  H    8.954070   9.861586   5.405874   5.190812   6.162883
    42  H    7.696944   8.746240   5.070552   4.399935   5.333781
    43  H    7.037265   7.630660   5.550454   5.402522   5.559327
                   36         37         38         39         40
    36  H    0.000000
    37  H    1.770814   0.000000
    38  H    1.771946   1.767412   0.000000
    39  H    4.108481   4.368191   4.832084   0.000000
    40  H    2.991180   3.306685   4.163501   1.752067   0.000000
    41  H    5.182178   4.763173   5.934819   2.453953   2.491860
    42  H    5.101464   4.422558   5.321258   2.457306   3.070671
    43  H    4.107737   2.729849   4.109103   3.908142   3.370667
                   41         42         43
    41  H    0.000000
    42  H    1.768485   0.000000
    43  H    3.091445   2.485192   0.000000
 Stoichiometry    C17H22N2Si2
 Framework group  C1[X(C17H22N2Si2)]
 Deg. of freedom   123
 Full point group                 C1      NOp   1
 Largest Abelian subgroup         C1      NOp   1
 Largest concise Abelian subgroup C1      NOp   1
                         Standard orientation:                         
 ---------------------------------------------------------------------
 Center     Atomic      Atomic             Coordinates (Angstroms)
 Number     Number       Type             X           Y           Z
 ---------------------------------------------------------------------
      1          6           0        1.187315   -3.990874   -1.388363
      2          6           0        0.940701   -2.809128   -0.774976
      3          6           0        1.981848   -1.862955   -0.491100
      4          6           0        2.847181   -1.038748   -0.235431
      5         14           0        4.187296    0.179557    0.156185
      6          6           0        3.683437    1.865318   -0.525029
      7          6           0        4.390323    0.247358    2.031657
      8          6           0        5.776689   -0.425258   -0.666317
      9          6           0       -0.385842   -2.435267   -0.370160
     10          6           0       -1.499974   -2.085109   -0.009879
     11         14           0       -3.149023   -1.489065    0.557648
     12          6           0       -4.407369   -2.887960    0.433824
     13          6           0       -2.993489   -0.900285    2.344585
     14          6           0       -3.688913   -0.060240   -0.596191
     15          6           0       -2.592906    0.776080   -1.312528
     16          6           0       -1.627719    1.426287   -0.377636
     17          6           0       -1.472693    2.761153   -0.192999
     18          6           0       -0.494496    3.269787    0.729854
     19          7           0        0.303458    3.667220    1.477098
     20          6           0       -2.260076    3.735295   -0.899943
     21          7           0       -2.900080    4.521577   -1.470117
     22          1           0        0.383440   -4.689644   -1.590410
     23          1           0        2.194335   -4.259421   -1.686562
     24          1           0        4.479079    2.599984   -0.352924
     25          1           0        3.497065    1.818971   -1.603499
     26          1           0        2.777146    2.239639   -0.037452
     27          1           0        5.184321    0.951796    2.306607
     28          1           0        4.653710   -0.734844    2.438581
     29          1           0        3.466199    0.578078    2.517378
     30          1           0        6.062652   -1.415904   -0.296557
     31          1           0        5.659672   -0.492778   -1.753354
     32          1           0        6.603917    0.263869   -0.458795
     33          1           0       -5.405271   -2.539307    0.724950
     34          1           0       -4.469647   -3.277298   -0.587931
     35          1           0       -4.135904   -3.718285    1.094431
     36          1           0       -3.958823   -0.533606    2.713160
     37          1           0       -2.264215   -0.090754    2.452456
     38          1           0       -2.674953   -1.721856    2.995177
     39          1           0       -4.322383   -0.496591   -1.379036
     40          1           0       -4.340435    0.612854   -0.023107
     41          1           0       -3.061079    1.527836   -1.955831
     42          1           0       -2.011309    0.104630   -1.958540
     43          1           0       -0.981069    0.771438    0.202514
 ---------------------------------------------------------------------
 Rotational constants (GHZ):           0.2515723           0.1533039           0.1092048
 Standard basis: 6-31+G(d,p) (6D, 7F)
 There are   517 symmetry adapted cartesian basis functions of A   symmetry.
 There are   517 symmetry adapted basis functions of A   symmetry.
   517 basis functions,   874 primitive gaussians,   517 cartesian basis functions
    83 alpha electrons       83 beta electrons
       nuclear repulsion energy      1687.0994471235 Hartrees.
 NAtoms=   43 NActive=   43 NUniq=   43 SFac= 1.00D+00 NAtFMM=   60 NAOKFM=F Big=F
 Integral buffers will be    131072 words long.
 Regular integral format.
 Two-electron integral symmetry is turned on.
 One-electron integrals computed using PRISM.
 NBasis=   517 RedAO= T EigKep=  1.21D-06  NBF=   517
 NBsUse=   515 1.00D-06 EigRej=  1.42D-07 NBFU=   515
 ExpMin= 3.31D-02 ExpMax= 1.61D+04 ExpMxC= 2.43D+03 IAcc=3 IRadAn=         5 AccDes= 0.00D+00
 Harris functional with IExCor=  402 and IRadAn=       5 diagonalized for initial guess.
 HarFok:  IExCor=  402 AccDes= 0.00D+00 IRadAn=         5 IDoV= 1 UseB2=F ITyADJ=14
 ICtDFT=  3500011 ScaDFX=  1.000000  1.000000  1.000000  1.000000
 FoFCou: FMM=F IPFlag=           0 FMFlag=      100000 FMFlg1=           0
         NFxFlg=           0 DoJE=T BraDBF=F KetDBF=T FulRan=T
         wScrn=  0.000000 ICntrl=       500 IOpCl=  0 I1Cent=   200000004 NGrid=           0
         NMat0=    1 NMatS0=      1 NMatT0=    0 NMatD0=    1 NMtDS0=    0 NMtDT0=    0
 Petite list used in FoFCou.
 Requested convergence on RMS density matrix=1.00D-08 within 128 cycles.
 Requested convergence on MAX density matrix=1.00D-06.
 Requested convergence on             energy=1.00D-06.
 No special actions if energy rises.
 SCF Done:  E(RB3LYP) =  -1349.51975943     A.U. after   17 cycles
            NFock= 17  Conv=0.63D-08     -V/T= 2.0075
 DoSCS=F DFT=T ScalE2(SS,OS)=  1.000000  1.000000
 ExpMin= 3.31D-02 ExpMax= 1.61D+04 ExpMxC= 2.43D+03 IAcc=3 IRadAn=         5 AccDes= 0.00D+00
 HarFok:  IExCor=  205 AccDes= 0.00D+00 IRadAn=         5 IDoV=-2 UseB2=F ITyADJ=14
 ICtDFT= 12500011 ScaDFX=  1.000000  1.000000  1.000000  1.000000
 GSVD:  LWork=       -1073 too small for GESVD, short by        4640 words or        4640 for optimal perf.
 Range of M.O.s used for correlation:    30   515
 NBasis=   517 NAE=    83 NBE=    83 NFC=    29 NFV=     0
 NROrb=    486 NOA=    54 NOB=    54 NVA=   432 NVB=   432

 **** Warning!!: The largest alpha MO coefficient is  0.26332780D+03

 Orbital symmetries:
       Occupied  (A) (A) (A) (A) (A) (A) (A) (A) (A) (A) (A) (A)
                 (A) (A) (A) (A) (A) (A) (A) (A) (A) (A) (A) (A)
                 (A) (A) (A) (A) (A) (A) (A) (A) (A) (A) (A) (A)
                 (A) (A) (A) (A) (A) (A) (A) (A) (A) (A) (A) (A)
                 (A) (A) (A) (A) (A) (A) (A) (A) (A) (A) (A) (A)
                 (A) (A) (A) (A) (A) (A) (A) (A) (A) (A) (A) (A)
                 (A) (A) (A) (A) (A) (A) (A) (A) (A) (A) (A)
       Virtual   (A) (A) (A) (A) (A) (A) (A) (A) (A) (A) (A) (A)
                 (A) (A) (A) (A) (A) (A) (A) (A) (A) (A) (A) (A)
                 (A) (A) (A) (A) (A) (A) (A) (A) (A) (A) (A) (A)
                 (A) (A) (A) (A) (A) (A) (A) (A) (A) (A) (A) (A)
                 (A) (A) (A) (A) (A) (A) (A) (A) (A) (A) (A) (A)
                 (A) (A) (A) (A) (A) (A) (A) (A) (A) (A) (A) (A)
                 (A) (A) (A) (A) (A) (A) (A) (A) (A) (A) (A) (A)
                 (A) (A) (A) (A) (A) (A) (A) (A) (A) (A) (A) (A)
                 (A) (A) (A) (A) (A) (A) (A) (A) (A) (A) (A) (A)
                 (A) (A) (A) (A) (A) (A) (A) (A) (A) (A) (A) (A)
                 (A) (A) (A) (A) (A) (A) (A) (A) (A) (A) (A) (A)
                 (A) (A) (A) (A) (A) (A) (A) (A) (A) (A) (A) (A)
                 (A) (A) (A) (A) (A) (A) (A) (A) (A) (A) (A) (A)
                 (A) (A) (A) (A) (A) (A) (A) (A) (A) (A) (A) (A)
                 (A) (A) (A) (A) (A) (A) (A) (A) (A) (A) (A) (A)
                 (A) (A) (A) (A) (A) (A) (A) (A) (A) (A) (A) (A)
                 (A) (A) (A) (A) (A) (A) (A) (A) (A) (A) (A) (A)
                 (A) (A) (A) (A) (A) (A) (A) (A) (A) (A) (A) (A)
                 (A) (A) (A) (A) (A) (A) (A) (A) (A) (A) (A) (A)
                 (A) (A) (A) (A) (A) (A) (A) (A) (A) (A) (A) (A)
                 (A) (A) (A) (A) (A) (A) (A) (A) (A) (A) (A) (A)
                 (A) (A) (A) (A) (A) (A) (A) (A) (A) (A) (A) (A)
                 (A) (A) (A) (A) (A) (A) (A) (A) (A) (A) (A) (A)
                 (A) (A) (A) (A) (A) (A) (A) (A) (A) (A) (A) (A)
                 (A) (A) (A) (A) (A) (A) (A) (A) (A) (A) (A) (A)
                 (A) (A) (A) (A) (A) (A) (A) (A) (A) (A) (A) (A)
                 (A) (A) (A) (A) (A) (A) (A) (A) (A) (A) (A) (A)
                 (A) (A) (A) (A) (A) (A) (A) (A) (A) (A) (A) (A)
                 (A) (A) (A) (A) (A) (A) (A) (A) (A) (A) (A) (A)
                 (A) (A) (A) (A) (A) (A) (A) (A) (A) (A) (A) (A)
                 (A) (A) (A) (A) (A) (A) (A) (A) (A) (A) (A) (A)
                 (A) (A) (A) (A) (A) (A) (A) (A) (A) (A) (A) (A)
                 (A) (A) (A) (A) (A) (A) (A) (A) (A) (A) (A) (A)
                 (A) (A) (A) (A) (A) (A) (A) (A) (A) (A) (A) (A)
                 (A) (A) (A) (A) (A) (A) (A) (A) (A) (A) (A) (A)
                 (A) (A) (A) (A) (A) (A) (A) (A) (A) (A) (A) (A)
    24 initial guesses have been made.
 Convergence on wavefunction:    0.001000000000000
 Iteration     1 Dimension    24 NMult     0 NNew     24
 CISAX will form    24 AO SS matrices at one time.
 New state      1 was old state      4
 New state      2 was old state     10
 New state      3 was old state      2
 New state      4 was old state      1
 New state      5 was old state     12
 New state      6 was old state      5
 New state      7 was old state      6
 New state      8 was old state     11
 New state      9 was old state     16
 New state     10 was old state      8
 New state     11 was old state      7
 New state     12 was old state     14
 Vector   5 SDiff=5.16D+00 TDiff=1.07D+01 assumed to be singlet.
 Vector  11 SDiff=5.16D+00 TDiff=1.06D+01 assumed to be singlet.
 Iteration     2 Dimension    36 NMult    24 NNew     12
 New state      5 was old state      6
 New state      6 was old state      8
 Iteration     3 Dimension    48 NMult    36 NNew     12
 Iteration     4 Dimension    60 NMult    48 NNew     12
 Iteration     5 Dimension    70 NMult    60 NNew     10
 Iteration     6 Dimension    72 NMult    70 NNew      2
 ***********************************************************************
 Excited states from <AA,BB:AA,BB> singles matrix:
 ***********************************************************************
 
 Ground to excited state transition densities written to RWF  633
 Ground to excited state transition electric dipole moments (Au):
       state          X           Y           Z        Dip. S.      Osc.
         1         0.0000      0.0000      0.0000      0.0000      0.0000
         2         0.0000      0.0000      0.0000      0.0000      0.0000
         3         0.0000      0.0000     -0.0000      0.0000      0.0000
         4         0.0002     -0.0102      0.0071      0.0002      0.0000
         5         0.0274     -0.0204     -0.0043      0.0012      0.0001
         6         0.0597     -0.0437     -0.0094      0.0056      0.0006
 Ground to excited state transition velocity dipole moments (Au):
       state          X           Y           Z        Dip. S.      Osc.
         1        -0.0000      0.0000      0.0000      0.0000      0.0000
         2        -0.0000     -0.0000     -0.0000      0.0000      0.0000
         3        -0.0000     -0.0000      0.0000      0.0000      0.0000
         4        -0.0001      0.0025     -0.0017      0.0000      0.0000
         5        -0.0038      0.0029      0.0024      0.0000      0.0001
         6        -0.0097      0.0086     -0.0017      0.0002      0.0007
 Ground to excited state transition magnetic dipole moments (Au):
       state          X           Y           Z
         1        -0.0000      0.0000      0.0000
         2         0.0000     -0.0000     -0.0000
         3        -0.0000      0.0000      0.0000
         4         0.0304      0.0267     -0.0462
         5         0.0543      0.0743      0.0409
         6        -0.0206     -0.0488      0.0047
 Ground to excited state transition velocity quadrupole moments (Au):
       state          XX          YY          ZZ          XY          XZ          YZ
         1         0.0000      0.0000      0.0000     -0.0000      0.0000     -0.0000
         2         0.0000      0.0000      0.0000     -0.0000      0.0000      0.0000
         3         0.0000      0.0000     -0.0000     -0.0000     -0.0000     -0.0000
         4         0.0380     -0.0119     -0.0066     -0.0025      0.0283      0.0024
         5         0.0135      0.0178      0.0067     -0.0214      0.0438      0.0002
         6        -0.0871      0.0130      0.0009      0.0296     -0.0469     -0.0117
 <0|del|b> * <b|rxdel|0> + <0|del|b> * <b|delr+rdel|0>
 Rotatory Strengths (R) in cgs (10**-40 erg-esu-cm/Gauss)
       state          XX          YY          ZZ    R(velocity)    E-M Angle
         1         0.0000      0.0000      0.0000      0.0000       90.00
         2         0.0000     -0.0000      0.0000      0.0000       90.00
         3        -0.0000      0.0000      0.0000      0.0000       90.00
         4         0.2096      0.1920      0.3570      0.2529       39.26
         5         0.2961     -0.1217      0.2885      0.1543       78.72
         6        -0.1617      0.7801     -1.6210     -0.3342      109.17
 1/2[<0|r|b>*<b|rxdel|0> + (<0|rxdel|b>*<b|r|0>)*]
 Rotatory Strengths (R) in cgs (10**-40 erg-esu-cm/Gauss)
       state          XX          YY          ZZ     R(length)
         1         0.0000     -0.0000     -0.0000     -0.0000
         2        -0.0000      0.0000      0.0000      0.0000
         3         0.0000     -0.0000      0.0000      0.0000
         4        -0.0050      0.1915      0.2330      0.1398
         5        -1.0540      1.0712      0.1237      0.0470
         6         0.8720     -1.5066      0.0310     -0.2012
  1/2[<0|del|b>*<b|r|0> + (<0|r|b>*<b|del|0>)*] (Au)
       state          X           Y           Z        Dip. S.   Osc.(frdel)
         1        -0.0000      0.0000      0.0000      0.0000      0.0000
         2        -0.0000     -0.0000     -0.0000      0.0000      0.0000
         3        -0.0000     -0.0000     -0.0000      0.0000      0.0000
         4        -0.0000     -0.0000     -0.0000      0.0000      0.0000
         5        -0.0001     -0.0001     -0.0000      0.0002      0.0001
         6        -0.0006     -0.0004      0.0000      0.0009      0.0006

 Excitation energies and oscillator strengths:
 
 Excited State   1:      Triplet-A      2.4388 eV  508.38 nm  f=0.0000  <S**2>=2.000
      83 -> 85         0.69305
      83 <- 85         0.13641
 This state for optimization and/or second-order correction.
 Total Energy, E(TD-HF/TD-DFT) =  -1349.43013472    
 Copying the excited state density for this state as the 1-particle RhoCI density.
 
 Excited State   2:      Triplet-A      2.9883 eV  414.90 nm  f=0.0000  <S**2>=2.000
      79 -> 84        -0.39715
      80 -> 84         0.57294
 
 Excited State   3:      Triplet-A      3.6827 eV  336.67 nm  f=0.0000  <S**2>=2.000
      83 -> 84         0.70482
 
 Excited State   4:      Singlet-A      3.6854 eV  336.42 nm  f=0.0000  <S**2>=0.000
      83 -> 84         0.70564
 
 Excited State   5:      Singlet-A      4.3718 eV  283.60 nm  f=0.0001  <S**2>=0.000
      82 -> 84         0.53720
      82 -> 85        -0.44508
 
 Excited State   6:      Singlet-A      4.3949 eV  282.11 nm  f=0.0006  <S**2>=0.000
      82 -> 84         0.44797
      82 -> 85         0.53376
 SavETr:  write IOETrn=   770 NScale= 10 NData=  16 NLR=1 NState=    6 LETran=     118.

 **********************************************************************

            Population analysis using the SCF Density.

 **********************************************************************

 Orbital symmetries:
       Occupied  (A) (A) (A) (A) (A) (A) (A) (A) (A) (A) (A) (A)
                 (A) (A) (A) (A) (A) (A) (A) (A) (A) (A) (A) (A)
                 (A) (A) (A) (A) (A) (A) (A) (A) (A) (A) (A) (A)
                 (A) (A) (A) (A) (A) (A) (A) (A) (A) (A) (A) (A)
                 (A) (A) (A) (A) (A) (A) (A) (A) (A) (A) (A) (A)
                 (A) (A) (A) (A) (A) (A) (A) (A) (A) (A) (A) (A)
                 (A) (A) (A) (A) (A) (A) (A) (A) (A) (A) (A)
       Virtual   (A) (A) (A) (A) (A) (A) (A) (A) (A) (A) (A) (A)
                 (A) (A) (A) (A) (A) (A) (A) (A) (A) (A) (A) (A)
                 (A) (A) (A) (A) (A) (A) (A) (A) (A) (A) (A) (A)
                 (A) (A) (A) (A) (A) (A) (A) (A) (A) (A) (A) (A)
                 (A) (A) (A) (A) (A) (A) (A) (A) (A) (A) (A) (A)
                 (A) (A) (A) (A) (A) (A) (A) (A) (A) (A) (A) (A)
                 (A) (A) (A) (A) (A) (A) (A) (A) (A) (A) (A) (A)
                 (A) (A) (A) (A) (A) (A) (A) (A) (A) (A) (A) (A)
                 (A) (A) (A) (A) (A) (A) (A) (A) (A) (A) (A) (A)
                 (A) (A) (A) (A) (A) (A) (A) (A) (A) (A) (A) (A)
                 (A) (A) (A) (A) (A) (A) (A) (A) (A) (A) (A) (A)
                 (A) (A) (A) (A) (A) (A) (A) (A) (A) (A) (A) (A)
                 (A) (A) (A) (A) (A) (A) (A) (A) (A) (A) (A) (A)
                 (A) (A) (A) (A) (A) (A) (A) (A) (A) (A) (A) (A)
                 (A) (A) (A) (A) (A) (A) (A) (A) (A) (A) (A) (A)
                 (A) (A) (A) (A) (A) (A) (A) (A) (A) (A) (A) (A)
                 (A) (A) (A) (A) (A) (A) (A) (A) (A) (A) (A) (A)
                 (A) (A) (A) (A) (A) (A) (A) (A) (A) (A) (A) (A)
                 (A) (A) (A) (A) (A) (A) (A) (A) (A) (A) (A) (A)
                 (A) (A) (A) (A) (A) (A) (A) (A) (A) (A) (A) (A)
                 (A) (A) (A) (A) (A) (A) (A) (A) (A) (A) (A) (A)
                 (A) (A) (A) (A) (A) (A) (A) (A) (A) (A) (A) (A)
                 (A) (A) (A) (A) (A) (A) (A) (A) (A) (A) (A) (A)
                 (A) (A) (A) (A) (A) (A) (A) (A) (A) (A) (A) (A)
                 (A) (A) (A) (A) (A) (A) (A) (A) (A) (A) (A) (A)
                 (A) (A) (A) (A) (A) (A) (A) (A) (A) (A) (A) (A)
                 (A) (A) (A) (A) (A) (A) (A) (A) (A) (A) (A) (A)
                 (A) (A) (A) (A) (A) (A) (A) (A) (A) (A) (A) (A)
                 (A) (A) (A) (A) (A) (A) (A) (A) (A) (A) (A) (A)
                 (A) (A) (A) (A) (A) (A) (A) (A) (A) (A) (A) (A)
                 (A) (A) (A) (A) (A) (A) (A) (A) (A) (A) (A) (A)
                 (A) (A) (A) (A) (A) (A) (A) (A) (A) (A) (A) (A)
                 (A) (A) (A) (A) (A) (A) (A) (A) (A) (A) (A) (A)
                 (A) (A) (A) (A) (A) (A) (A) (A) (A) (A) (A) (A)
                 (A) (A) (A) (A) (A) (A) (A) (A) (A) (A) (A) (A)
                 (A) (A) (A) (A) (A) (A) (A) (A) (A) (A) (A) (A)
 The electronic state is 1-A.
 Alpha  occ. eigenvalues --  -66.15894 -66.14269 -14.36829 -14.36664 -10.29165
 Alpha  occ. eigenvalues --  -10.26702 -10.26102 -10.26019 -10.26012 -10.23074
 Alpha  occ. eigenvalues --  -10.22301 -10.21876 -10.20751 -10.20487 -10.19216
 Alpha  occ. eigenvalues --  -10.18503 -10.18466 -10.18410 -10.17135 -10.16944
 Alpha  occ. eigenvalues --  -10.16827  -5.30173  -5.28549  -3.66176  -3.66010
 Alpha  occ. eigenvalues --   -3.65989  -3.64562  -3.64373  -3.64366  -0.94185
 Alpha  occ. eigenvalues --   -0.92811  -0.87063  -0.85070  -0.79846  -0.75915
 Alpha  occ. eigenvalues --   -0.74396  -0.72634  -0.71741  -0.69980  -0.69680
 Alpha  occ. eigenvalues --   -0.68487  -0.68322  -0.65036  -0.64018  -0.60355
 Alpha  occ. eigenvalues --   -0.57185  -0.53560  -0.51583  -0.50645  -0.48000
 Alpha  occ. eigenvalues --   -0.47752  -0.44456  -0.43208  -0.42827  -0.42736
 Alpha  occ. eigenvalues --   -0.42200  -0.41996  -0.41702  -0.41368  -0.41215
 Alpha  occ. eigenvalues --   -0.41173  -0.40269  -0.39806  -0.39652  -0.39304
 Alpha  occ. eigenvalues --   -0.39114  -0.38634  -0.38324  -0.38181  -0.37104
 Alpha  occ. eigenvalues --   -0.36655  -0.36546  -0.35827  -0.35558  -0.33411
 Alpha  occ. eigenvalues --   -0.32459  -0.31976  -0.31569  -0.29650  -0.29517
 Alpha  occ. eigenvalues --   -0.28733  -0.27651  -0.24983
 Alpha virt. eigenvalues --   -0.09539  -0.07605  -0.02455  -0.02013  -0.01773
 Alpha virt. eigenvalues --   -0.00930  -0.00202   0.00213   0.00380   0.00832
 Alpha virt. eigenvalues --    0.01167   0.01580   0.02092   0.02552   0.02793
 Alpha virt. eigenvalues --    0.02960   0.03281   0.03407   0.03889   0.03973
 Alpha virt. eigenvalues --    0.04511   0.05213   0.05416   0.05488   0.05788
 Alpha virt. eigenvalues --    0.06274   0.06617   0.06782   0.06943   0.07091
 Alpha virt. eigenvalues --    0.07398   0.07522   0.07751   0.08289   0.08698
 Alpha virt. eigenvalues --    0.09094   0.09214   0.09508   0.09564   0.09739
 Alpha virt. eigenvalues --    0.09934   0.10163   0.10408   0.10674   0.10982
 Alpha virt. eigenvalues --    0.11169   0.11401   0.11568   0.11668   0.12179
 Alpha virt. eigenvalues --    0.12479   0.12906   0.13479   0.13604   0.13872
 Alpha virt. eigenvalues --    0.14171   0.14263   0.14464   0.14738   0.15173
 Alpha virt. eigenvalues --    0.15204   0.15640   0.15726   0.16189   0.16652
 Alpha virt. eigenvalues --    0.17018   0.17335   0.17588   0.17785   0.18012
 Alpha virt. eigenvalues --    0.18236   0.18482   0.18784   0.19030   0.19322
 Alpha virt. eigenvalues --    0.19472   0.20178   0.20312   0.20412   0.20887
 Alpha virt. eigenvalues --    0.20949   0.21183   0.21600   0.21738   0.21852
 Alpha virt. eigenvalues --    0.22234   0.22721   0.23371   0.23666   0.24012
 Alpha virt. eigenvalues --    0.24452   0.24809   0.25324   0.25552   0.25661
 Alpha virt. eigenvalues --    0.25918   0.26362   0.26744   0.27043   0.27334
 Alpha virt. eigenvalues --    0.27597   0.27723   0.27986   0.28498   0.28596
 Alpha virt. eigenvalues --    0.29059   0.29199   0.29577   0.30303   0.30693
 Alpha virt. eigenvalues --    0.31164   0.31311   0.31877   0.32568   0.32983
 Alpha virt. eigenvalues --    0.33796   0.34345   0.34870   0.35329   0.36233
 Alpha virt. eigenvalues --    0.37557   0.37600   0.38592   0.39590   0.41689
 Alpha virt. eigenvalues --    0.41887   0.42257   0.42896   0.43573   0.45802
 Alpha virt. eigenvalues --    0.46808   0.46939   0.47502   0.47657   0.48027
 Alpha virt. eigenvalues --    0.49566   0.53811   0.54539   0.55184   0.55787
 Alpha virt. eigenvalues --    0.57220   0.59366   0.61894   0.66676   0.67237
 Alpha virt. eigenvalues --    0.67778   0.69029   0.69681   0.70290   0.70810
 Alpha virt. eigenvalues --    0.71203   0.71848   0.72147   0.72565   0.72865
 Alpha virt. eigenvalues --    0.73783   0.74047   0.74539   0.75214   0.75623
 Alpha virt. eigenvalues --    0.76008   0.76737   0.77350   0.77862   0.78301
 Alpha virt. eigenvalues --    0.78897   0.79090   0.79592   0.80387   0.80772
 Alpha virt. eigenvalues --    0.81239   0.81470   0.82059   0.82284   0.82687
 Alpha virt. eigenvalues --    0.82835   0.83599   0.83812   0.84300   0.84671
 Alpha virt. eigenvalues --    0.86212   0.86903   0.87006   0.87490   0.88572
 Alpha virt. eigenvalues --    0.88896   0.89741   0.89861   0.90781   0.90995
 Alpha virt. eigenvalues --    0.91554   0.91733   0.92924   0.93742   0.94380
 Alpha virt. eigenvalues --    0.95221   0.96818   0.97748   0.99010   0.99178
 Alpha virt. eigenvalues --    0.99841   0.99951   1.00738   1.01305   1.01448
 Alpha virt. eigenvalues --    1.01746   1.01994   1.02723   1.03047   1.03238
 Alpha virt. eigenvalues --    1.03867   1.04171   1.05126   1.06005   1.06877
 Alpha virt. eigenvalues --    1.08059   1.08474   1.09343   1.10096   1.11048
 Alpha virt. eigenvalues --    1.11762   1.12080   1.13572   1.14664   1.15086
 Alpha virt. eigenvalues --    1.16909   1.17883   1.18467   1.19165   1.20107
 Alpha virt. eigenvalues --    1.20651   1.22675   1.23450   1.25442   1.26854
 Alpha virt. eigenvalues --    1.28754   1.29816   1.30539   1.30875   1.31893
 Alpha virt. eigenvalues --    1.32635   1.33296   1.33974   1.35344   1.37019
 Alpha virt. eigenvalues --    1.38210   1.41652   1.42729   1.43106   1.44555
 Alpha virt. eigenvalues --    1.45287   1.46800   1.47350   1.47419   1.49270
 Alpha virt. eigenvalues --    1.50292   1.50781   1.51930   1.52229   1.53674
 Alpha virt. eigenvalues --    1.55545   1.56760   1.57515   1.58118   1.58290
 Alpha virt. eigenvalues --    1.60498   1.62483   1.63719   1.64010   1.64709
 Alpha virt. eigenvalues --    1.65574   1.66608   1.69142   1.72642   1.72923
 Alpha virt. eigenvalues --    1.73226   1.74140   1.75760   1.77254   1.78359
 Alpha virt. eigenvalues --    1.79307   1.83257   1.84085   1.87160   1.89182
 Alpha virt. eigenvalues --    1.90492   1.91221   1.91376   1.91507   1.92658
 Alpha virt. eigenvalues --    1.95955   1.96725   1.97977   1.98441   1.99861
 Alpha virt. eigenvalues --    2.00825   2.02166   2.02563   2.03039   2.03874
 Alpha virt. eigenvalues --    2.04198   2.04387   2.04890   2.04951   2.05092
 Alpha virt. eigenvalues --    2.07258   2.11041   2.11112   2.11379   2.11844
 Alpha virt. eigenvalues --    2.12244   2.12469   2.12877   2.13123   2.13396
 Alpha virt. eigenvalues --    2.13664   2.13909   2.14358   2.14626   2.15248
 Alpha virt. eigenvalues --    2.17153   2.18100   2.19007   2.19674   2.20021
 Alpha virt. eigenvalues --    2.21175   2.21932   2.23884   2.26253   2.29495
 Alpha virt. eigenvalues --    2.30495   2.31826   2.32216   2.33570   2.34486
 Alpha virt. eigenvalues --    2.34521   2.35515   2.37130   2.37202   2.38175
 Alpha virt. eigenvalues --    2.39408   2.41224   2.44822   2.45602   2.46049
 Alpha virt. eigenvalues --    2.47160   2.49975   2.51808   2.52291   2.54476
 Alpha virt. eigenvalues --    2.57000   2.59741   2.62059   2.63842   2.64574
 Alpha virt. eigenvalues --    2.65245   2.66189   2.67607   2.68330   2.68587
 Alpha virt. eigenvalues --    2.71384   2.72008   2.74348   2.78630   2.80721
 Alpha virt. eigenvalues --    2.81050   2.81198   2.81391   2.81536   2.81896
 Alpha virt. eigenvalues --    2.82413   2.82931   2.83715   2.83818   2.83922
 Alpha virt. eigenvalues --    2.85034   2.85134   2.85315   2.86511   2.88034
 Alpha virt. eigenvalues --    2.91775   2.96866   3.05143   3.05728   3.09435
 Alpha virt. eigenvalues --    3.12924   3.13614   3.22913   3.23124   3.23692
 Alpha virt. eigenvalues --    3.23784   3.23909   3.25034   3.29962   3.30121
 Alpha virt. eigenvalues --    3.31632   3.36479   3.37015   3.42212   3.43632
 Alpha virt. eigenvalues --    3.43665   3.44301   3.44557   3.45161   3.45625
 Alpha virt. eigenvalues --    3.45741   3.46051   3.46188   3.46781   3.47449
 Alpha virt. eigenvalues --    3.52825   3.55197   3.63822   4.20909   4.22594
 Alpha virt. eigenvalues --    4.24837   4.26148   4.36177   4.37264   4.37898
 Alpha virt. eigenvalues --    4.41851   4.47180   4.47905   4.48347   4.49435
 Alpha virt. eigenvalues --    4.51060   4.51311   4.59421   4.60120   4.67827
 Alpha virt. eigenvalues --    4.82465   4.90476
          Condensed to atoms (all electrons):
               1          2          3          4          5          6
     1  C    7.659565   1.625706  -2.716521   0.077621   0.005076   0.002349
     2  C    1.625706  21.578497 -10.029528   0.962193   0.122795  -0.027418
     3  C   -2.716521 -10.029528  29.467626  -0.754335  -0.340369   0.001665
     4  C    0.077621   0.962193  -0.754335   6.761089   0.344656  -0.000905
     5  Si   0.005076   0.122795  -0.340369   0.344656  12.170257   0.204362
     6  C    0.002349  -0.027418   0.001665  -0.000905   0.204362   5.515405
     7  C   -0.005087  -0.060954   0.035371  -0.015340   0.248907  -0.090205
     8  C   -0.011675  -0.042170   0.010869  -0.014860   0.208442  -0.072144
     9  C   -1.426074  -9.374175  -8.817099  -0.395344   0.048843  -0.012524
    10  C    0.116548   0.971978  -0.996521   0.096577  -0.006848  -0.000645
    11  Si   0.039325   0.193090  -0.109015  -0.004219  -0.007190   0.000556
    12  C    0.003788  -0.037522  -0.004983  -0.001108  -0.000222   0.000017
    13  C   -0.011752  -0.030692   0.004212   0.002129   0.001859  -0.000226
    14  C    0.010473   0.018682  -0.012127  -0.001318  -0.002056   0.000170
    15  C   -0.027269  -0.059399   0.102651  -0.007975   0.000161   0.003203
    16  C    0.006399  -0.111325  -0.049641  -0.126214  -0.030173   0.025960
    17  C    0.005166   0.199447  -0.054306   0.119610   0.014908  -0.015482
    18  C   -0.002989   0.022237   0.008534   0.024413   0.001034  -0.013014
    19  N    0.000167   0.002370  -0.002295  -0.001508   0.003055  -0.004522
    20  C   -0.003559  -0.033264   0.021557   0.005136   0.010858  -0.006203
    21  N    0.000050   0.000406  -0.000322  -0.000106  -0.000165   0.000195
    22  H    0.529295  -0.029069  -0.069680   0.003087   0.000020   0.000000
    23  H    0.501825  -0.046674  -0.045873   0.006306   0.000691   0.000001
    24  H    0.000010   0.004140   0.004664  -0.002865  -0.036579   0.393272
    25  H    0.000301   0.000742  -0.002462  -0.010129  -0.022534   0.386304
    26  H   -0.000365  -0.005551   0.001967  -0.010096  -0.005839   0.377230
    27  H    0.000038   0.004348   0.004411  -0.002843  -0.036614  -0.001105
    28  H    0.000641   0.001015  -0.002205  -0.008714  -0.027551   0.012009
    29  H   -0.000430  -0.002235   0.002235  -0.013919  -0.024572  -0.003883
    30  H   -0.000528   0.007276  -0.008117  -0.016115  -0.019837   0.010402
    31  H   -0.000354   0.004137  -0.006629  -0.011427  -0.020590  -0.004047
    32  H    0.000350   0.004863   0.002544  -0.005048  -0.027441  -0.002941
    33  H    0.000199   0.003304  -0.000072   0.000019   0.000001  -0.000000
    34  H   -0.000069  -0.000692   0.000388  -0.000033  -0.000003   0.000000
    35  H   -0.000506   0.004624   0.000566   0.000003  -0.000003   0.000000
    36  H   -0.000032   0.005281   0.001044   0.000105   0.000006  -0.000001
    37  H   -0.000218  -0.006515  -0.000190  -0.000427   0.000050   0.000006
    38  H   -0.000018   0.001955   0.000230   0.000009  -0.000022   0.000000
    39  H    0.000844   0.002177  -0.002001   0.000059  -0.000007   0.000001
    40  H   -0.000038   0.004703   0.000958   0.000070  -0.000003   0.000000
    41  H   -0.000162  -0.004305   0.001000  -0.000242  -0.000058   0.000013
    42  H    0.003023   0.005415  -0.005683  -0.000118   0.000169   0.000083
    43  H   -0.000524  -0.023594   0.006173  -0.002220  -0.000400   0.000272
               7          8          9         10         11         12
     1  C   -0.005087  -0.011675  -1.426074   0.116548   0.039325   0.003788
     2  C   -0.060954  -0.042170  -9.374175   0.971978   0.193090  -0.037522
     3  C    0.035371   0.010869  -8.817099  -0.996521  -0.109015  -0.004983
     4  C   -0.015340  -0.014860  -0.395344   0.096577  -0.004219  -0.001108
     5  Si   0.248907   0.208442   0.048843  -0.006848  -0.007190  -0.000222
     6  C   -0.090205  -0.072144  -0.012524  -0.000645   0.000556   0.000017
     7  C    5.427834  -0.051699  -0.021593  -0.000393   0.000827   0.000025
     8  C   -0.051699   5.434524   0.021780  -0.001506  -0.000088  -0.000006
     9  C   -0.021593   0.021780  26.819922  -0.407334  -0.459719  -0.016491
    10  C   -0.000393  -0.001506  -0.407334   7.124205   0.284128   0.022498
    11  Si   0.000827  -0.000088  -0.459719   0.284128  12.785449   0.224547
    12  C    0.000025  -0.000006  -0.016491   0.022498   0.224547   5.385191
    13  C    0.000018   0.000004  -0.003604   0.014645   0.118050  -0.032502
    14  C    0.000008   0.000022  -0.017741  -0.028751  -0.011164  -0.084449
    15  C    0.000837   0.000094   0.031047  -0.207315  -0.011585   0.027385
    16  C    0.002121   0.001292   0.203526   0.228668  -0.283123  -0.020798
    17  C   -0.002341  -0.000977  -0.272820  -0.026446   0.319712   0.017765
    18  C    0.000199  -0.000761  -0.046507  -0.046012  -0.066107   0.001191
    19  N    0.000193   0.000049  -0.000099   0.001061   0.003576  -0.000043
    20  C   -0.000417  -0.000071   0.022330   0.001115  -0.010037   0.001223
    21  N    0.000006   0.000001  -0.000424   0.000221   0.000645   0.000024
    22  H    0.000007  -0.000023  -0.091326   0.010260   0.000834   0.000302
    23  H    0.000015   0.000245  -0.064408   0.003101  -0.000048  -0.000016
    24  H   -0.002421  -0.002475   0.000527   0.000075   0.000014  -0.000000
    25  H    0.011572  -0.003609  -0.001597   0.000070  -0.000004   0.000000
    26  H   -0.006298   0.010150   0.001800  -0.000456  -0.000023  -0.000000
    27  H    0.394997  -0.003628   0.000535   0.000053  -0.000002  -0.000000
    28  H    0.392396  -0.004491  -0.001760   0.000007  -0.000011   0.000000
    29  H    0.392061   0.009385   0.003264  -0.000152  -0.000015  -0.000000
    30  H   -0.003867   0.391440   0.001058   0.000003  -0.000002  -0.000000
    31  H    0.009267   0.391483   0.000454   0.000011  -0.000006   0.000000
    32  H   -0.004504   0.393565  -0.000252   0.000029   0.000001   0.000000
    33  H   -0.000000   0.000000   0.006023  -0.002242  -0.037195   0.401073
    34  H    0.000000  -0.000000   0.000766  -0.013207  -0.018067   0.397083
    35  H    0.000000  -0.000000  -0.008012  -0.022164  -0.017591   0.398914
    36  H   -0.000001  -0.000000   0.010348  -0.016445  -0.048590  -0.007379
    37  H    0.000002   0.000000   0.001085   0.001881  -0.026918   0.007329
    38  H    0.000002  -0.000000  -0.001924  -0.023969  -0.038243  -0.005760
    39  H    0.000000   0.000000  -0.003822  -0.004752  -0.004230   0.002860
    40  H    0.000000  -0.000000   0.007833  -0.011257  -0.036679  -0.005738
    41  H   -0.000001  -0.000000   0.003264  -0.004030   0.014923  -0.000159
    42  H    0.000001   0.000001   0.011077   0.006906  -0.026640  -0.003192
    43  H   -0.000116   0.000007   0.019786  -0.024076   0.044645   0.001356
              13         14         15         16         17         18
     1  C   -0.011752   0.010473  -0.027269   0.006399   0.005166  -0.002989
     2  C   -0.030692   0.018682  -0.059399  -0.111325   0.199447   0.022237
     3  C    0.004212  -0.012127   0.102651  -0.049641  -0.054306   0.008534
     4  C    0.002129  -0.001318  -0.007975  -0.126214   0.119610   0.024413
     5  Si   0.001859  -0.002056   0.000161  -0.030173   0.014908   0.001034
     6  C   -0.000226   0.000170   0.003203   0.025960  -0.015482  -0.013014
     7  C    0.000018   0.000008   0.000837   0.002121  -0.002341   0.000199
     8  C    0.000004   0.000022   0.000094   0.001292  -0.000977  -0.000761
     9  C   -0.003604  -0.017741   0.031047   0.203526  -0.272820  -0.046507
    10  C    0.014645  -0.028751  -0.207315   0.228668  -0.026446  -0.046012
    11  Si   0.118050  -0.011164  -0.011585  -0.283123   0.319712  -0.066107
    12  C   -0.032502  -0.084449   0.027385  -0.020798   0.017765   0.001191
    13  C    5.391232  -0.033547  -0.010262   0.014528  -0.033311   0.027642
    14  C   -0.033547   6.231959   0.126901   0.464852  -0.467690  -0.093989
    15  C   -0.010262   0.126901   7.025285  -1.014062   0.489008  -0.411149
    16  C    0.014528   0.464852  -1.014062  20.393762  -9.068822  -2.538080
    17  C   -0.033311  -0.467690   0.489008  -9.068822  15.246262  -1.047932
    18  C    0.027642  -0.093989  -0.411149  -2.538080  -1.047932  11.758050
    19  N   -0.000887  -0.000241   0.020356   0.054559   0.159355  -0.058839
    20  C    0.006094  -0.158982  -0.824298  -2.840914  -0.558018  -1.194573
    21  N    0.000033  -0.001363   0.031255   0.220563   0.109765   0.046694
    22  H   -0.000003   0.000157  -0.000068  -0.000030  -0.000046   0.000010
    23  H    0.000022  -0.000008   0.000179  -0.000156  -0.000081   0.000002
    24  H   -0.000001  -0.000001   0.000010  -0.000416   0.000586  -0.000709
    25  H   -0.000000   0.000002  -0.000231  -0.001304   0.002249  -0.000879
    26  H    0.000007  -0.000055   0.000792   0.002064  -0.001967  -0.001125
    27  H    0.000000   0.000000   0.000001   0.000092  -0.000137   0.000160
    28  H    0.000001   0.000000   0.000004   0.000073  -0.000084   0.000083
    29  H    0.000003   0.000004   0.000053   0.000745  -0.001562   0.000690
    30  H    0.000000  -0.000000   0.000000  -0.000003   0.000000   0.000005
    31  H    0.000000   0.000000  -0.000007  -0.000020   0.000015   0.000006
    32  H   -0.000000  -0.000000  -0.000000  -0.000006   0.000013  -0.000013
    33  H   -0.007677  -0.001529   0.002009  -0.000909  -0.001244  -0.000005
    34  H    0.005694  -0.005216  -0.001201   0.000175  -0.001047  -0.000011
    35  H   -0.003677   0.011701  -0.001172  -0.000305   0.000198  -0.000026
    36  H    0.415696  -0.001944  -0.000200  -0.002555   0.004306   0.000817
    37  H    0.388475  -0.016287   0.008439   0.011217  -0.002497  -0.002410
    38  H    0.416198   0.013512   0.003974  -0.001755  -0.000366   0.000525
    39  H    0.001176   0.392648  -0.096826   0.027124   0.013632   0.001309
    40  H    0.003587   0.393997  -0.043858   0.018753   0.006613  -0.000604
    41  H   -0.000994  -0.020635   0.425910  -0.053153  -0.033954  -0.009934
    42  H    0.000487  -0.051760   0.439171   0.010183  -0.060771  -0.014036
    43  H   -0.004851  -0.002826   0.029343   0.145079   0.120642  -0.058637
              19         20         21         22         23         24
     1  C    0.000167  -0.003559   0.000050   0.529295   0.501825   0.000010
     2  C    0.002370  -0.033264   0.000406  -0.029069  -0.046674   0.004140
     3  C   -0.002295   0.021557  -0.000322  -0.069680  -0.045873   0.004664
     4  C   -0.001508   0.005136  -0.000106   0.003087   0.006306  -0.002865
     5  Si   0.003055   0.010858  -0.000165   0.000020   0.000691  -0.036579
     6  C   -0.004522  -0.006203   0.000195   0.000000   0.000001   0.393272
     7  C    0.000193  -0.000417   0.000006   0.000007   0.000015  -0.002421
     8  C    0.000049  -0.000071   0.000001  -0.000023   0.000245  -0.002475
     9  C   -0.000099   0.022330  -0.000424  -0.091326  -0.064408   0.000527
    10  C    0.001061   0.001115   0.000221   0.010260   0.003101   0.000075
    11  Si   0.003576  -0.010037   0.000645   0.000834  -0.000048   0.000014
    12  C   -0.000043   0.001223   0.000024   0.000302  -0.000016  -0.000000
    13  C   -0.000887   0.006094   0.000033  -0.000003   0.000022  -0.000001
    14  C   -0.000241  -0.158982  -0.001363   0.000157  -0.000008  -0.000001
    15  C    0.020356  -0.824298   0.031255  -0.000068   0.000179   0.000010
    16  C    0.054559  -2.840914   0.220563  -0.000030  -0.000156  -0.000416
    17  C    0.159355  -0.558018   0.109765  -0.000046  -0.000081   0.000586
    18  C   -0.058839  -1.194573   0.046694   0.000010   0.000002  -0.000709
    19  N    7.179697   0.070457  -0.000828  -0.000000  -0.000000   0.000493
    20  C    0.070457  12.020344  -0.201559  -0.000004  -0.000002  -0.000080
    21  N   -0.000828  -0.201559   7.274771   0.000000   0.000000  -0.000000
    22  H   -0.000000  -0.000004   0.000000   0.522764  -0.030575  -0.000000
    23  H   -0.000000  -0.000002   0.000000  -0.030575   0.518370  -0.000000
    24  H    0.000493  -0.000080  -0.000000  -0.000000  -0.000000   0.521843
    25  H    0.000035   0.000453   0.000002   0.000000   0.000000  -0.023652
    26  H    0.001498  -0.000613   0.000008  -0.000000   0.000000  -0.021775
    27  H    0.000002  -0.000009   0.000000   0.000000  -0.000000   0.000278
    28  H   -0.000008  -0.000002  -0.000000  -0.000000   0.000000   0.000005
    29  H    0.000189  -0.000063   0.000000  -0.000000   0.000000   0.000030
    30  H   -0.000000   0.000000  -0.000000   0.000000  -0.000000   0.000007
    31  H   -0.000001   0.000002   0.000000   0.000000   0.000000   0.000003
    32  H    0.000001  -0.000000   0.000000   0.000000  -0.000000   0.000342
    33  H   -0.000000   0.000037  -0.000000  -0.000000   0.000000   0.000000
    34  H    0.000000  -0.000026   0.000000   0.000000   0.000000  -0.000000
    35  H    0.000000  -0.000018   0.000000   0.000000   0.000000  -0.000000
    36  H   -0.000010   0.000490  -0.000001  -0.000000  -0.000000  -0.000000
    37  H    0.000373   0.000213  -0.000015   0.000000  -0.000000  -0.000000
    38  H   -0.000008  -0.000009  -0.000001   0.000000  -0.000000  -0.000000
    39  H   -0.000000   0.000238   0.000094  -0.000000  -0.000000   0.000000
    40  H   -0.000010  -0.013979   0.000225   0.000000   0.000000   0.000000
    41  H    0.000331  -0.003211   0.004127  -0.000000  -0.000000  -0.000000
    42  H    0.000020  -0.004230   0.000039   0.000000   0.000000  -0.000000
    43  H    0.002328   0.048821  -0.000323  -0.000000   0.000000  -0.000000
              25         26         27         28         29         30
     1  C    0.000301  -0.000365   0.000038   0.000641  -0.000430  -0.000528
     2  C    0.000742  -0.005551   0.004348   0.001015  -0.002235   0.007276
     3  C   -0.002462   0.001967   0.004411  -0.002205   0.002235  -0.008117
     4  C   -0.010129  -0.010096  -0.002843  -0.008714  -0.013919  -0.016115
     5  Si  -0.022534  -0.005839  -0.036614  -0.027551  -0.024572  -0.019837
     6  C    0.386304   0.377230  -0.001105   0.012009  -0.003883   0.010402
     7  C    0.011572  -0.006298   0.394997   0.392396   0.392061  -0.003867
     8  C   -0.003609   0.010150  -0.003628  -0.004491   0.009385   0.391440
     9  C   -0.001597   0.001800   0.000535  -0.001760   0.003264   0.001058
    10  C    0.000070  -0.000456   0.000053   0.000007  -0.000152   0.000003
    11  Si  -0.000004  -0.000023  -0.000002  -0.000011  -0.000015  -0.000002
    12  C    0.000000  -0.000000  -0.000000   0.000000  -0.000000  -0.000000
    13  C   -0.000000   0.000007   0.000000   0.000001   0.000003   0.000000
    14  C    0.000002  -0.000055   0.000000   0.000000   0.000004  -0.000000
    15  C   -0.000231   0.000792   0.000001   0.000004   0.000053   0.000000
    16  C   -0.001304   0.002064   0.000092   0.000073   0.000745  -0.000003
    17  C    0.002249  -0.001967  -0.000137  -0.000084  -0.001562   0.000000
    18  C   -0.000879  -0.001125   0.000160   0.000083   0.000690   0.000005
    19  N    0.000035   0.001498   0.000002  -0.000008   0.000189  -0.000000
    20  C    0.000453  -0.000613  -0.000009  -0.000002  -0.000063   0.000000
    21  N    0.000002   0.000008   0.000000  -0.000000   0.000000  -0.000000
    22  H    0.000000  -0.000000   0.000000  -0.000000  -0.000000   0.000000
    23  H    0.000000   0.000000  -0.000000   0.000000   0.000000  -0.000000
    24  H   -0.023652  -0.021775   0.000278   0.000005   0.000030   0.000007
    25  H    0.523268  -0.021959   0.000004  -0.000018   0.000001  -0.000001
    26  H   -0.021959   0.502210   0.000018   0.000001   0.000419  -0.000017
    27  H    0.000004   0.000018   0.522381  -0.023793  -0.022466   0.000026
    28  H   -0.000018   0.000001  -0.023793   0.519529  -0.022411   0.000436
    29  H    0.000001   0.000419  -0.022466  -0.022411   0.510783   0.000005
    30  H   -0.000001  -0.000017   0.000026   0.000436   0.000005   0.518342
    31  H    0.000425   0.000002   0.000007   0.000002  -0.000017  -0.022449
    32  H    0.000018   0.000004   0.000339   0.000041   0.000009  -0.023591
    33  H    0.000000  -0.000000   0.000000   0.000000  -0.000000  -0.000000
    34  H    0.000000   0.000000  -0.000000  -0.000000  -0.000000  -0.000000
    35  H   -0.000000   0.000000  -0.000000   0.000000  -0.000000   0.000000
    36  H   -0.000000  -0.000000   0.000000   0.000000  -0.000000   0.000000
    37  H   -0.000000   0.000000  -0.000000  -0.000000   0.000000  -0.000000
    38  H    0.000000   0.000000  -0.000000  -0.000000   0.000000   0.000000
    39  H    0.000000   0.000000  -0.000000   0.000000  -0.000000  -0.000000
    40  H   -0.000000  -0.000000  -0.000000  -0.000000  -0.000000   0.000000
    41  H   -0.000000  -0.000000  -0.000000   0.000000   0.000000  -0.000000
    42  H   -0.000000   0.000000   0.000000  -0.000000   0.000000   0.000000
    43  H   -0.000001  -0.000006  -0.000000  -0.000000  -0.000000  -0.000000
              31         32         33         34         35         36
     1  C   -0.000354   0.000350   0.000199  -0.000069  -0.000506  -0.000032
     2  C    0.004137   0.004863   0.003304  -0.000692   0.004624   0.005281
     3  C   -0.006629   0.002544  -0.000072   0.000388   0.000566   0.001044
     4  C   -0.011427  -0.005048   0.000019  -0.000033   0.000003   0.000105
     5  Si  -0.020590  -0.027441   0.000001  -0.000003  -0.000003   0.000006
     6  C   -0.004047  -0.002941  -0.000000   0.000000   0.000000  -0.000001
     7  C    0.009267  -0.004504  -0.000000   0.000000   0.000000  -0.000001
     8  C    0.391483   0.393565   0.000000  -0.000000  -0.000000  -0.000000
     9  C    0.000454  -0.000252   0.006023   0.000766  -0.008012   0.010348
    10  C    0.000011   0.000029  -0.002242  -0.013207  -0.022164  -0.016445
    11  Si  -0.000006   0.000001  -0.037195  -0.018067  -0.017591  -0.048590
    12  C    0.000000   0.000000   0.401073   0.397083   0.398914  -0.007379
    13  C    0.000000  -0.000000  -0.007677   0.005694  -0.003677   0.415696
    14  C    0.000000  -0.000000  -0.001529  -0.005216   0.011701  -0.001944
    15  C   -0.000007  -0.000000   0.002009  -0.001201  -0.001172  -0.000200
    16  C   -0.000020  -0.000006  -0.000909   0.000175  -0.000305  -0.002555
    17  C    0.000015   0.000013  -0.001244  -0.001047   0.000198   0.004306
    18  C    0.000006  -0.000013  -0.000005  -0.000011  -0.000026   0.000817
    19  N   -0.000001   0.000001  -0.000000   0.000000   0.000000  -0.000010
    20  C    0.000002  -0.000000   0.000037  -0.000026  -0.000018   0.000490
    21  N    0.000000   0.000000  -0.000000   0.000000   0.000000  -0.000001
    22  H    0.000000   0.000000  -0.000000   0.000000   0.000000  -0.000000
    23  H    0.000000  -0.000000   0.000000   0.000000   0.000000  -0.000000
    24  H    0.000003   0.000342   0.000000  -0.000000  -0.000000  -0.000000
    25  H    0.000425   0.000018   0.000000   0.000000  -0.000000  -0.000000
    26  H    0.000002   0.000004  -0.000000   0.000000   0.000000  -0.000000
    27  H    0.000007   0.000339   0.000000  -0.000000  -0.000000   0.000000
    28  H    0.000002   0.000041   0.000000  -0.000000   0.000000   0.000000
    29  H   -0.000017   0.000009  -0.000000  -0.000000  -0.000000  -0.000000
    30  H   -0.022449  -0.023591  -0.000000  -0.000000   0.000000   0.000000
    31  H    0.517883  -0.023576  -0.000000   0.000000   0.000000  -0.000000
    32  H   -0.023576   0.522917  -0.000000  -0.000000  -0.000000   0.000000
    33  H   -0.000000  -0.000000   0.518831  -0.024093  -0.023226   0.000359
    34  H    0.000000  -0.000000  -0.024093   0.512045  -0.021782   0.000012
    35  H    0.000000  -0.000000  -0.023226  -0.021782   0.511450   0.000028
    36  H   -0.000000   0.000000   0.000359   0.000012   0.000028   0.519328
    37  H    0.000000  -0.000000   0.000012  -0.000016   0.000005  -0.023330
    38  H    0.000000   0.000000   0.000055   0.000013   0.000443  -0.023652
    39  H   -0.000000   0.000000  -0.000269   0.000384   0.000028   0.000034
    40  H    0.000000   0.000000   0.000163   0.000049  -0.000018   0.000397
    41  H    0.000000  -0.000000   0.000000  -0.000001   0.000000   0.000001
    42  H    0.000000  -0.000000   0.000000   0.000017  -0.000002  -0.000002
    43  H    0.000000  -0.000000   0.000000   0.000000   0.000000   0.000025
              37         38         39         40         41         42
     1  C   -0.000218  -0.000018   0.000844  -0.000038  -0.000162   0.003023
     2  C   -0.006515   0.001955   0.002177   0.004703  -0.004305   0.005415
     3  C   -0.000190   0.000230  -0.002001   0.000958   0.001000  -0.005683
     4  C   -0.000427   0.000009   0.000059   0.000070  -0.000242  -0.000118
     5  Si   0.000050  -0.000022  -0.000007  -0.000003  -0.000058   0.000169
     6  C    0.000006   0.000000   0.000001   0.000000   0.000013   0.000083
     7  C    0.000002   0.000002   0.000000   0.000000  -0.000001   0.000001
     8  C    0.000000  -0.000000   0.000000  -0.000000  -0.000000   0.000001
     9  C    0.001085  -0.001924  -0.003822   0.007833   0.003264   0.011077
    10  C    0.001881  -0.023969  -0.004752  -0.011257  -0.004030   0.006906
    11  Si  -0.026918  -0.038243  -0.004230  -0.036679   0.014923  -0.026640
    12  C    0.007329  -0.005760   0.002860  -0.005738  -0.000159  -0.003192
    13  C    0.388475   0.416198   0.001176   0.003587  -0.000994   0.000487
    14  C   -0.016287   0.013512   0.392648   0.393997  -0.020635  -0.051760
    15  C    0.008439   0.003974  -0.096826  -0.043858   0.425910   0.439171
    16  C    0.011217  -0.001755   0.027124   0.018753  -0.053153   0.010183
    17  C   -0.002497  -0.000366   0.013632   0.006613  -0.033954  -0.060771
    18  C   -0.002410   0.000525   0.001309  -0.000604  -0.009934  -0.014036
    19  N    0.000373  -0.000008  -0.000000  -0.000010   0.000331   0.000020
    20  C    0.000213  -0.000009   0.000238  -0.013979  -0.003211  -0.004230
    21  N   -0.000015  -0.000001   0.000094   0.000225   0.004127   0.000039
    22  H    0.000000   0.000000  -0.000000   0.000000  -0.000000   0.000000
    23  H   -0.000000  -0.000000  -0.000000   0.000000  -0.000000   0.000000
    24  H   -0.000000  -0.000000   0.000000   0.000000  -0.000000  -0.000000
    25  H   -0.000000   0.000000   0.000000  -0.000000  -0.000000  -0.000000
    26  H    0.000000   0.000000   0.000000  -0.000000  -0.000000   0.000000
    27  H   -0.000000  -0.000000  -0.000000  -0.000000  -0.000000   0.000000
    28  H   -0.000000  -0.000000   0.000000  -0.000000   0.000000  -0.000000
    29  H    0.000000   0.000000  -0.000000  -0.000000   0.000000   0.000000
    30  H   -0.000000   0.000000  -0.000000   0.000000  -0.000000   0.000000
    31  H    0.000000   0.000000  -0.000000   0.000000   0.000000   0.000000
    32  H   -0.000000   0.000000   0.000000   0.000000  -0.000000  -0.000000
    33  H    0.000012   0.000055  -0.000269   0.000163   0.000000   0.000000
    34  H   -0.000016   0.000013   0.000384   0.000049  -0.000001   0.000017
    35  H    0.000005   0.000443   0.000028  -0.000018   0.000000  -0.000002
    36  H   -0.023330  -0.023652   0.000034   0.000397   0.000001  -0.000002
    37  H    0.512697  -0.022036   0.000003   0.000004  -0.000005   0.000001
    38  H   -0.022036   0.507625  -0.000018   0.000020   0.000000  -0.000001
    39  H    0.000003  -0.000018   0.535340  -0.025862  -0.004503  -0.003925
    40  H    0.000004   0.000020  -0.025862   0.532415  -0.005232   0.004557
    41  H   -0.000005   0.000000  -0.004503  -0.005232   0.555075  -0.030168
    42  H    0.000001  -0.000001  -0.003925   0.004557  -0.030168   0.537619
    43  H    0.000289   0.000027  -0.000098  -0.000112   0.004037  -0.003468
              43
     1  C   -0.000524
     2  C   -0.023594
     3  C    0.006173
     4  C   -0.002220
     5  Si  -0.000400
     6  C    0.000272
     7  C   -0.000116
     8  C    0.000007
     9  C    0.019786
    10  C   -0.024076
    11  Si   0.044645
    12  C    0.001356
    13  C   -0.004851
    14  C   -0.002826
    15  C    0.029343
    16  C    0.145079
    17  C    0.120642
    18  C   -0.058637
    19  N    0.002328
    20  C    0.048821
    21  N   -0.000323
    22  H   -0.000000
    23  H    0.000000
    24  H   -0.000000
    25  H   -0.000001
    26  H   -0.000006
    27  H   -0.000000
    28  H   -0.000000
    29  H   -0.000000
    30  H   -0.000000
    31  H    0.000000
    32  H   -0.000000
    33  H    0.000000
    34  H    0.000000
    35  H    0.000000
    36  H    0.000025
    37  H    0.000289
    38  H    0.000027
    39  H   -0.000098
    40  H   -0.000112
    41  H    0.004037
    42  H   -0.003468
    43  H    0.527978
 Mulliken charges:
               1
     1  C   -0.380590
     2  C    0.173702
     3  C    0.351310
     4  C   -0.995654
     5  Si   1.222925
     6  C   -0.678211
     7  C   -0.651429
     8  C   -0.663169
     9  C    0.229381
    10  C   -1.039521
    11  Si   1.186191
    12  C   -0.672202
    13  C   -0.637805
    14  C   -0.651409
    15  C   -0.051192
    16  C    0.312031
    17  C    0.822651
    18  C   -0.285259
    19  N   -0.430867
    20  C   -0.355227
    21  N   -0.484017
    22  H    0.154088
    23  H    0.157083
    24  H    0.164676
    25  H    0.162936
    26  H    0.177977
    27  H    0.162907
    28  H    0.164804
    29  H    0.171850
    30  H    0.165529
    31  H    0.165425
    32  H    0.162336
    33  H    0.166377
    34  H    0.168840
    35  H    0.170540
    36  H    0.165866
    37  H    0.168786
    38  H    0.173194
    39  H    0.168361
    40  H    0.169047
    41  H    0.162066
    42  H    0.185226
    43  H    0.170448
 Sum of Mulliken charges =  -0.00000
 Mulliken charges with hydrogens summed into heavy atoms:
               1
     1  C   -0.069419
     2  C    0.173702
     3  C    0.351310
     4  C   -0.995654
     5  Si   1.222925
     6  C   -0.172621
     7  C   -0.151868
     8  C   -0.169880
     9  C    0.229381
    10  C   -1.039521
    11  Si   1.186191
    12  C   -0.166445
    13  C   -0.129960
    14  C   -0.314001
    15  C    0.296099
    16  C    0.482479
    17  C    0.822651
    18  C   -0.285259
    19  N   -0.430867
    20  C   -0.355227
    21  N   -0.484017
 Electronic spatial extent (au):  <R**2>=          10128.3111
 Charge=             -0.0000 electrons
 Dipole moment (field-independent basis, Debye):
    X=             -0.7163    Y=             -5.6544    Z=             -0.6572  Tot=              5.7374
 Quadrupole moment (field-independent basis, Debye-Ang):
   XX=           -130.4078   YY=           -165.7537   ZZ=           -146.5505
   XY=             11.3942   XZ=             -6.0261   YZ=              3.2828
 Traceless Quadrupole moment (field-independent basis, Debye-Ang):
   XX=             17.1629   YY=            -18.1831   ZZ=              1.0202
   XY=             11.3942   XZ=             -6.0261   YZ=              3.2828
 Octapole moment (field-independent basis, Debye-Ang**2):
  XXX=             17.9648  YYY=           -177.5042  ZZZ=             -4.4892  XYY=             62.0228
  XXY=            -40.2068  XXZ=             23.9960  XZZ=             -2.1259  YZZ=            -32.1198
  YYZ=             -0.5540  XYZ=            -22.9556
 Hexadecapole moment (field-independent basis, Debye-Ang**3):
 XXXX=          -8308.1215 YYYY=          -5269.2296 ZZZZ=          -1226.6745 XXXY=            263.1207
 XXXZ=            -22.1836 YYYX=            270.2283 YYYZ=            179.3770 ZZZX=            -24.9560
 ZZZY=            -11.4063 XXYY=          -2413.3597 XXZZ=          -1636.8599 YYZZ=          -1080.9214
 XXYZ=             83.3792 YYXZ=           -175.0030 ZZXY=             46.4585
 N-N= 1.687099447124D+03 E-N=-6.534049855421D+03  KE= 1.339530335050D+03
 Unable to Open any file for archive entry.
 1\1\GINC-N2\SP\RB3LYP TD-FC\6-31+G(d,p)\C17H22N2Si2\HPCMGAC13\08-Aug-2
 025\0\\# td=(50-50,nstates=3) b3lyp/6-31+g(d,p) geom=connectivity\\Tit
 le Card Required\\0,1\C,0,-1.187315,-3.990874,1.388363\C,0,-0.940701,-
 2.809128,0.774976\C,0,-1.981848,-1.862955,0.4911\C,0,-2.847181,-1.0387
 48,0.235431\Si,0,-4.187296,0.179557,-0.156185\C,0,-3.683437,1.865318,0
 .525029\C,0,-4.390323,0.247358,-2.031657\C,0,-5.776689,-0.425258,0.666
 317\C,0,0.385842,-2.435267,0.37016\C,0,1.499974,-2.085109,0.009879\Si,
 0,3.149023,-1.489065,-0.557648\C,0,4.407369,-2.88796,-0.433824\C,0,2.9
 93489,-0.900285,-2.344585\C,0,3.688913,-0.06024,0.596191\C,0,2.592906,
 0.77608,1.312528\C,0,1.627719,1.426287,0.377636\C,0,1.472693,2.761153,
 0.192999\C,0,0.494496,3.269787,-0.729854\N,0,-0.303458,3.66722,-1.4770
 98\C,0,2.260076,3.735295,0.899943\N,0,2.90008,4.521577,1.470117\H,0,-0
 .38344,-4.689644,1.59041\H,0,-2.194335,-4.259421,1.686562\H,0,-4.47907
 9,2.599984,0.352924\H,0,-3.497065,1.818971,1.603499\H,0,-2.777146,2.23
 9639,0.037452\H,0,-5.184321,0.951796,-2.306607\H,0,-4.65371,-0.734844,
 -2.438581\H,0,-3.466199,0.578078,-2.517378\H,0,-6.062652,-1.415904,0.2
 96557\H,0,-5.659672,-0.492778,1.753354\H,0,-6.603917,0.263869,0.458795
 \H,0,5.405271,-2.539307,-0.72495\H,0,4.469647,-3.277298,0.587931\H,0,4
 .135904,-3.718285,-1.094431\H,0,3.958823,-0.533606,-2.71316\H,0,2.2642
 15,-0.090754,-2.452456\H,0,2.674953,-1.721856,-2.995177\H,0,4.322383,-
 0.496591,1.379036\H,0,4.340435,0.612854,0.023107\H,0,3.061079,1.527836
 ,1.955831\H,0,2.011309,0.10463,1.95854\H,0,0.981069,0.771438,-0.202514
 \\Version=ES64L-G16RevC.02\State=1-A\HF=-1349.5197594\RMSD=6.270e-09\P
 G=C01 [X(C17H22N2Si2)]\\@
 The archive entry for this job was punched.


 QUHEN THE CAUSS IS TAKEN AWAY THE EFFECT WANISHETH.
 -- PROVERBS AND REASONS OF THE YEAR 1585
           AS REPRINTED IN PAISLEY MAGAZINE 1828.
 Job cpu time:       0 days  1 hours 13 minutes 10.8 seconds.
 Elapsed time:       0 days  0 hours  9 minutes 18.2 seconds.
 File lengths (MBytes):  RWF=   1358 Int=      0 D2E=      0 Chk=     68 Scr=      2
 Normal termination of Gaussian 16 at Fri Aug  8 20:32:29 2025.
