 Entering Gaussian System, Link 0=g16
 Input=M1948e.gjf
 Output=M1948e.log
 Initial command:
 /hpc/softwares/Gaussian/g16/l1.exe "/hpc/home/hpcmgac13/pbs.12807.admin1.x8z/Gau-2016883.inp" -scrdir="/hpc/home/hpcmgac13/pbs.12807.admin1.x8z/"
 Default linda workers: n2
 Default is to use  16 SMP processors on each worker.
 Entering Link 1 = /hpc/softwares/Gaussian/g16/l1.exe PID=   2016884.
  
 Copyright (c) 1988-2021, Gaussian, Inc.  All Rights Reserved.
  
 This is part of the Gaussian(R) 16 program.  It is based on
 the Gaussian(R) 09 system (copyright 2009, Gaussian, Inc.),
 the Gaussian(R) 03 system (copyright 2003, Gaussian, Inc.),
 the Gaussian(R) 98 system (copyright 1998, Gaussian, Inc.),
 the Gaussian(R) 94 system (copyright 1995, Gaussian, Inc.),
 the Gaussian 92(TM) system (copyright 1992, Gaussian, Inc.),
 the Gaussian 90(TM) system (copyright 1990, Gaussian, Inc.),
 the Gaussian 88(TM) system (copyright 1988, Gaussian, Inc.),
 the Gaussian 86(TM) system (copyright 1986, Carnegie Mellon
 University), and the Gaussian 82(TM) system (copyright 1983,
 Carnegie Mellon University). Gaussian is a federally registered
 trademark of Gaussian, Inc.
  
 This software contains proprietary and confidential information,
 including trade secrets, belonging to Gaussian, Inc.
  
 This software is provided under written license and may be
 used, copied, transmitted, or stored only in accord with that
 written license.
  
 The following legend is applicable only to US Government
 contracts under FAR:
  
                    RESTRICTED RIGHTS LEGEND
  
 Use, reproduction and disclosure by the US Government is
 subject to restrictions as set forth in subparagraphs (a)
 and (c) of the Commercial Computer Software - Restricted
 Rights clause in FAR 52.227-19.
  
 Gaussian, Inc.
 340 Quinnipiac St., Bldg. 40, Wallingford CT 06492
  
  
 ---------------------------------------------------------------
 Warning -- This program may not be used in any manner that
 competes with the business of Gaussian, Inc. or will provide
 assistance to any competitor of Gaussian, Inc.  The licensee
 of this program is prohibited from giving any competitor of
 Gaussian, Inc. access to this program.  By using this program,
 the user acknowledges that Gaussian, Inc. is engaged in the
 business of creating and licensing software in the field of
 computational chemistry and represents and warrants to the
 licensee that it is not a competitor of Gaussian, Inc. and that
 it will not use this program in any manner prohibited above.
 ---------------------------------------------------------------
  

 Cite this work as:
 Gaussian 16, Revision C.02,
 M. J. Frisch, G. W. Trucks, H. B. Schlegel, G. E. Scuseria, 
 M. A. Robb, J. R. Cheeseman, G. Scalmani, V. Barone, 
 G. A. Petersson, H. Nakatsuji, X. Li, M. Caricato, A. V. Marenich, 
 J. Bloino, B. G. Janesko, R. Gomperts, B. Mennucci, H. P. Hratchian, 
 J. V. Ortiz, A. F. Izmaylov, J. L. Sonnenberg, D. Williams-Young, 
 F. Ding, F. Lipparini, F. Egidi, J. Goings, B. Peng, A. Petrone, 
 T. Henderson, D. Ranasinghe, V. G. Zakrzewski, J. Gao, N. Rega, 
 G. Zheng, W. Liang, M. Hada, M. Ehara, K. Toyota, R. Fukuda, 
 J. Hasegawa, M. Ishida, T. Nakajima, Y. Honda, O. Kitao, H. Nakai, 
 T. Vreven, K. Throssell, J. A. Montgomery, Jr., J. E. Peralta, 
 F. Ogliaro, M. J. Bearpark, J. J. Heyd, E. N. Brothers, K. N. Kudin, 
 V. N. Staroverov, T. A. Keith, R. Kobayashi, J. Normand, 
 K. Raghavachari, A. P. Rendell, J. C. Burant, S. S. Iyengar, 
 J. Tomasi, M. Cossi, J. M. Millam, M. Klene, C. Adamo, R. Cammi, 
 J. W. Ochterski, R. L. Martin, K. Morokuma, O. Farkas, 
 J. B. Foresman, and D. J. Fox, Gaussian, Inc., Wallingford CT, 2019.
 
 ******************************************
 Gaussian 16:  ES64L-G16RevC.02  7-Dec-2021
                 5-Aug-2025 
 ******************************************
 SetLPE:    new flags="-opt 'Tsnet.Node.lindarsharg: ssh'  -nodelist 'n2.head.cm.mguif.local' -env GAUSS_MDEF=2147483648 -env GAUSS_EXEDIR="/hpc/softwares/Gaussian/g16/bsd:/hpc/softwares/Gaussian/g16""
 Will use up to    1 processors via Linda.
 ----------------------------------------------------------
 # td=(50-50,nstates=3) b3lyp/6-31+g(d,p) geom=connectivity
 ----------------------------------------------------------
 1/38=1,57=2,172=1/1;
 2/12=2,17=6,18=5,40=1/2;
 3/5=1,6=6,7=111,11=9,25=1,30=1,74=-5/1,2,3,8;
 4//1;
 5/5=2,38=5/2;
 8/6=1,10=2,108=3/1;
 9/41=3,42=1,48=2,70=2/14;
 6/7=2,8=2,9=2,10=2/1;
 99/5=1,9=1/99;
 -------------------
 Title Card Required
 -------------------
 Symbolic Z-matrix:
 Charge =  0 Multiplicity = 1
 C                    -2.10796  -0.62892   1.84159 
 Si                   -2.11903  -0.47938  -0.04153 
 C                    -1.3559   -2.00013  -0.86287 
 C                    -3.90569  -0.30004  -0.65625 
 C                    -1.26403   1.1525   -0.58922 
 N                     0.00496   1.47554   0.06682 
 C                     0.59985   2.76937  -0.23708 
 N                     0.80269   0.40555   0.27531 
 C                     2.07314   0.52288   0.44137 
 C                     2.87033  -0.72015   0.77001 
 C                     3.98927  -0.93179  -0.1598 
 N                     4.87795  -1.07992  -0.89291 
 H                    -2.56333   0.2502    2.31207 
 H                    -1.08624  -0.7225    2.22168 
 H                    -2.67507  -1.51014   2.16415 
 H                    -1.34331  -1.89592  -1.95421 
 H                    -0.32652  -2.15633  -0.52931 
 H                    -1.93653  -2.89935  -0.62425 
 H                    -3.94605  -0.14153  -1.74064 
 H                    -4.41769   0.54241  -0.17655 
 H                    -4.48431  -1.20523  -0.43736 
 H                    -1.14291   1.13507  -1.68862 
 H                    -1.96355   1.96902  -0.37019 
 H                     1.22323   3.11218   0.59606 
 H                     1.2205    2.73607  -1.14873 
 H                    -0.20143   3.49494  -0.38246 
 H                     2.61901   1.46511   0.38524 
 H                     3.28983  -0.66253   1.78442 
 H                     2.20761  -1.59063   0.73908 
 
                          Input orientation:                          
 ---------------------------------------------------------------------
 Center     Atomic      Atomic             Coordinates (Angstroms)
 Number     Number       Type             X           Y           Z
 ---------------------------------------------------------------------
      1          6           0       -2.107960   -0.628919    1.841588
      2         14           0       -2.119030   -0.479384   -0.041528
      3          6           0       -1.355903   -2.000125   -0.862866
      4          6           0       -3.905692   -0.300036   -0.656247
      5          6           0       -1.264026    1.152500   -0.589223
      6          7           0        0.004957    1.475535    0.066820
      7          6           0        0.599852    2.769373   -0.237084
      8          7           0        0.802688    0.405548    0.275308
      9          6           0        2.073140    0.522875    0.441365
     10          6           0        2.870326   -0.720148    0.770008
     11          6           0        3.989266   -0.931790   -0.159795
     12          7           0        4.877948   -1.079920   -0.892907
     13          1           0       -2.563327    0.250203    2.312072
     14          1           0       -1.086244   -0.722495    2.221675
     15          1           0       -2.675073   -1.510144    2.164153
     16          1           0       -1.343314   -1.895915   -1.954206
     17          1           0       -0.326519   -2.156329   -0.529311
     18          1           0       -1.936530   -2.899353   -0.624254
     19          1           0       -3.946045   -0.141530   -1.740643
     20          1           0       -4.417694    0.542412   -0.176554
     21          1           0       -4.484311   -1.205229   -0.437360
     22          1           0       -1.142905    1.135068   -1.688617
     23          1           0       -1.963551    1.969019   -0.370193
     24          1           0        1.223231    3.112181    0.596060
     25          1           0        1.220502    2.736074   -1.148734
     26          1           0       -0.201426    3.494942   -0.382456
     27          1           0        2.619010    1.465113    0.385239
     28          1           0        3.289830   -0.662526    1.784416
     29          1           0        2.207608   -1.590630    0.739081
 ---------------------------------------------------------------------
                    Distance matrix (angstroms):
                    1          2          3          4          5
     1  C    0.000000
     2  Si   1.889076   0.000000
     3  C    3.124079   1.889342   0.000000
     4  C    3.095026   1.897948   3.071550   0.000000
     5  C    3.129620   1.921990   3.165812   3.015419   0.000000
     6  N    3.470295   2.888731   3.846618   4.355302   1.464603
     7  C    4.816795   4.240871   5.192754   5.467805   2.492453
     8  N    3.463413   3.069190   3.426692   4.851235   2.361495
     9  C    4.557285   4.337280   4.452514   6.134197   3.548974
    10  C    5.093127   5.060655   4.708039   6.937227   4.737846
    11  C    6.424440   6.126168   5.496042   7.935738   5.667958
    12  N    7.515569   7.074121   6.301474   8.821369   6.542153
    13  H    1.096161   2.503823   4.074565   3.303880   3.304517
    14  H    1.094133   2.499568   3.349544   4.050950   3.383543
    15  H    1.096459   2.497334   3.338133   3.306575   4.081888
    16  H    4.074066   2.503324   1.096376   3.285926   3.341003
    17  H    3.335817   2.502633   1.093293   4.033908   3.439601
    18  H    3.356283   2.495822   1.096665   3.261146   4.107432
    19  H    4.055673   2.517761   3.306615   1.096662   3.192727
    20  H    3.283258   2.519158   4.038574   1.096344   3.238537
    21  H    3.342571   2.505611   3.255741   1.096397   3.994019
    22  H    4.062675   2.504432   3.249103   3.279985   1.106183
    23  H    3.414983   2.475252   4.045500   3.000391   1.097275
    24  H    5.161783   4.947380   5.908982   6.286283   3.381079
    25  H    5.598559   4.766293   5.399182   5.978158   2.998940
    26  H    5.058406   4.425913   5.635545   5.310217   2.580486
    27  H    5.371235   5.139282   5.419001   6.839019   4.015628
    28  H    5.398197   5.711688   5.511815   7.606824   5.446658
    29  H    4.556812   4.534756   3.928426   6.401954   4.619675
                    6          7          8          9         10
     6  N    0.000000
     7  C    1.456116   0.000000
     8  N    1.350820   2.427212   0.000000
     9  C    2.307645   2.770853   1.286619   0.000000
    10  C    3.677749   4.283228   2.405628   1.512818   0.000000
    11  C    4.660610   5.019234   3.483112   2.479714   1.470154
    12  N    5.585469   5.792173   4.492114   3.495165   2.631590
    13  H    3.624731   4.780179   3.937334   5.007067   5.730980
    14  H    3.265801   4.591466   2.937497   3.834339   4.214474
    15  H    4.527212   5.899605   4.396866   5.444878   5.772277
    16  H    4.155605   5.337538   3.856526   4.823014   5.153497
    17  H    3.695360   5.020568   2.913028   3.725414   3.737735
    18  H    4.835969   6.222346   4.385761   5.378163   5.458825
    19  H    4.635972   5.603501   5.187853   6.436861   7.287049
    20  H    4.526565   5.489880   5.241689   6.520209   7.456894
    21  H    5.253020   6.456492   5.572688   6.838031   7.468850
    22  H    2.124868   2.795551   2.859114   3.905707   5.058921
    23  H    2.075941   2.688739   3.242405   4.364039   5.647835
    24  H    2.107818   1.095558   2.757825   2.729612   4.174916
    25  H    2.131685   1.103368   2.762936   2.855461   4.283569
    26  H    2.079050   1.090702   3.314401   3.832168   5.341425
    27  H    2.633396   2.483018   2.105656   1.090384   2.233063
    28  H    4.279233   4.806285   3.099042   2.165478   1.099240
    29  H    3.834707   4.748411   2.484675   2.138602   1.094482
                   11         12         13         14         15
    11  C    0.000000
    12  N    1.161530   0.000000
    13  H    7.102373   8.210584   0.000000
    14  H    5.610348   6.737949   1.770900   0.000000
    15  H    7.081571   8.159585   1.770082   1.774282   0.000000
    16  H    5.708402   6.363671   4.929035   4.345225   4.345490
    17  H    4.501337   5.327038   4.343750   3.193898   3.631530
    18  H    6.261157   7.058302   4.351389   3.682528   3.201650
    19  H    8.129745   8.914151   4.299984   4.920970   4.328499
    20  H    8.535252   9.463302   3.117262   4.295352   3.567720
    21  H    8.482530   9.374173   3.656205   4.341700   3.183424
    22  H    5.740068   6.464518   4.336600   4.329450   4.918183
    23  H    6.625329   7.508353   3.241698   3.838189   4.362768
    24  H    4.957415   5.757403   5.047141   4.762461   6.246725
    25  H    4.700774   5.291897   5.698605   5.351863   6.646886
    26  H    6.099790   6.854923   4.833983   5.034995   6.136370
    27  H    2.814215   3.635059   5.660858   4.678358   6.328033
    28  H    2.083667   3.140763   5.947347   4.398274   6.036781
    29  H    2.101512   3.170950   5.350214   3.714997   5.087031
                   16         17         18         19         20
    16  H    0.000000
    17  H    1.769749   0.000000
    18  H    1.768492   1.775735   0.000000
    19  H    3.146059   4.315983   3.590273   0.000000
    20  H    4.307818   4.913792   4.266422   1.771046   0.000000
    21  H    3.555802   4.266179   3.065318   1.766276   1.768250
    22  H    3.049190   3.583821   4.247265   3.080585   3.655382
    23  H    4.222737   4.441136   4.875072   3.203566   2.845263
    24  H    6.178352   5.605835   6.900130   6.539742   6.246654
    25  H    5.355115   5.168420   6.480738   5.943414   6.127523
    26  H    5.730240   5.654563   6.629937   5.393586   5.151383
    27  H    5.698204   4.756825   6.389099   7.085240   7.119143
    28  H    6.079849   4.545631   6.174134   8.065691   8.043830
    29  H    4.467218   2.889746   4.554703   6.790903   7.020177
                   21         22         23         24         25
    21  H    0.000000
    22  H    4.267040   0.000000
    23  H    4.053960   1.762718   0.000000
    24  H    7.230769   3.837620   3.520802   0.000000
    25  H    6.970281   2.905234   3.366407   1.784873   0.000000
    26  H    6.359066   2.856824   2.331025   1.770211   1.784641
    27  H    7.633123   4.308342   4.671666   2.169211   2.433976
    28  H    8.103585   5.911213   6.258225   4.464464   4.943275
    29  H    6.805463   4.954703   5.594654   4.806858   4.822716
                   26         27         28         29
    26  H    0.000000
    27  H    3.558711   0.000000
    28  H    5.845404   2.633352   0.000000
    29  H    5.737973   3.103550   1.767854   0.000000
 Stoichiometry    C8H17N3Si
 Framework group  C1[X(C8H17N3Si)]
 Deg. of freedom    81
 Full point group                 C1      NOp   1
 Largest Abelian subgroup         C1      NOp   1
 Largest concise Abelian subgroup C1      NOp   1
                         Standard orientation:                         
 ---------------------------------------------------------------------
 Center     Atomic      Atomic             Coordinates (Angstroms)
 Number     Number       Type             X           Y           Z
 ---------------------------------------------------------------------
      1          6           0       -2.107960   -0.628919    1.841588
      2         14           0       -2.119030   -0.479384   -0.041528
      3          6           0       -1.355903   -2.000125   -0.862866
      4          6           0       -3.905692   -0.300036   -0.656247
      5          6           0       -1.264026    1.152500   -0.589223
      6          7           0        0.004957    1.475535    0.066820
      7          6           0        0.599852    2.769373   -0.237084
      8          7           0        0.802688    0.405548    0.275308
      9          6           0        2.073140    0.522875    0.441365
     10          6           0        2.870326   -0.720148    0.770008
     11          6           0        3.989266   -0.931790   -0.159795
     12          7           0        4.877948   -1.079920   -0.892907
     13          1           0       -2.563327    0.250203    2.312072
     14          1           0       -1.086244   -0.722495    2.221675
     15          1           0       -2.675073   -1.510144    2.164153
     16          1           0       -1.343314   -1.895915   -1.954206
     17          1           0       -0.326519   -2.156329   -0.529311
     18          1           0       -1.936530   -2.899353   -0.624254
     19          1           0       -3.946045   -0.141530   -1.740643
     20          1           0       -4.417694    0.542412   -0.176554
     21          1           0       -4.484311   -1.205229   -0.437360
     22          1           0       -1.142905    1.135068   -1.688617
     23          1           0       -1.963551    1.969019   -0.370193
     24          1           0        1.223231    3.112181    0.596060
     25          1           0        1.220502    2.736074   -1.148734
     26          1           0       -0.201426    3.494942   -0.382456
     27          1           0        2.619010    1.465113    0.385239
     28          1           0        3.289830   -0.662526    1.784416
     29          1           0        2.207608   -1.590630    0.739081
 ---------------------------------------------------------------------
 Rotational constants (GHZ):           1.2275844           0.3855550           0.3378042
 Standard basis: 6-31+G(d,p) (6D, 7F)
 There are   317 symmetry adapted cartesian basis functions of A   symmetry.
 There are   317 symmetry adapted basis functions of A   symmetry.
   317 basis functions,   527 primitive gaussians,   317 cartesian basis functions
    50 alpha electrons       50 beta electrons
       nuclear repulsion energy       786.4445163173 Hartrees.
 NAtoms=   29 NActive=   29 NUniq=   29 SFac= 1.00D+00 NAtFMM=   60 NAOKFM=F Big=F
 Integral buffers will be    131072 words long.
 Regular integral format.
 Two-electron integral symmetry is turned on.
 One-electron integrals computed using PRISM.
 NBasis=   317 RedAO= T EigKep=  2.09D-05  NBF=   317
 NBsUse=   317 1.00D-06 EigRej= -1.00D+00 NBFU=   317
 ExpMin= 3.31D-02 ExpMax= 1.61D+04 ExpMxC= 2.43D+03 IAcc=3 IRadAn=         5 AccDes= 0.00D+00
 Harris functional with IExCor=  402 and IRadAn=       5 diagonalized for initial guess.
 HarFok:  IExCor=  402 AccDes= 0.00D+00 IRadAn=         5 IDoV= 1 UseB2=F ITyADJ=14
 ICtDFT=  3500011 ScaDFX=  1.000000  1.000000  1.000000  1.000000
 FoFCou: FMM=F IPFlag=           0 FMFlag=      100000 FMFlg1=           0
         NFxFlg=           0 DoJE=T BraDBF=F KetDBF=T FulRan=T
         wScrn=  0.000000 ICntrl=       500 IOpCl=  0 I1Cent=   200000004 NGrid=           0
         NMat0=    1 NMatS0=      1 NMatT0=    0 NMatD0=    1 NMtDS0=    0 NMtDT0=    0
 Petite list used in FoFCou.
 Requested convergence on RMS density matrix=1.00D-08 within 128 cycles.
 Requested convergence on MAX density matrix=1.00D-06.
 Requested convergence on             energy=1.00D-06.
 No special actions if energy rises.
 SCF Done:  E(RB3LYP) =  -768.855021218     A.U. after   13 cycles
            NFock= 13  Conv=0.82D-08     -V/T= 2.0078
 DoSCS=F DFT=T ScalE2(SS,OS)=  1.000000  1.000000
 ExpMin= 3.31D-02 ExpMax= 1.61D+04 ExpMxC= 2.43D+03 IAcc=3 IRadAn=         5 AccDes= 0.00D+00
 HarFok:  IExCor=  205 AccDes= 0.00D+00 IRadAn=         5 IDoV=-2 UseB2=F ITyADJ=14
 ICtDFT= 12500011 ScaDFX=  1.000000  1.000000  1.000000  1.000000
 Range of M.O.s used for correlation:    17   317
 NBasis=   317 NAE=    50 NBE=    50 NFC=    16 NFV=     0
 NROrb=    301 NOA=    34 NOB=    34 NVA=   267 NVB=   267

 **** Warning!!: The largest alpha MO coefficient is  0.50275263D+02

 Orbital symmetries:
       Occupied  (A) (A) (A) (A) (A) (A) (A) (A) (A) (A) (A) (A)
                 (A) (A) (A) (A) (A) (A) (A) (A) (A) (A) (A) (A)
                 (A) (A) (A) (A) (A) (A) (A) (A) (A) (A) (A) (A)
                 (A) (A) (A) (A) (A) (A) (A) (A) (A) (A) (A) (A)
                 (A) (A)
       Virtual   (A) (A) (A) (A) (A) (A) (A) (A) (A) (A) (A) (A)
                 (A) (A) (A) (A) (A) (A) (A) (A) (A) (A) (A) (A)
                 (A) (A) (A) (A) (A) (A) (A) (A) (A) (A) (A) (A)
                 (A) (A) (A) (A) (A) (A) (A) (A) (A) (A) (A) (A)
                 (A) (A) (A) (A) (A) (A) (A) (A) (A) (A) (A) (A)
                 (A) (A) (A) (A) (A) (A) (A) (A) (A) (A) (A) (A)
                 (A) (A) (A) (A) (A) (A) (A) (A) (A) (A) (A) (A)
                 (A) (A) (A) (A) (A) (A) (A) (A) (A) (A) (A) (A)
                 (A) (A) (A) (A) (A) (A) (A) (A) (A) (A) (A) (A)
                 (A) (A) (A) (A) (A) (A) (A) (A) (A) (A) (A) (A)
                 (A) (A) (A) (A) (A) (A) (A) (A) (A) (A) (A) (A)
                 (A) (A) (A) (A) (A) (A) (A) (A) (A) (A) (A) (A)
                 (A) (A) (A) (A) (A) (A) (A) (A) (A) (A) (A) (A)
                 (A) (A) (A) (A) (A) (A) (A) (A) (A) (A) (A) (A)
                 (A) (A) (A) (A) (A) (A) (A) (A) (A) (A) (A) (A)
                 (A) (A) (A) (A) (A) (A) (A) (A) (A) (A) (A) (A)
                 (A) (A) (A) (A) (A) (A) (A) (A) (A) (A) (A) (A)
                 (A) (A) (A) (A) (A) (A) (A) (A) (A) (A) (A) (A)
                 (A) (A) (A) (A) (A) (A) (A) (A) (A) (A) (A) (A)
                 (A) (A) (A) (A) (A) (A) (A) (A) (A) (A) (A) (A)
                 (A) (A) (A) (A) (A) (A) (A) (A) (A) (A) (A) (A)
                 (A) (A) (A) (A) (A) (A) (A) (A) (A) (A) (A) (A)
                 (A) (A) (A)
    24 initial guesses have been made.
 Convergence on wavefunction:    0.001000000000000
 Iteration     1 Dimension    24 NMult     0 NNew     24
 CISAX will form    24 AO SS matrices at one time.
 New state      1 was old state      2
 New state      2 was old state      4
 New state      4 was old state      6
 New state      6 was old state      7
 New state      7 was old state      8
 New state      8 was old state     24
 New state      9 was old state     10
 New state     10 was old state      9
 New state     11 was old state     12
 New state     12 was old state     11
 Iteration     2 Dimension    36 NMult    24 NNew     12
 New state      4 was old state      6
 New state      5 was old state      4
 New state      6 was old state      5
 Iteration     3 Dimension    48 NMult    36 NNew     12
 Iteration     4 Dimension    60 NMult    48 NNew     12
 New state      4 was old state      5
 New state      5 was old state      4
 Iteration     5 Dimension    72 NMult    60 NNew     12
 Iteration     6 Dimension    80 NMult    72 NNew      8
 Iteration     7 Dimension    86 NMult    80 NNew      6
 Iteration     8 Dimension    88 NMult    86 NNew      2
 ***********************************************************************
 Excited states from <AA,BB:AA,BB> singles matrix:
 ***********************************************************************
 
 Ground to excited state transition densities written to RWF  633
 Ground to excited state transition electric dipole moments (Au):
       state          X           Y           Z        Dip. S.      Osc.
         1         0.0000      0.0000     -0.0000      0.0000      0.0000
         2        -0.0000      0.0000     -0.0000      0.0000      0.0000
         3         0.4045     -0.1662      0.4195      0.3673      0.0447
         4         0.0000     -0.0000      0.0000      0.0000      0.0000
         5        -1.2029      0.4517     -0.1799      1.6835      0.2194
         6        -0.0693      0.0299     -0.0925      0.0143      0.0019
 Ground to excited state transition velocity dipole moments (Au):
       state          X           Y           Z        Dip. S.      Osc.
         1        -0.0000      0.0000     -0.0000      0.0000      0.0000
         2         0.0000     -0.0000      0.0000      0.0000      0.0000
         3        -0.0704      0.0296     -0.0727      0.0111      0.0407
         4        -0.0000     -0.0000     -0.0000      0.0000      0.0000
         5         0.2266     -0.0848      0.0317      0.0596      0.2031
         6         0.0130     -0.0063      0.0179      0.0005      0.0018
 Ground to excited state transition magnetic dipole moments (Au):
       state          X           Y           Z
         1         0.0000     -0.0000      0.0000
         2         0.0000      0.0000     -0.0000
         3        -0.4195      0.0073      0.0517
         4         0.0000      0.0000      0.0000
         5         0.1865     -0.0605     -0.4795
         6         0.2122     -0.0967      0.0937
 Ground to excited state transition velocity quadrupole moments (Au):
       state          XX          YY          ZZ          XY          XZ          YZ
         1         0.0000      0.0000      0.0000     -0.0000     -0.0000      0.0000
         2         0.0000      0.0000      0.0000     -0.0000     -0.0000      0.0000
         3        -0.4732      0.0916      0.2325      0.0164     -0.1014     -0.2526
         4        -0.0000     -0.0000     -0.0000      0.0000     -0.0000     -0.0000
         5         1.0584     -0.4223     -0.0798     -0.2445      0.0731      0.0724
         6        -0.0483     -0.1214      0.0578     -0.0170      0.2159      0.2444
 <0|del|b> * <b|rxdel|0> + <0|del|b> * <b|delr+rdel|0>
 Rotatory Strengths (R) in cgs (10**-40 erg-esu-cm/Gauss)
       state          XX          YY          ZZ    R(velocity)    E-M Angle
         1        -0.0000     -0.0000      0.0000     -0.0000       90.00
         2        -0.0000      0.0000     -0.0000     -0.0000       90.00
         3        -3.3716     86.7624     17.3879     33.5929       54.33
         4        -0.0000      0.0000      0.0000     -0.0000       90.00
         5       -21.0715     92.6354     44.7941     38.7860       75.26
         6         5.8985     13.9378     -2.0678      5.9228       29.10
 1/2[<0|r|b>*<b|rxdel|0> + (<0|rxdel|b>*<b|r|0>)*]
 Rotatory Strengths (R) in cgs (10**-40 erg-esu-cm/Gauss)
       state          XX          YY          ZZ     R(length)
         1        -0.0000      0.0000      0.0000      0.0000
         2         0.0000     -0.0000     -0.0000     -0.0000
         3       120.0179      0.8603    -15.3507     35.1758
         4        -0.0000      0.0000     -0.0000     -0.0000
         5       158.6121     19.3264    -60.9929     38.9818
         6        10.3954      2.0443      6.1300      6.1899
  1/2[<0|del|b>*<b|r|0> + (<0|r|b>*<b|del|0>)*] (Au)
       state          X           Y           Z        Dip. S.   Osc.(frdel)
         1        -0.0000      0.0000      0.0000      0.0000      0.0000
         2        -0.0000     -0.0000     -0.0000      0.0000      0.0000
         3        -0.0285     -0.0049     -0.0305      0.0639      0.0426
         4        -0.0000      0.0000     -0.0000      0.0000      0.0000
         5        -0.2726     -0.0383     -0.0057      0.3166      0.2111
         6        -0.0009     -0.0002     -0.0017      0.0027      0.0018

 Excitation energies and oscillator strengths:
 
 Excited State   1:      Triplet-A      3.3069 eV  374.92 nm  f=0.0000  <S**2>=2.000
      50 -> 51         0.59290
      50 -> 52        -0.31679
      50 -> 54        -0.11762
 This state for optimization and/or second-order correction.
 Total Energy, E(TD-HF/TD-DFT) =  -768.733493592    
 Copying the excited state density for this state as the 1-particle RhoCI density.
 
 Excited State   2:      Triplet-A      4.9603 eV  249.95 nm  f=0.0000  <S**2>=2.000
      50 -> 51         0.32623
      50 -> 52         0.57587
      50 -> 53        -0.18994
 
 Excited State   3:      Singlet-A      4.9660 eV  249.67 nm  f=0.0447  <S**2>=0.000
      50 -> 51         0.54101
      50 -> 52         0.41405
      50 -> 53        -0.15121
 
 Excited State   4:      Triplet-A      5.0262 eV  246.67 nm  f=0.0000  <S**2>=2.000
      46 -> 51        -0.10635
      49 -> 51         0.57639
      49 -> 52        -0.31037
      49 -> 54        -0.11973
 
 Excited State   5:      Singlet-A      5.3187 eV  233.11 nm  f=0.2194  <S**2>=0.000
      50 -> 51        -0.40267
      50 -> 52         0.51393
      50 -> 53        -0.15375
      50 -> 54        -0.17861
 
 Excited State   6:      Singlet-A      5.4669 eV  226.79 nm  f=0.0019  <S**2>=0.000
      50 -> 52         0.19850
      50 -> 53         0.65392
      50 -> 57         0.12980
 SavETr:  write IOETrn=   770 NScale= 10 NData=  16 NLR=1 NState=    6 LETran=     118.

 **********************************************************************

            Population analysis using the SCF Density.

 **********************************************************************

 Orbital symmetries:
       Occupied  (A) (A) (A) (A) (A) (A) (A) (A) (A) (A) (A) (A)
                 (A) (A) (A) (A) (A) (A) (A) (A) (A) (A) (A) (A)
                 (A) (A) (A) (A) (A) (A) (A) (A) (A) (A) (A) (A)
                 (A) (A) (A) (A) (A) (A) (A) (A) (A) (A) (A) (A)
                 (A) (A)
       Virtual   (A) (A) (A) (A) (A) (A) (A) (A) (A) (A) (A) (A)
                 (A) (A) (A) (A) (A) (A) (A) (A) (A) (A) (A) (A)
                 (A) (A) (A) (A) (A) (A) (A) (A) (A) (A) (A) (A)
                 (A) (A) (A) (A) (A) (A) (A) (A) (A) (A) (A) (A)
                 (A) (A) (A) (A) (A) (A) (A) (A) (A) (A) (A) (A)
                 (A) (A) (A) (A) (A) (A) (A) (A) (A) (A) (A) (A)
                 (A) (A) (A) (A) (A) (A) (A) (A) (A) (A) (A) (A)
                 (A) (A) (A) (A) (A) (A) (A) (A) (A) (A) (A) (A)
                 (A) (A) (A) (A) (A) (A) (A) (A) (A) (A) (A) (A)
                 (A) (A) (A) (A) (A) (A) (A) (A) (A) (A) (A) (A)
                 (A) (A) (A) (A) (A) (A) (A) (A) (A) (A) (A) (A)
                 (A) (A) (A) (A) (A) (A) (A) (A) (A) (A) (A) (A)
                 (A) (A) (A) (A) (A) (A) (A) (A) (A) (A) (A) (A)
                 (A) (A) (A) (A) (A) (A) (A) (A) (A) (A) (A) (A)
                 (A) (A) (A) (A) (A) (A) (A) (A) (A) (A) (A) (A)
                 (A) (A) (A) (A) (A) (A) (A) (A) (A) (A) (A) (A)
                 (A) (A) (A) (A) (A) (A) (A) (A) (A) (A) (A) (A)
                 (A) (A) (A) (A) (A) (A) (A) (A) (A) (A) (A) (A)
                 (A) (A) (A) (A) (A) (A) (A) (A) (A) (A) (A) (A)
                 (A) (A) (A) (A) (A) (A) (A) (A) (A) (A) (A) (A)
                 (A) (A) (A) (A) (A) (A) (A) (A) (A) (A) (A) (A)
                 (A) (A) (A) (A) (A) (A) (A) (A) (A) (A) (A) (A)
                 (A) (A) (A)
 The electronic state is 1-A.
 Alpha  occ. eigenvalues --  -66.12932 -14.39612 -14.38557 -14.34277 -10.24667
 Alpha  occ. eigenvalues --  -10.23726 -10.23693 -10.23132 -10.21133 -10.16801
 Alpha  occ. eigenvalues --  -10.16550 -10.16411  -5.27307  -3.63230  -3.63176
 Alpha  occ. eigenvalues --   -3.63144  -1.02729  -0.91115  -0.86574  -0.78475
 Alpha  occ. eigenvalues --   -0.73961  -0.71235  -0.68180  -0.67986  -0.67140
 Alpha  occ. eigenvalues --   -0.57434  -0.54448  -0.51769  -0.49761  -0.48421
 Alpha  occ. eigenvalues --   -0.46640  -0.45151  -0.43367  -0.42102  -0.41583
 Alpha  occ. eigenvalues --   -0.41220  -0.40696  -0.40628  -0.39218  -0.38868
 Alpha  occ. eigenvalues --   -0.38363  -0.37163  -0.36061  -0.33524  -0.33156
 Alpha  occ. eigenvalues --   -0.30853  -0.30437  -0.30225  -0.29061  -0.22664
 Alpha virt. eigenvalues --   -0.02131  -0.01443  -0.00030   0.00352   0.01179
 Alpha virt. eigenvalues --    0.01982   0.02061   0.02507   0.02807   0.03778
 Alpha virt. eigenvalues --    0.04193   0.04475   0.04989   0.05752   0.06502
 Alpha virt. eigenvalues --    0.06774   0.07016   0.07377   0.07773   0.08672
 Alpha virt. eigenvalues --    0.08759   0.09308   0.09489   0.09776   0.10332
 Alpha virt. eigenvalues --    0.10788   0.10975   0.11289   0.11748   0.12045
 Alpha virt. eigenvalues --    0.12375   0.13042   0.13653   0.14271   0.14842
 Alpha virt. eigenvalues --    0.15412   0.15541   0.15838   0.16356   0.16691
 Alpha virt. eigenvalues --    0.17561   0.17878   0.18491   0.18881   0.19264
 Alpha virt. eigenvalues --    0.20432   0.21229   0.21754   0.21878   0.22593
 Alpha virt. eigenvalues --    0.22835   0.23617   0.23674   0.24907   0.25536
 Alpha virt. eigenvalues --    0.25834   0.26118   0.26453   0.26573   0.27059
 Alpha virt. eigenvalues --    0.27699   0.28073   0.28988   0.29579   0.30354
 Alpha virt. eigenvalues --    0.30626   0.31872   0.33060   0.35056   0.35281
 Alpha virt. eigenvalues --    0.35495   0.36554   0.38807   0.39628   0.41342
 Alpha virt. eigenvalues --    0.41857   0.42651   0.45019   0.46548   0.46996
 Alpha virt. eigenvalues --    0.48163   0.54030   0.54933   0.57691   0.59824
 Alpha virt. eigenvalues --    0.64315   0.65337   0.67433   0.68116   0.68857
 Alpha virt. eigenvalues --    0.71300   0.72055   0.73084   0.74702   0.75243
 Alpha virt. eigenvalues --    0.77486   0.78257   0.79358   0.80132   0.80612
 Alpha virt. eigenvalues --    0.81225   0.82958   0.84249   0.84864   0.86305
 Alpha virt. eigenvalues --    0.86897   0.87586   0.89109   0.90136   0.90572
 Alpha virt. eigenvalues --    0.91025   0.92242   0.92802   0.93490   0.95711
 Alpha virt. eigenvalues --    0.95989   0.96509   0.97758   0.98838   0.99198
 Alpha virt. eigenvalues --    0.99367   1.01014   1.01818   1.02261   1.03102
 Alpha virt. eigenvalues --    1.04941   1.05571   1.06632   1.07984   1.08829
 Alpha virt. eigenvalues --    1.10783   1.12166   1.12602   1.13756   1.14522
 Alpha virt. eigenvalues --    1.18507   1.20811   1.21845   1.25673   1.28004
 Alpha virt. eigenvalues --    1.28993   1.32252   1.32724   1.35079   1.38299
 Alpha virt. eigenvalues --    1.39056   1.43183   1.44051   1.45339   1.47627
 Alpha virt. eigenvalues --    1.48539   1.49735   1.51278   1.52928   1.53744
 Alpha virt. eigenvalues --    1.54718   1.57558   1.59208   1.63115   1.65685
 Alpha virt. eigenvalues --    1.67048   1.68924   1.74785   1.77488   1.80201
 Alpha virt. eigenvalues --    1.83059   1.86471   1.87300   1.90595   1.91428
 Alpha virt. eigenvalues --    1.94619   1.96140   1.97130   1.99592   2.01179
 Alpha virt. eigenvalues --    2.02848   2.03870   2.04506   2.05555   2.05945
 Alpha virt. eigenvalues --    2.07306   2.08687   2.11338   2.12011   2.12518
 Alpha virt. eigenvalues --    2.12769   2.13817   2.14610   2.15224   2.15750
 Alpha virt. eigenvalues --    2.17184   2.17679   2.20174   2.20760   2.21868
 Alpha virt. eigenvalues --    2.22921   2.25991   2.27845   2.29373   2.30910
 Alpha virt. eigenvalues --    2.32445   2.34042   2.35319   2.36445   2.37541
 Alpha virt. eigenvalues --    2.37914   2.40589   2.45472   2.48276   2.51346
 Alpha virt. eigenvalues --    2.52080   2.54993   2.55698   2.62253   2.64481
 Alpha virt. eigenvalues --    2.65416   2.68256   2.68924   2.69960   2.71588
 Alpha virt. eigenvalues --    2.72643   2.77610   2.79828   2.80187   2.82082
 Alpha virt. eigenvalues --    2.83364   2.84184   2.85171   2.85591   2.87031
 Alpha virt. eigenvalues --    2.88135   2.91671   2.91769   2.93929   2.97428
 Alpha virt. eigenvalues --    3.06588   3.11718   3.12892   3.21387   3.23609
 Alpha virt. eigenvalues --    3.24018   3.24742   3.25354   3.31680   3.35768
 Alpha virt. eigenvalues --    3.42984   3.44106   3.44781   3.45371   3.45874
 Alpha virt. eigenvalues --    3.46173   3.46708   3.47592   3.48365   3.49737
 Alpha virt. eigenvalues --    3.55127   4.12359   4.17624   4.29913   4.34918
 Alpha virt. eigenvalues --    4.48435   4.49108   4.51492   4.53667   4.60292
 Alpha virt. eigenvalues --    4.63444   4.76927
          Condensed to atoms (all electrons):
               1          2          3          4          5          6
     1  C    5.493764   0.188393  -0.037609  -0.041240  -0.034819   0.017454
     2  Si   0.188393  12.591372   0.189714   0.256517  -0.128013  -0.011552
     3  C   -0.037609   0.189714   5.503494  -0.065211   0.013534  -0.028920
     4  C   -0.041240   0.256517  -0.065211   5.482929  -0.102531  -0.017110
     5  C   -0.034819  -0.128013   0.013534  -0.102531   6.316601   0.246654
     6  N    0.017454  -0.011552  -0.028920  -0.017110   0.246654   7.612132
     7  C   -0.003420  -0.003166  -0.016579  -0.007576  -0.176303   0.085615
     8  N   -0.037626   0.169275  -0.037150   0.031439  -0.217934  -0.559482
     9  C   -0.003052  -0.073295   0.021265   0.003021   0.040682   0.134690
    10  C    0.013190  -0.018494   0.002701  -0.002364  -0.007317  -0.095707
    11  C   -0.000339   0.007213  -0.007071  -0.000253   0.010689  -0.019424
    12  N   -0.000014  -0.001048   0.000355   0.000002   0.000501   0.001619
    13  H    0.394035  -0.032524   0.008887  -0.004247   0.002986  -0.009756
    14  H    0.410902  -0.054649  -0.000336   0.007021   0.006363  -0.000983
    15  H    0.404364  -0.048122  -0.004250  -0.006457   0.014500   0.001263
    16  H    0.007704  -0.019771   0.387744  -0.001936  -0.011726   0.003649
    17  H    0.003138  -0.057043   0.406043   0.007497   0.003722  -0.005386
    18  H   -0.009738  -0.031670   0.395742  -0.006002   0.009173   0.003096
    19  H    0.006476  -0.034021  -0.006397   0.398884  -0.003108   0.001970
    20  H   -0.003348  -0.032936   0.007912   0.392124   0.001573  -0.002348
    21  H   -0.009269  -0.022772  -0.006238   0.395276   0.005919   0.000861
    22  H    0.012419  -0.019965  -0.014184   0.003374   0.371881  -0.089777
    23  H   -0.013742   0.006341   0.007427   0.003431   0.390196  -0.069675
    24  H   -0.000574   0.000085   0.000412   0.000128   0.013800  -0.033606
    25  H    0.000533   0.001780  -0.000473  -0.000073  -0.026094  -0.088280
    26  H    0.000601  -0.006407   0.000311  -0.000475   0.003146  -0.060492
    27  H   -0.001485   0.008602  -0.001617   0.000088  -0.004169  -0.078480
    28  H    0.000296   0.001312  -0.000399  -0.000003  -0.001987   0.001482
    29  H   -0.000450   0.001386  -0.001096   0.000034   0.000162  -0.022749
               7          8          9         10         11         12
     1  C   -0.003420  -0.037626  -0.003052   0.013190  -0.000339  -0.000014
     2  Si  -0.003166   0.169275  -0.073295  -0.018494   0.007213  -0.001048
     3  C   -0.016579  -0.037150   0.021265   0.002701  -0.007071   0.000355
     4  C   -0.007576   0.031439   0.003021  -0.002364  -0.000253   0.000002
     5  C   -0.176303  -0.217934   0.040682  -0.007317   0.010689   0.000501
     6  N    0.085615  -0.559482   0.134690  -0.095707  -0.019424   0.001619
     7  C    5.320079  -0.084498  -0.077370  -0.005424   0.002008   0.000088
     8  N   -0.084498   7.511291   0.221139  -0.117257   0.120252  -0.009684
     9  C   -0.077370   0.221139   5.714503   0.093480  -0.302674   0.034836
    10  C   -0.005424  -0.117257   0.093480   5.817464  -0.148515  -0.021508
    11  C    0.002008   0.120252  -0.302674  -0.148515   5.822948   0.379488
    12  N    0.000088  -0.009684   0.034836  -0.021508   0.379488   7.131003
    13  H   -0.002175   0.005836   0.000170  -0.000076   0.000029  -0.000000
    14  H   -0.000353  -0.001093   0.002520  -0.001155  -0.000800   0.000004
    15  H    0.000472  -0.000772   0.000423  -0.000088   0.000063  -0.000000
    16  H    0.000373  -0.002764  -0.000602   0.000601  -0.000264   0.000003
    17  H    0.000394   0.003001   0.006290  -0.005695   0.001041   0.000039
    18  H    0.000576  -0.001212   0.000203  -0.000023   0.000023   0.000000
    19  H    0.000155  -0.001129  -0.000060   0.000005   0.000009  -0.000000
    20  H   -0.000507  -0.000104  -0.000132  -0.000002   0.000005  -0.000000
    21  H    0.000068  -0.000565  -0.000054   0.000028  -0.000000   0.000000
    22  H    0.011674   0.031913  -0.005175   0.000117   0.002134  -0.000027
    23  H   -0.030527   0.032716   0.002590  -0.000237  -0.000565   0.000002
    24  H    0.383674  -0.023522   0.012398   0.005143  -0.005485   0.000091
    25  H    0.431615   0.031346  -0.006849   0.002191   0.006495  -0.000149
    26  H    0.426055   0.003270  -0.005440  -0.003225  -0.000185  -0.000000
    27  H    0.012539   0.013873   0.376978  -0.036848  -0.008587   0.000662
    28  H    0.001458   0.008415  -0.066383   0.419474  -0.053434  -0.004430
    29  H   -0.000515  -0.003117  -0.043157   0.454906  -0.062381   0.000732
              13         14         15         16         17         18
     1  C    0.394035   0.410902   0.404364   0.007704   0.003138  -0.009738
     2  Si  -0.032524  -0.054649  -0.048122  -0.019771  -0.057043  -0.031670
     3  C    0.008887  -0.000336  -0.004250   0.387744   0.406043   0.395742
     4  C   -0.004247   0.007021  -0.006457  -0.001936   0.007497  -0.006002
     5  C    0.002986   0.006363   0.014500  -0.011726   0.003722   0.009173
     6  N   -0.009756  -0.000983   0.001263   0.003649  -0.005386   0.003096
     7  C   -0.002175  -0.000353   0.000472   0.000373   0.000394   0.000576
     8  N    0.005836  -0.001093  -0.000772  -0.002764   0.003001  -0.001212
     9  C    0.000170   0.002520   0.000423  -0.000602   0.006290   0.000203
    10  C   -0.000076  -0.001155  -0.000088   0.000601  -0.005695  -0.000023
    11  C    0.000029  -0.000800   0.000063  -0.000264   0.001041   0.000023
    12  N   -0.000000   0.000004  -0.000000   0.000003   0.000039   0.000000
    13  H    0.525770  -0.023684  -0.024641  -0.000016  -0.000002   0.000010
    14  H   -0.023684   0.502338  -0.023628   0.000008   0.000297   0.000022
    15  H   -0.024641  -0.023628   0.528275   0.000005  -0.000035   0.000355
    16  H   -0.000016   0.000008   0.000005   0.526479  -0.022757  -0.024875
    17  H   -0.000002   0.000297  -0.000035  -0.022757   0.509223  -0.023701
    18  H    0.000010   0.000022   0.000355  -0.024875  -0.023701   0.530953
    19  H    0.000003  -0.000016   0.000009   0.000352   0.000006   0.000008
    20  H    0.000325   0.000004   0.000003   0.000001  -0.000019   0.000015
    21  H    0.000046   0.000016   0.000449  -0.000026   0.000010   0.000527
    22  H   -0.000016  -0.000007  -0.000009   0.000390   0.000083   0.000001
    23  H    0.000358  -0.000011   0.000004   0.000009  -0.000007  -0.000014
    24  H    0.000002   0.000000  -0.000000   0.000000  -0.000000  -0.000000
    25  H   -0.000000  -0.000001   0.000000   0.000000   0.000001  -0.000000
    26  H   -0.000002  -0.000001  -0.000000   0.000000  -0.000000   0.000000
    27  H    0.000000  -0.000001   0.000000   0.000000   0.000004   0.000000
    28  H   -0.000000  -0.000001   0.000000  -0.000000   0.000002   0.000000
    29  H    0.000000   0.000021   0.000000  -0.000005   0.000923   0.000001
              19         20         21         22         23         24
     1  C    0.006476  -0.003348  -0.009269   0.012419  -0.013742  -0.000574
     2  Si  -0.034021  -0.032936  -0.022772  -0.019965   0.006341   0.000085
     3  C   -0.006397   0.007912  -0.006238  -0.014184   0.007427   0.000412
     4  C    0.398884   0.392124   0.395276   0.003374   0.003431   0.000128
     5  C   -0.003108   0.001573   0.005919   0.371881   0.390196   0.013800
     6  N    0.001970  -0.002348   0.000861  -0.089777  -0.069675  -0.033606
     7  C    0.000155  -0.000507   0.000068   0.011674  -0.030527   0.383674
     8  N   -0.001129  -0.000104  -0.000565   0.031913   0.032716  -0.023522
     9  C   -0.000060  -0.000132  -0.000054  -0.005175   0.002590   0.012398
    10  C    0.000005  -0.000002   0.000028   0.000117  -0.000237   0.005143
    11  C    0.000009   0.000005  -0.000000   0.002134  -0.000565  -0.005485
    12  N   -0.000000  -0.000000   0.000000  -0.000027   0.000002   0.000091
    13  H    0.000003   0.000325   0.000046  -0.000016   0.000358   0.000002
    14  H   -0.000016   0.000004   0.000016  -0.000007  -0.000011   0.000000
    15  H    0.000009   0.000003   0.000449  -0.000009   0.000004  -0.000000
    16  H    0.000352   0.000001  -0.000026   0.000390   0.000009   0.000000
    17  H    0.000006  -0.000019   0.000010   0.000083  -0.000007  -0.000000
    18  H    0.000008   0.000015   0.000527   0.000001  -0.000014  -0.000000
    19  H    0.526821  -0.025117  -0.023872   0.000362  -0.000306   0.000000
    20  H   -0.025117   0.528325  -0.023619   0.000060   0.000730  -0.000000
    21  H   -0.023872  -0.023619   0.521414  -0.000038   0.000047  -0.000000
    22  H    0.000362   0.000060  -0.000038   0.590217  -0.043439  -0.000378
    23  H   -0.000306   0.000730   0.000047  -0.043439   0.568725   0.000494
    24  H    0.000000  -0.000000  -0.000000  -0.000378   0.000494   0.566959
    25  H    0.000000   0.000000  -0.000000   0.004230  -0.000772  -0.042433
    26  H    0.000000  -0.000000   0.000000  -0.001590   0.001856  -0.021518
    27  H   -0.000000  -0.000000  -0.000000  -0.000016   0.000016  -0.001105
    28  H    0.000000   0.000000  -0.000000   0.000001  -0.000000  -0.000053
    29  H   -0.000000  -0.000000   0.000000  -0.000002   0.000000  -0.000003
              25         26         27         28         29
     1  C    0.000533   0.000601  -0.001485   0.000296  -0.000450
     2  Si   0.001780  -0.006407   0.008602   0.001312   0.001386
     3  C   -0.000473   0.000311  -0.001617  -0.000399  -0.001096
     4  C   -0.000073  -0.000475   0.000088  -0.000003   0.000034
     5  C   -0.026094   0.003146  -0.004169  -0.001987   0.000162
     6  N   -0.088280  -0.060492  -0.078480   0.001482  -0.022749
     7  C    0.431615   0.426055   0.012539   0.001458  -0.000515
     8  N    0.031346   0.003270   0.013873   0.008415  -0.003117
     9  C   -0.006849  -0.005440   0.376978  -0.066383  -0.043157
    10  C    0.002191  -0.003225  -0.036848   0.419474   0.454906
    11  C    0.006495  -0.000185  -0.008587  -0.053434  -0.062381
    12  N   -0.000149  -0.000000   0.000662  -0.004430   0.000732
    13  H   -0.000000  -0.000002   0.000000  -0.000000   0.000000
    14  H   -0.000001  -0.000001  -0.000001  -0.000001   0.000021
    15  H    0.000000  -0.000000   0.000000   0.000000   0.000000
    16  H    0.000000   0.000000   0.000000  -0.000000  -0.000005
    17  H    0.000001  -0.000000   0.000004   0.000002   0.000923
    18  H   -0.000000   0.000000   0.000000   0.000000   0.000001
    19  H    0.000000   0.000000  -0.000000   0.000000  -0.000000
    20  H    0.000000  -0.000000  -0.000000   0.000000  -0.000000
    21  H   -0.000000   0.000000  -0.000000  -0.000000   0.000000
    22  H    0.004230  -0.001590  -0.000016   0.000001  -0.000002
    23  H   -0.000772   0.001856   0.000016  -0.000000   0.000000
    24  H   -0.042433  -0.021518  -0.001105  -0.000053  -0.000003
    25  H    0.564054  -0.029884  -0.001141   0.000019  -0.000006
    26  H   -0.029884   0.541308  -0.000085  -0.000000   0.000000
    27  H   -0.001141  -0.000085   0.590697  -0.000156   0.003488
    28  H    0.000019  -0.000000  -0.000156   0.525643  -0.024708
    29  H   -0.000006   0.000000   0.003488  -0.024708   0.499576
 Mulliken charges:
               1
     1  C   -0.756544
     2  Si   1.173457
     3  C   -0.718012
     4  C   -0.726288
     5  C   -0.738084
     6  N    0.083242
     7  C   -0.268429
     8  N   -0.085859
     9  C   -0.080943
    10  C   -0.345364
    11  C    0.257580
    12  N   -0.512563
    13  H    0.158683
    14  H    0.177203
    15  H    0.157816
    16  H    0.157422
    17  H    0.172930
    18  H    0.156530
    19  H    0.158967
    20  H    0.157055
    21  H    0.161791
    22  H    0.145767
    23  H    0.144354
    24  H    0.145489
    25  H    0.153891
    26  H    0.152757
    27  H    0.126743
    28  H    0.193450
    29  H    0.196958
 Sum of Mulliken charges =  -0.00000
 Mulliken charges with hydrogens summed into heavy atoms:
               1
     1  C   -0.262843
     2  Si   1.173457
     3  C   -0.231130
     4  C   -0.248474
     5  C   -0.447963
     6  N    0.083242
     7  C    0.183709
     8  N   -0.085859
     9  C    0.045799
    10  C    0.045044
    11  C    0.257580
    12  N   -0.512563
 Electronic spatial extent (au):  <R**2>=           3428.4467
 Charge=             -0.0000 electrons
 Dipole moment (field-independent basis, Debye):
    X=             -3.5385    Y=              2.3722    Z=              1.8192  Tot=              4.6323
 Quadrupole moment (field-independent basis, Debye-Ang):
   XX=           -106.3893   YY=            -77.9783   ZZ=            -85.1046
   XY=              6.5422   XZ=             11.7874   YZ=             -3.6900
 Traceless Quadrupole moment (field-independent basis, Debye-Ang):
   XX=            -16.5652   YY=             11.8458   ZZ=              4.7195
   XY=              6.5422   XZ=             11.7874   YZ=             -3.6900
 Octapole moment (field-independent basis, Debye-Ang**2):
  XXX=           -144.7158  YYY=             22.6317  ZZZ=              0.2158  XYY=             -6.4248
  XXY=             37.1878  XXZ=             57.3307  XZZ=             -4.1210  YZZ=              3.3904
  YYZ=              4.9365  XYZ=            -10.8540
 Hexadecapole moment (field-independent basis, Debye-Ang**3):
 XXXX=          -4357.0835 YYYY=           -943.7791 ZZZZ=           -472.1509 XXXY=            203.0117
 XXXZ=            238.1588 YYYX=             19.6603 YYYZ=            -13.5047 ZZZX=             36.1539
 ZZZY=             -2.3966 XXYY=           -748.9820 XXZZ=           -686.6379 YYZZ=           -249.1233
 XXYZ=            -53.1437 YYXZ=             12.4068 ZZXY=              6.6439
 N-N= 7.864445163173D+02 E-N=-3.372198192899D+03  KE= 7.629370432125D+02
 Unable to Open any file for archive entry.
 1\1\GINC-N2\SP\RB3LYP TD-FC\6-31+G(d,p)\C8H17N3Si1\HPCMGAC13\05-Aug-20
 25\0\\# td=(50-50,nstates=3) b3lyp/6-31+g(d,p) geom=connectivity\\Titl
 e Card Required\\0,1\C,0,-2.10796,-0.628919,1.841588\Si,0,-2.11903,-0.
 479384,-0.041528\C,0,-1.355903,-2.000125,-0.862866\C,0,-3.905692,-0.30
 0036,-0.656247\C,0,-1.264026,1.1525,-0.589223\N,0,0.004957,1.475535,0.
 06682\C,0,0.599852,2.769373,-0.237084\N,0,0.802688,0.405548,0.275308\C
 ,0,2.07314,0.522875,0.441365\C,0,2.870326,-0.720148,0.770008\C,0,3.989
 266,-0.93179,-0.159795\N,0,4.877948,-1.07992,-0.892907\H,0,-2.563327,0
 .250203,2.312072\H,0,-1.086244,-0.722495,2.221675\H,0,-2.675073,-1.510
 144,2.164153\H,0,-1.343314,-1.895915,-1.954206\H,0,-0.326519,-2.156329
 ,-0.529311\H,0,-1.93653,-2.899353,-0.624254\H,0,-3.946045,-0.14153,-1.
 740643\H,0,-4.417694,0.542412,-0.176554\H,0,-4.484311,-1.205229,-0.437
 36\H,0,-1.142905,1.135068,-1.688617\H,0,-1.963551,1.969019,-0.370193\H
 ,0,1.223231,3.112181,0.59606\H,0,1.220502,2.736074,-1.148734\H,0,-0.20
 1426,3.494942,-0.382456\H,0,2.61901,1.465113,0.385239\H,0,3.28983,-0.6
 62526,1.784416\H,0,2.207608,-1.59063,0.739081\\Version=ES64L-G16RevC.0
 2\State=1-A\HF=-768.8550212\RMSD=8.211e-09\PG=C01 [X(C8H17N3Si1)]\\@
 The archive entry for this job was punched.


 I (ERNEST RUTHERFORD) CAME INTO THE ROOM, WHICH WAS HALF DARK, AND PRESENTLY
 SPOTTED LORD KELVIN IN THE AUDIENCE AND REALIZED I WAS IN TROUBLE AT
 THE LAST PART OF MY SPEECH DEALING THE AGE OF THE EARTH, WHERE MY VIEWS
 CONFLICTED WITH HIS.  TO MY RELIEF KELVIN FELL FAST ASLEEP, BUT AS I CAME
 TO THE IMPORTANT POINT, I SAW THE OLD BIRD SIT UP AND COCK A BALEFUL GLANCE
 AT ME! THEN A SUDDEN INSPIRATION CAME AND I SAID LORD KELVIN HAD LIMITED
 THE AGE OF THE EARTH PROVIDED NO NEW SOURCE WAS DISCOVERED. THAT
 PROPHETIC UTTERANCE REFERS TO WHAT WE ARE NOW CONSIDERING TONIGHT, RADIUM!
 BEHOLD!  THE OLD BOY BEAMED UPON ME.
 Job cpu time:       0 days  0 hours 49 minutes 46.7 seconds.
 Elapsed time:       0 days  0 hours  3 minutes 12.8 seconds.
 File lengths (MBytes):  RWF=    617 Int=      0 D2E=      0 Chk=     27 Scr=      2
 Normal termination of Gaussian 16 at Tue Aug  5 22:36:54 2025.
