 Entering Gaussian System, Link 0=g16
 Input=M1959e.gjf
 Output=M1959e.log
 Initial command:
 /hpc/softwares/Gaussian/g16/l1.exe "/hpc/home/hpcmgac13/pbs.12809.admin1.x8z/Gau-2017553.inp" -scrdir="/hpc/home/hpcmgac13/pbs.12809.admin1.x8z/"
 Default linda workers: n2
 Default is to use  16 SMP processors on each worker.
 Entering Link 1 = /hpc/softwares/Gaussian/g16/l1.exe PID=   2017554.
  
 Copyright (c) 1988-2021, Gaussian, Inc.  All Rights Reserved.
  
 This is part of the Gaussian(R) 16 program.  It is based on
 the Gaussian(R) 09 system (copyright 2009, Gaussian, Inc.),
 the Gaussian(R) 03 system (copyright 2003, Gaussian, Inc.),
 the Gaussian(R) 98 system (copyright 1998, Gaussian, Inc.),
 the Gaussian(R) 94 system (copyright 1995, Gaussian, Inc.),
 the Gaussian 92(TM) system (copyright 1992, Gaussian, Inc.),
 the Gaussian 90(TM) system (copyright 1990, Gaussian, Inc.),
 the Gaussian 88(TM) system (copyright 1988, Gaussian, Inc.),
 the Gaussian 86(TM) system (copyright 1986, Carnegie Mellon
 University), and the Gaussian 82(TM) system (copyright 1983,
 Carnegie Mellon University). Gaussian is a federally registered
 trademark of Gaussian, Inc.
  
 This software contains proprietary and confidential information,
 including trade secrets, belonging to Gaussian, Inc.
  
 This software is provided under written license and may be
 used, copied, transmitted, or stored only in accord with that
 written license.
  
 The following legend is applicable only to US Government
 contracts under FAR:
  
                    RESTRICTED RIGHTS LEGEND
  
 Use, reproduction and disclosure by the US Government is
 subject to restrictions as set forth in subparagraphs (a)
 and (c) of the Commercial Computer Software - Restricted
 Rights clause in FAR 52.227-19.
  
 Gaussian, Inc.
 340 Quinnipiac St., Bldg. 40, Wallingford CT 06492
  
  
 ---------------------------------------------------------------
 Warning -- This program may not be used in any manner that
 competes with the business of Gaussian, Inc. or will provide
 assistance to any competitor of Gaussian, Inc.  The licensee
 of this program is prohibited from giving any competitor of
 Gaussian, Inc. access to this program.  By using this program,
 the user acknowledges that Gaussian, Inc. is engaged in the
 business of creating and licensing software in the field of
 computational chemistry and represents and warrants to the
 licensee that it is not a competitor of Gaussian, Inc. and that
 it will not use this program in any manner prohibited above.
 ---------------------------------------------------------------
  

 Cite this work as:
 Gaussian 16, Revision C.02,
 M. J. Frisch, G. W. Trucks, H. B. Schlegel, G. E. Scuseria, 
 M. A. Robb, J. R. Cheeseman, G. Scalmani, V. Barone, 
 G. A. Petersson, H. Nakatsuji, X. Li, M. Caricato, A. V. Marenich, 
 J. Bloino, B. G. Janesko, R. Gomperts, B. Mennucci, H. P. Hratchian, 
 J. V. Ortiz, A. F. Izmaylov, J. L. Sonnenberg, D. Williams-Young, 
 F. Ding, F. Lipparini, F. Egidi, J. Goings, B. Peng, A. Petrone, 
 T. Henderson, D. Ranasinghe, V. G. Zakrzewski, J. Gao, N. Rega, 
 G. Zheng, W. Liang, M. Hada, M. Ehara, K. Toyota, R. Fukuda, 
 J. Hasegawa, M. Ishida, T. Nakajima, Y. Honda, O. Kitao, H. Nakai, 
 T. Vreven, K. Throssell, J. A. Montgomery, Jr., J. E. Peralta, 
 F. Ogliaro, M. J. Bearpark, J. J. Heyd, E. N. Brothers, K. N. Kudin, 
 V. N. Staroverov, T. A. Keith, R. Kobayashi, J. Normand, 
 K. Raghavachari, A. P. Rendell, J. C. Burant, S. S. Iyengar, 
 J. Tomasi, M. Cossi, J. M. Millam, M. Klene, C. Adamo, R. Cammi, 
 J. W. Ochterski, R. L. Martin, K. Morokuma, O. Farkas, 
 J. B. Foresman, and D. J. Fox, Gaussian, Inc., Wallingford CT, 2019.
 
 ******************************************
 Gaussian 16:  ES64L-G16RevC.02  7-Dec-2021
                 5-Aug-2025 
 ******************************************
 SetLPE:    new flags="-opt 'Tsnet.Node.lindarsharg: ssh'  -nodelist 'n2.head.cm.mguif.local' -env GAUSS_MDEF=2147483648 -env GAUSS_EXEDIR="/hpc/softwares/Gaussian/g16/bsd:/hpc/softwares/Gaussian/g16""
 Will use up to    1 processors via Linda.
 ----------------------------------------------------------
 # td=(50-50,nstates=3) b3lyp/6-31+g(d,p) geom=connectivity
 ----------------------------------------------------------
 1/38=1,57=2,172=1/1;
 2/12=2,17=6,18=5,40=1/2;
 3/5=1,6=6,7=111,11=9,25=1,30=1,74=-5/1,2,3,8;
 4//1;
 5/5=2,38=5/2;
 8/6=1,10=2,108=3/1;
 9/41=3,42=1,48=2,70=2/14;
 6/7=2,8=2,9=2,10=2/1;
 99/5=1,9=1/99;
 -------------------
 Title Card Required
 -------------------
 Symbolic Z-matrix:
 Charge =  0 Multiplicity = 1
 C                    -4.81703   1.94508  -0.86533 
 C                    -4.17495   0.76808  -0.67712 
 C                    -4.89749  -0.4362   -0.98691 
 N                    -5.52319  -1.37156  -1.28086 
 C                    -2.76702   0.71278  -0.27008 
 C                    -1.92894  -0.23927   0.24273 
 C                    -2.2405   -1.63773   0.75907 
 C                    -3.45796  -1.6897    1.70651 
 C                    -2.31965  -2.70423  -0.35405 
 C                    -0.63551   0.43025   0.43254 
 C                     0.58365  -0.0332    0.81914 
 C                     1.66593   0.91472   1.26131 
 O                     1.51997   1.76844   2.09889 
 O                     2.91264   0.68437   0.74581 
 C                     3.19165  -0.46709   0.00135 
 C                     4.50486  -0.32263  -0.74644 
 C                     4.39304   0.87218  -1.72502 
 C                     5.63969  -0.0511    0.27199 
 C                     4.83097  -1.60087  -1.53915 
 C                     2.36292  -1.51511   0.05381 
 C                     1.06135  -1.46552   0.83046 
 C                    -0.83258   1.84981  -0.01402 
 O                    -0.06983   2.76795  -0.14486 
 O                    -2.14999   1.94847  -0.43081 
 H                    -4.31031   2.88613  -0.69151 
 H                    -5.84735   1.96368  -1.20047 
 H                    -1.38822  -1.89944   1.39133 
 H                    -3.50655  -2.67746   2.17748 
 H                    -3.36579  -0.94229   2.501 
 H                    -4.40643  -1.53303   1.19091 
 H                    -2.40108  -3.70196   0.091 
 H                    -1.42753  -2.68834  -0.98963 
 H                    -3.18966  -2.55486  -0.99651 
 H                     5.3416    1.00479  -2.25638 
 H                     3.60765   0.69966  -2.46882 
 H                     4.16545   1.80071  -1.19531 
 H                     6.58911   0.07692  -0.25895 
 H                     5.74982  -0.88851   0.9696 
 H                     5.44591   0.85489   0.85135 
 H                     4.06298  -1.82193  -2.28799 
 H                     5.78021  -1.46705  -2.0674 
 H                     4.93782  -2.47085  -0.88238 
 H                     2.59883  -2.41923  -0.49247 
 H                     0.33586  -2.12906   0.36301 
 H                     1.21308  -1.82725   1.86119 
 
                          Input orientation:                          
 ---------------------------------------------------------------------
 Center     Atomic      Atomic             Coordinates (Angstroms)
 Number     Number       Type             X           Y           Z
 ---------------------------------------------------------------------
      1          6           0       -4.817032    1.945077   -0.865330
      2          6           0       -4.174947    0.768075   -0.677117
      3          6           0       -4.897485   -0.436197   -0.986914
      4          7           0       -5.523193   -1.371564   -1.280857
      5          6           0       -2.767022    0.712780   -0.270081
      6          6           0       -1.928944   -0.239272    0.242731
      7          6           0       -2.240500   -1.637733    0.759068
      8          6           0       -3.457959   -1.689698    1.706507
      9          6           0       -2.319652   -2.704227   -0.354052
     10          6           0       -0.635514    0.430247    0.432541
     11          6           0        0.583647   -0.033195    0.819144
     12          6           0        1.665925    0.914719    1.261308
     13          8           0        1.519965    1.768439    2.098890
     14          8           0        2.912644    0.684371    0.745809
     15          6           0        3.191654   -0.467086    0.001347
     16          6           0        4.504860   -0.322626   -0.746440
     17          6           0        4.393041    0.872178   -1.725018
     18          6           0        5.639694   -0.051098    0.271993
     19          6           0        4.830972   -1.600869   -1.539150
     20          6           0        2.362919   -1.515105    0.053812
     21          6           0        1.061354   -1.465517    0.830464
     22          6           0       -0.832575    1.849806   -0.014018
     23          8           0       -0.069827    2.767951   -0.144862
     24          8           0       -2.149989    1.948471   -0.430813
     25          1           0       -4.310311    2.886125   -0.691508
     26          1           0       -5.847347    1.963676   -1.200466
     27          1           0       -1.388217   -1.899442    1.391329
     28          1           0       -3.506549   -2.677456    2.177478
     29          1           0       -3.365791   -0.942291    2.500996
     30          1           0       -4.406429   -1.533027    1.190907
     31          1           0       -2.401082   -3.701961    0.090995
     32          1           0       -1.427532   -2.688338   -0.989634
     33          1           0       -3.189663   -2.554863   -0.996514
     34          1           0        5.341598    1.004791   -2.256384
     35          1           0        3.607649    0.699664   -2.468821
     36          1           0        4.165450    1.800708   -1.195305
     37          1           0        6.589108    0.076915   -0.258951
     38          1           0        5.749822   -0.888511    0.969599
     39          1           0        5.445906    0.854891    0.851350
     40          1           0        4.062984   -1.821927   -2.287992
     41          1           0        5.780207   -1.467045   -2.067399
     42          1           0        4.937824   -2.470848   -0.882376
     43          1           0        2.598828   -2.419225   -0.492474
     44          1           0        0.335864   -2.129056    0.363010
     45          1           0        1.213081   -1.827253    1.861193
 ---------------------------------------------------------------------
                    Distance matrix (angstroms):
                    1          2          3          4          5
     1  C    0.000000
     2  C    1.353895   0.000000
     3  C    2.385733   1.438161   0.000000
     4  N    3.416348   2.600062   1.163110   0.000000
     5  C    2.464836   1.466625   2.524454   3.600366   0.000000
     6  C    3.786850   2.627812   3.219168   4.064730   1.368121
     7  C    4.702522   3.404794   3.398781   3.874044   2.619405
     8  C    4.655428   3.498054   3.301214   3.645647   3.186879
     9  C    5.302296   3.950110   3.491375   3.591327   3.447191
    10  C    4.632955   3.724655   4.574929   5.483763   2.262041
    11  C    5.993192   5.052232   5.785073   6.595053   3.601371
    12  C    6.900214   6.155874   7.068085   7.960723   4.694353
    13  O    6.998238   6.413966   7.454279   8.419524   5.010459
    14  O    7.995814   7.229500   8.078126   8.916142   5.769874
    15  C    8.408847   7.500183   8.149343   8.854981   6.080426
    16  C    9.594492   8.748342   9.406105  10.096916   7.360656
    17  C    9.312122   8.632459   9.411191  10.176608   7.308129
    18  C   10.706135   9.894394  10.619100  11.347468   8.458737
    19  C   10.301056   9.352089   9.813475  10.359924   8.043197
    20  C    8.023053   6.963538   7.413543   7.999544   5.602203
    21  C    7.004519   5.889022   6.314279   6.915400   4.540115
    22  C    4.075501   3.575093   4.764014   5.829580   2.258425
    23  O    4.871566   4.597261   5.855075   6.940120   3.393268
    24  O    2.702209   2.356789   3.680302   4.808712   1.390502
    25  H    1.082844   2.122420   3.386718   4.466132   2.698661
    26  H    1.083610   2.121386   2.589833   3.351920   3.452356
    27  H    5.624021   4.377211   4.484650   4.951491   3.388966
    28  H    5.687166   4.524064   4.119626   4.210972   4.246310
    29  H    4.666385   3.698714   3.842881   4.375051   3.282781
    30  H    4.061270   2.972906   2.487383   2.717140   3.140986
    31  H    6.216141   4.870094   4.249604   4.130412   4.444573
    32  H    5.742186   4.426369   4.136752   4.311977   3.725533
    33  H    4.786961   3.480620   2.721304   2.631807   3.373992
    34  H   10.296452   9.649598  10.417621  11.164336   8.353466
    35  H    8.665881   7.986469   8.707671   9.437877   6.743223
    36  H    8.989700   8.420040   9.337235  10.195118   7.078050
    37  H   11.574012  10.794325  11.521069  12.241332   9.377719
    38  H   11.092997  10.195930  10.835021  11.505597   8.754289
    39  H   10.462475   9.741897  10.584510  11.394057   8.290355
    40  H    9.750332   8.784449   9.159861   9.649453   7.559477
    41  H   11.197724  10.297268  10.781614  11.331135   9.002062
    42  H   10.707843   9.673435  10.044105  10.526162   8.359129
    43  H    8.612847   7.488458   7.769915   8.227172   6.217014
    44  H    6.682793   5.461012   5.663569   6.132262   4.254966
    45  H    7.617523   6.496891   6.883732   7.446980   5.180281
                    6          7          8          9         10
     6  C    0.000000
     7  C    1.522946   0.000000
     8  C    2.565982   1.543550   0.000000
     9  C    2.566088   1.543603   2.563380   0.000000
    10  C    1.468756   2.638018   3.752779   3.644170   0.000000
    11  C    2.586085   3.248686   4.457128   4.115817   1.360365
    12  C    3.910534   4.693337   5.765013   5.620586   2.493630
    13  O    4.401273   5.247688   6.073912   6.384695   3.035386
    14  O    4.954511   5.652189   6.866129   6.330025   3.571014
    15  C    5.131344   5.608284   6.972783   5.958658   3.954535
    16  C    6.509934   7.035335   8.443478   7.238781   5.327313
    17  C    6.713781   7.514932   8.942973   7.728549   5.489693
    18  C    7.571033   8.053081   9.354685   8.413217   6.295689
    19  C    7.122184   7.435649   8.902166   7.331663   6.155929
    20  C    4.481465   4.658743   6.053470   4.848385   3.594222
    21  C    3.284964   3.307113   4.608893   3.790604   2.575194
    22  C    2.373224   3.839641   4.730849   4.802732   1.501131
    23  O    3.556675   4.993892   5.897257   5.920321   2.473511
    24  O    2.299726   3.779533   4.417601   4.656423   2.311713
    25  H    4.038789   5.182044   5.235947   5.943790   4.560587
    26  H    4.721195   5.460702   5.244693   5.911884   5.672858
    27  H    2.089935   1.092992   2.104082   2.135791   2.629313
    28  H    3.489531   2.166977   1.095372   2.796084   4.576622
    29  H    2.767404   2.187289   1.094680   3.514274   3.690092
    30  H    2.951402   2.211040   1.090864   2.848376   4.318491
    31  H    3.498021   2.175579   2.788561   1.095523   4.506554
    32  H    2.787124   2.196052   3.519814   1.095488   3.517875
    33  H    2.913263   2.196385   2.850757   1.091781   4.180521
    34  H    7.788071   8.576951  10.019829   8.721837   6.579231
    35  H    6.236023   7.076972   8.547820   7.154832   5.147322
    36  H    6.585674   7.528522   8.872419   7.940950   5.251409
    37  H    8.538669   9.051981  10.388816   9.333263   7.266235
    38  H    7.740368   8.028132   9.271902   8.376472   6.542176
    39  H    7.480376   8.080998   9.299733   8.626947   6.110597
    40  H    6.694218   7.003743   8.516930   6.727304   5.877880
    41  H    8.140954   8.505868   9.981766   8.371015   7.142191
    42  H    7.307414   7.410584   8.820526   7.280422   6.419303
    43  H    5.078724   5.059267   6.484782   4.928674   4.408641
    44  H    2.952136   2.652529   4.048594   2.810118   2.738328
    45  H    3.874716   3.630127   4.675624   4.261056   3.248793
                   11         12         13         14         15
    11  C    0.000000
    12  C    1.505116   0.000000
    13  O    2.400068   1.204859   0.000000
    14  O    2.438136   1.368615   2.223867   0.000000
    15  C    2.767445   2.413449   3.491676   1.399258   0.000000
    16  C    4.232108   3.690749   4.623641   2.403331   1.518079
    17  C    4.669469   4.044393   4.866223   2.886491   2.493450
    18  C    5.085598   4.207420   4.860086   2.863951   2.497838
    19  C    5.104794   4.918157   5.962410   3.758103   2.519119
    20  C    2.438770   2.801409   3.959113   2.370391   1.337123
    21  C    1.509927   2.493322   3.503955   2.838390   2.494489
    22  C    2.499107   2.956915   3.163139   3.995277   4.643559
    23  O    3.033604   2.902519   2.925899   3.745629   4.596096
    24  O    3.600300   4.300362   4.460983   5.349079   5.878335
    25  H    5.895365   6.589031   6.559547   7.686656   8.246427
    26  H    7.030221   7.975581   8.074723   9.064328   9.436975
    27  H    2.774621   4.155020   4.734080   5.058675   4.995890
    28  H    5.056371   6.363771   6.711036   7.386311   7.381545
    29  H    4.387840   5.504860   5.601817   6.719037   7.033786
    30  H    5.223846   6.547511   6.844433   7.660535   7.764158
    31  H    4.785254   6.262900   7.023641   6.921299   6.461513
    32  H    3.790291   5.255305   6.171676   5.764031   5.220429
    33  H    4.888076   6.380634   7.103032   7.125060   6.787912
    34  H    5.759721   5.088501   5.844352   3.875003   3.447612
    35  H    4.526851   4.210749   5.134656   3.288938   2.763347
    36  H    4.500058   3.614907   4.225086   2.565863   2.742835
    37  H    6.102456   5.220233   5.840966   3.859395   3.450563
    38  H    5.238661   4.473807   5.121169   3.251710   2.767550
    39  H    4.942802   3.802618   4.219471   2.541187   2.748050
    40  H    4.995963   5.082583   6.213084   4.099849   2.799265
    41  H    6.114924   5.803482   6.780559   4.556934   3.461248
    42  H    5.272208   5.173274   6.208161   4.087511   2.800917
    43  H    3.387394   3.880882   5.041393   3.356208   2.099083
    44  H    2.159187   3.441013   4.427848   3.834280   3.323926
    45  H    2.168109   2.843122   3.616584   3.231231   3.037076
                   16         17         18         19         20
    16  C    0.000000
    17  C    1.548443   0.000000
    18  C    1.548800   2.528762   0.000000
    19  C    1.539040   2.518391   2.517153   0.000000
    20  C    2.578822   3.603436   3.595577   2.938736   0.000000
    21  C    3.956079   4.805772   4.824279   4.454594   1.516482
    22  C    5.808969   5.584831   6.751704   6.805068   4.640949
    23  O    5.553497   5.099808   6.381178   6.711815   4.929736
    24  O    7.038787   6.756080   8.072879   7.909491   5.709427
    25  H    9.381169   8.992912  10.419127  10.218350   8.028594
    26  H   10.611386  10.311744  11.754980  11.262646   9.004643
    27  H    6.464113   7.128565   7.352606   6.881509   4.000961
    28  H    8.847440   9.499100   9.704761   9.191660   6.349147
    29  H    8.536801   9.019477   9.319948   9.162065   6.255793
    30  H    9.199427   9.576967  10.196328   9.632621   6.864210
    31  H    7.733902   8.389324   8.832646   7.705489   5.242082
    32  H    6.391323   6.862735   7.648034   6.376004   4.102776
    33  H    8.015679   8.353007   9.264745   8.095378   5.745907
    34  H    2.177636   1.095307   2.756166   2.750387   4.534249
    35  H    2.194689   1.095374   3.493553   2.766452   3.580256
    36  H    2.196640   1.092960   2.784878   3.483084   3.975428
    37  H    2.177468   2.757627   1.095297   2.746800   4.526922
    38  H    2.194299   3.493113   1.095465   2.765061   3.564042
    39  H    2.196599   2.783253   1.092714   3.481866   3.969604
    40  H    2.195345   2.772017   3.489323   1.095188   2.910053
    41  H    2.163594   2.741062   2.738139   1.094533   4.022400
    42  H    2.195631   3.490366   2.771350   1.095278   2.901729
    43  H    2.844852   3.946099   3.929288   2.597634   1.082365
    44  H    4.677029   5.461497   5.697088   4.909500   2.140442
    45  H    4.460881   5.500907   5.027443   4.970183   2.164761
                   21         22         23         24         25
    21  C    0.000000
    22  C    3.910433   0.000000
    23  O    4.489218   1.200789   0.000000
    24  O    4.853747   1.385291   2.253972   0.000000
    25  H    7.078698   3.691558   4.277206   2.369419   0.000000
    26  H    7.975850   5.154470   5.927976   3.776646   1.863446
    27  H    2.550149   4.042351   5.087494   4.325151   5.981513
    28  H    4.914161   5.696393   6.845201   5.481116   6.311145
    29  H    4.760678   4.531918   5.624041   4.293039   5.073556
    30  H    5.480066   5.066343   6.252104   4.454473   4.804334
    31  H    4.187715   5.770040   6.881144   5.680028   6.903647
    32  H    3.317017   4.679802   5.685780   4.725910   6.282828
    33  H    4.753490   5.091392   6.228245   4.656281   5.563563
    34  H    5.826795   6.622890   6.070484   7.768341   9.957289
    35  H    4.696478   5.202353   4.816890   6.234051   8.404376
    36  H    4.940382   5.135962   4.469515   6.363258   8.559817
    37  H    5.841403   7.634429   7.183043   8.938908  11.263929
    38  H    4.725889   7.196793   6.962762   8.509796  10.872600
    39  H    4.960749   6.415453   5.922461   7.780584  10.084151
    40  H    4.342992   6.528329   6.537592   7.501070   9.737894
    41  H    5.537616   7.677679   7.473569   8.788184  11.075275
    42  H    4.355632   7.260826   7.284608   8.364890  10.689321
    43  H    2.241328   5.498006   5.843744   6.452274   8.713355
    44  H    1.088638   4.163982   4.939959   4.841058   6.917441
    45  H    1.102849   4.606722   5.175520   5.551542   7.696757
                   26         27         28         29         30
    26  H    0.000000
    27  H    6.443983   0.000000
    28  H    6.199189   2.389700   0.000000
    29  H    5.320111   2.461361   1.770671   0.000000
    30  H    4.474577   3.046971   1.758643   1.774325   0.000000
    31  H    6.756039   2.442507   2.573923   3.788739   3.152062
    32  H    6.420315   2.508563   3.788539   4.357755   3.868246
    33  H    5.246149   3.062120   3.192126   3.855384   2.703605
    34  H   11.279491   8.187233  10.559724  10.111499  10.646519
    35  H    9.623066   6.827502   9.143569   8.719172   9.088672
    36  H   10.014124   7.157164   9.502062   8.826453   9.501837
    37  H   12.613950   8.382549  10.744535  10.380564  11.206955
    38  H   12.138306   7.221595   9.504720   9.243510  10.179087
    39  H   11.531562   7.388042   9.715068   9.143150  10.143271
    40  H   10.664341   6.577158   8.830073   8.882278   9.160631
    41  H   12.154071   7.970952  10.282408  10.236937  10.695254
    42  H   11.665595   6.746483   8.984032   9.095808   9.617332
    43  H    9.541957   4.440204   6.668655   6.835121   7.258977
    44  H    7.578061   2.020549   4.284527   4.436400   4.850774
    45  H    8.578726   2.644378   4.806016   4.707289   5.666987
                   31         32         33         34         35
    31  H    0.000000
    32  H    1.772848   0.000000
    33  H    1.766457   1.767192   0.000000
    34  H    9.360171   7.814408   9.329567   0.000000
    35  H    7.876027   6.246567   7.678742   1.773362   0.000000
    36  H    8.663329   7.174628   8.550334   1.772765   1.773495
    37  H    9.758375   8.511583  10.153552   2.531200   3.763036
    38  H    8.667450   7.654566   9.303586   3.762739   4.351314
    39  H    9.105946   7.949078   9.466471   3.113095   3.798265
    40  H    7.139906   5.708079   7.403107   3.102610   2.568745
    41  H    8.751400   7.389495   9.098830   2.517552   3.094475
    42  H    7.504841   6.369974   8.128723   3.759122   3.786597
    43  H    5.194704   4.065854   5.811977   4.728430   3.827680
    44  H    3.168422   2.291726   3.802494   6.460619   5.169671
    45  H    4.439629   3.980141   5.299062   6.482250   5.555924
                   36         37         38         39         40
    36  H    0.000000
    37  H    3.118067   0.000000
    38  H    3.798545   1.773636   0.000000
    39  H    2.592862   1.773394   1.773640   0.000000
    40  H    3.785228   3.755517   3.785312   4.351241   0.000000
    41  H    3.747826   2.511696   3.091760   3.744628   1.767331
    42  H    4.352089   3.099434   2.567673   3.784771   1.778258
    43  H    4.555887   4.712492   3.795986   4.542197   2.392572
    44  H    5.704132   6.660045   5.587293   5.937587   4.584055
    45  H    5.587554   6.084614   4.717859   5.111799   5.033658
                   41         42         43         44         45
    41  H    0.000000
    42  H    1.766779   0.000000
    43  H    3.675351   2.371833   0.000000
    44  H    5.998835   4.779733   2.436608   0.000000
    45  H    6.035083   4.670663   2.794723   1.762143   0.000000
 Stoichiometry    C19H21NO4
 Framework group  C1[X(C19H21NO4)]
 Deg. of freedom   129
 Full point group                 C1      NOp   1
 Largest Abelian subgroup         C1      NOp   1
 Largest concise Abelian subgroup C1      NOp   1
                         Standard orientation:                         
 ---------------------------------------------------------------------
 Center     Atomic      Atomic             Coordinates (Angstroms)
 Number     Number       Type             X           Y           Z
 ---------------------------------------------------------------------
      1          6           0        4.817032   -1.945077   -0.865330
      2          6           0        4.174947   -0.768075   -0.677117
      3          6           0        4.897485    0.436197   -0.986914
      4          7           0        5.523193    1.371564   -1.280857
      5          6           0        2.767022   -0.712780   -0.270081
      6          6           0        1.928944    0.239272    0.242731
      7          6           0        2.240500    1.637733    0.759068
      8          6           0        3.457959    1.689698    1.706507
      9          6           0        2.319652    2.704227   -0.354052
     10          6           0        0.635514   -0.430247    0.432541
     11          6           0       -0.583647    0.033195    0.819144
     12          6           0       -1.665925   -0.914719    1.261308
     13          8           0       -1.519965   -1.768439    2.098890
     14          8           0       -2.912644   -0.684371    0.745809
     15          6           0       -3.191654    0.467086    0.001347
     16          6           0       -4.504860    0.322626   -0.746440
     17          6           0       -4.393041   -0.872178   -1.725018
     18          6           0       -5.639694    0.051098    0.271993
     19          6           0       -4.830972    1.600869   -1.539150
     20          6           0       -2.362919    1.515105    0.053812
     21          6           0       -1.061354    1.465517    0.830464
     22          6           0        0.832575   -1.849806   -0.014018
     23          8           0        0.069827   -2.767951   -0.144862
     24          8           0        2.149989   -1.948471   -0.430813
     25          1           0        4.310311   -2.886125   -0.691508
     26          1           0        5.847347   -1.963676   -1.200466
     27          1           0        1.388217    1.899442    1.391329
     28          1           0        3.506549    2.677456    2.177478
     29          1           0        3.365791    0.942291    2.500996
     30          1           0        4.406429    1.533027    1.190907
     31          1           0        2.401082    3.701961    0.090995
     32          1           0        1.427532    2.688338   -0.989634
     33          1           0        3.189663    2.554863   -0.996514
     34          1           0       -5.341598   -1.004791   -2.256384
     35          1           0       -3.607649   -0.699664   -2.468821
     36          1           0       -4.165450   -1.800708   -1.195305
     37          1           0       -6.589108   -0.076915   -0.258951
     38          1           0       -5.749822    0.888511    0.969599
     39          1           0       -5.445906   -0.854891    0.851350
     40          1           0       -4.062984    1.821927   -2.287992
     41          1           0       -5.780207    1.467045   -2.067399
     42          1           0       -4.937824    2.470848   -0.882376
     43          1           0       -2.598828    2.419225   -0.492474
     44          1           0       -0.335864    2.129056    0.363010
     45          1           0       -1.213081    1.827253    1.861193
 ---------------------------------------------------------------------
 Rotational constants (GHZ):           0.4811065           0.1281994           0.1167577
 Standard basis: 6-31+G(d,p) (6D, 7F)
 There are   561 symmetry adapted cartesian basis functions of A   symmetry.
 There are   561 symmetry adapted basis functions of A   symmetry.
   561 basis functions,   915 primitive gaussians,   561 cartesian basis functions
    87 alpha electrons       87 beta electrons
       nuclear repulsion energy      2054.1272799616 Hartrees.
 NAtoms=   45 NActive=   45 NUniq=   45 SFac= 1.00D+00 NAtFMM=   60 NAOKFM=F Big=F
 Integral buffers will be    131072 words long.
 Regular integral format.
 Two-electron integral symmetry is turned on.
 One-electron integrals computed using PRISM.
 NBasis=   561 RedAO= T EigKep=  1.03D-06  NBF=   561
 NBsUse=   559 1.00D-06 EigRej=  2.67D-07 NBFU=   559
 ExpMin= 4.38D-02 ExpMax= 5.48D+03 ExpMxC= 8.25D+02 IAcc=3 IRadAn=         5 AccDes= 0.00D+00
 Harris functional with IExCor=  402 and IRadAn=       5 diagonalized for initial guess.
 HarFok:  IExCor=  402 AccDes= 0.00D+00 IRadAn=         5 IDoV= 1 UseB2=F ITyADJ=14
 ICtDFT=  3500011 ScaDFX=  1.000000  1.000000  1.000000  1.000000
 FoFCou: FMM=F IPFlag=           0 FMFlag=      100000 FMFlg1=           0
         NFxFlg=           0 DoJE=T BraDBF=F KetDBF=T FulRan=T
         wScrn=  0.000000 ICntrl=       500 IOpCl=  0 I1Cent=   200000004 NGrid=           0
         NMat0=    1 NMatS0=      1 NMatT0=    0 NMatD0=    1 NMtDS0=    0 NMtDT0=    0
 Petite list used in FoFCou.
 Requested convergence on RMS density matrix=1.00D-08 within 128 cycles.
 Requested convergence on MAX density matrix=1.00D-06.
 Requested convergence on             energy=1.00D-06.
 No special actions if energy rises.
 SCF Done:  E(RB3LYP) =  -1092.31281029     A.U. after   18 cycles
            NFock= 18  Conv=0.30D-08     -V/T= 2.0094
 DoSCS=F DFT=T ScalE2(SS,OS)=  1.000000  1.000000
 ExpMin= 4.38D-02 ExpMax= 5.48D+03 ExpMxC= 8.25D+02 IAcc=3 IRadAn=         5 AccDes= 0.00D+00
 HarFok:  IExCor=  205 AccDes= 0.00D+00 IRadAn=         5 IDoV=-2 UseB2=F ITyADJ=14
 ICtDFT= 12500011 ScaDFX=  1.000000  1.000000  1.000000  1.000000
 GSVD:  LWork=        -768 too small for GESVD, short by        3240 words or        3240 for optimal perf.
 Range of M.O.s used for correlation:    25   559
 NBasis=   561 NAE=    87 NBE=    87 NFC=    24 NFV=     0
 NROrb=    535 NOA=    63 NOB=    63 NVA=   472 NVB=   472

 **** Warning!!: The largest alpha MO coefficient is  0.16915707D+03

 Orbital symmetries:
       Occupied  (A) (A) (A) (A) (A) (A) (A) (A) (A) (A) (A) (A)
                 (A) (A) (A) (A) (A) (A) (A) (A) (A) (A) (A) (A)
                 (A) (A) (A) (A) (A) (A) (A) (A) (A) (A) (A) (A)
                 (A) (A) (A) (A) (A) (A) (A) (A) (A) (A) (A) (A)
                 (A) (A) (A) (A) (A) (A) (A) (A) (A) (A) (A) (A)
                 (A) (A) (A) (A) (A) (A) (A) (A) (A) (A) (A) (A)
                 (A) (A) (A) (A) (A) (A) (A) (A) (A) (A) (A) (A)
                 (A) (A) (A)
       Virtual   (A) (A) (A) (A) (A) (A) (A) (A) (A) (A) (A) (A)
                 (A) (A) (A) (A) (A) (A) (A) (A) (A) (A) (A) (A)
                 (A) (A) (A) (A) (A) (A) (A) (A) (A) (A) (A) (A)
                 (A) (A) (A) (A) (A) (A) (A) (A) (A) (A) (A) (A)
                 (A) (A) (A) (A) (A) (A) (A) (A) (A) (A) (A) (A)
                 (A) (A) (A) (A) (A) (A) (A) (A) (A) (A) (A) (A)
                 (A) (A) (A) (A) (A) (A) (A) (A) (A) (A) (A) (A)
                 (A) (A) (A) (A) (A) (A) (A) (A) (A) (A) (A) (A)
                 (A) (A) (A) (A) (A) (A) (A) (A) (A) (A) (A) (A)
                 (A) (A) (A) (A) (A) (A) (A) (A) (A) (A) (A) (A)
                 (A) (A) (A) (A) (A) (A) (A) (A) (A) (A) (A) (A)
                 (A) (A) (A) (A) (A) (A) (A) (A) (A) (A) (A) (A)
                 (A) (A) (A) (A) (A) (A) (A) (A) (A) (A) (A) (A)
                 (A) (A) (A) (A) (A) (A) (A) (A) (A) (A) (A) (A)
                 (A) (A) (A) (A) (A) (A) (A) (A) (A) (A) (A) (A)
                 (A) (A) (A) (A) (A) (A) (A) (A) (A) (A) (A) (A)
                 (A) (A) (A) (A) (A) (A) (A) (A) (A) (A) (A) (A)
                 (A) (A) (A) (A) (A) (A) (A) (A) (A) (A) (A) (A)
                 (A) (A) (A) (A) (A) (A) (A) (A) (A) (A) (A) (A)
                 (A) (A) (A) (A) (A) (A) (A) (A) (A) (A) (A) (A)
                 (A) (A) (A) (A) (A) (A) (A) (A) (A) (A) (A) (A)
                 (A) (A) (A) (A) (A) (A) (A) (A) (A) (A) (A) (A)
                 (A) (A) (A) (A) (A) (A) (A) (A) (A) (A) (A) (A)
                 (A) (A) (A) (A) (A) (A) (A) (A) (A) (A) (A) (A)
                 (A) (A) (A) (A) (A) (A) (A) (A) (A) (A) (A) (A)
                 (A) (A) (A) (A) (A) (A) (A) (A) (A) (A) (A) (A)
                 (A) (A) (A) (A) (A) (A) (A) (A) (A) (A) (A) (A)
                 (A) (A) (A) (A) (A) (A) (A) (A) (A) (A) (A) (A)
                 (A) (A) (A) (A) (A) (A) (A) (A) (A) (A) (A) (A)
                 (A) (A) (A) (A) (A) (A) (A) (A) (A) (A) (A) (A)
                 (A) (A) (A) (A) (A) (A) (A) (A) (A) (A) (A) (A)
                 (A) (A) (A) (A) (A) (A) (A) (A) (A) (A) (A) (A)
                 (A) (A) (A) (A) (A) (A) (A) (A) (A) (A) (A) (A)
                 (A) (A) (A) (A) (A) (A) (A) (A) (A) (A) (A) (A)
                 (A) (A) (A) (A) (A) (A) (A) (A) (A) (A) (A) (A)
                 (A) (A) (A) (A) (A) (A) (A) (A) (A) (A) (A) (A)
                 (A) (A) (A) (A) (A) (A) (A) (A) (A) (A) (A) (A)
                 (A) (A) (A) (A) (A) (A) (A) (A) (A) (A) (A) (A)
                 (A) (A) (A) (A) (A) (A) (A) (A) (A) (A) (A) (A)
                 (A) (A) (A) (A)
    24 initial guesses have been made.
 Convergence on wavefunction:    0.001000000000000
 Iteration     1 Dimension    24 NMult     0 NNew     24
 CISAX will form    24 AO SS matrices at one time.
 New state      1 was old state      2
 New state      2 was old state      4
 New state      4 was old state      6
 New state      5 was old state      8
 New state      6 was old state      7
 New state      7 was old state      1
 New state      8 was old state     12
 New state      9 was old state      5
 New state     10 was old state     11
 New state     11 was old state     14
 New state     12 was old state     16
 Vector   5 SDiff=5.93D-01 TDiff=4.38D+01 assumed to be singlet.
 Vector  11 SDiff=7.00D-02 TDiff=2.80D+01 assumed to be singlet.
 Iteration     2 Dimension    36 NMult    24 NNew     12
 New state      3 was old state      4
 New state      4 was old state      3
 New state      5 was old state      6
 New state      6 was old state      7
 Iteration     3 Dimension    48 NMult    36 NNew     12
 New state      2 was old state      3
 New state      3 was old state      2
 Iteration     4 Dimension    60 NMult    48 NNew     12
 Iteration     5 Dimension    72 NMult    60 NNew     12
 Iteration     6 Dimension    80 NMult    72 NNew      8
 ***********************************************************************
 Excited states from <AA,BB:AA,BB> singles matrix:
 ***********************************************************************
 
 Ground to excited state transition densities written to RWF  633
 Ground to excited state transition electric dipole moments (Au):
       state          X           Y           Z        Dip. S.      Osc.
         1        -0.0000      0.0000      0.0000      0.0000      0.0000
         2        -0.0000      0.0000      0.0000      0.0000      0.0000
         3         0.0000     -0.0000     -0.0000      0.0000      0.0000
         4        -0.0858      0.2301      0.0365      0.0616      0.0045
         5         1.9153     -0.7288     -0.5964      4.5550      0.3476
         6        -0.3944      0.0966      0.1438      0.1856      0.0163
 Ground to excited state transition velocity dipole moments (Au):
       state          X           Y           Z        Dip. S.      Osc.
         1         0.0000     -0.0000     -0.0000      0.0000      0.0000
         2         0.0000      0.0000     -0.0000      0.0000      0.0000
         3         0.0000     -0.0000     -0.0000      0.0000      0.0000
         4         0.0105     -0.0277     -0.0021      0.0009      0.0053
         5        -0.2117      0.0874      0.0655      0.0567      0.3305
         6         0.0512     -0.0144     -0.0205      0.0032      0.0164
 Ground to excited state transition magnetic dipole moments (Au):
       state          X           Y           Z
         1        -0.0000     -0.0000     -0.0000
         2        -0.0000      0.0000     -0.0000
         3         0.0000     -0.0000     -0.0000
         4         0.0203      0.1207      0.2891
         5         0.0566     -0.4553      0.5425
         6        -0.0524      0.0477     -0.3535
 Ground to excited state transition velocity quadrupole moments (Au):
       state          XX          YY          ZZ          XY          XZ          YZ
         1        -0.0000     -0.0000     -0.0000     -0.0000     -0.0000      0.0000
         2        -0.0000      0.0000     -0.0000      0.0000     -0.0000     -0.0000
         3         0.0000      0.0000      0.0000     -0.0000     -0.0000      0.0000
         4         0.1639      0.0160      0.0128     -0.0099     -0.0304     -0.0602
         5        -0.8563     -0.2326      0.1194      0.4823      0.2271     -0.1464
         6         0.1737      0.0222     -0.0443     -0.1025     -0.0431      0.0509
 <0|del|b> * <b|rxdel|0> + <0|del|b> * <b|delr+rdel|0>
 Rotatory Strengths (R) in cgs (10**-40 erg-esu-cm/Gauss)
       state          XX          YY          ZZ    R(velocity)    E-M Angle
         1         0.0000      0.0000      0.0000      0.0000       90.00
         2         0.0000     -0.0000      0.0000      0.0000       90.00
         3        -0.0000      0.0000      0.0000      0.0000       90.00
         4       -15.2843     -3.3276     -5.3234     -7.9784      113.58
         5        22.9495     70.8785   -194.4040    -33.5253       95.52
         6        21.6318     13.6383    -14.3875      6.9609       79.10
 1/2[<0|r|b>*<b|rxdel|0> + (<0|rxdel|b>*<b|r|0>)*]
 Rotatory Strengths (R) in cgs (10**-40 erg-esu-cm/Gauss)
       state          XX          YY          ZZ     R(length)
         1        -0.0000      0.0000      0.0000     -0.0000
         2        -0.0000     -0.0000      0.0000     -0.0000
         3        -0.0000     -0.0000     -0.0000     -0.0000
         4         1.2323    -19.6436     -7.4538     -8.6217
         5       -76.7239   -234.6332    228.7964    -27.5202
         6       -14.6052     -3.2623     35.9468      6.0264
  1/2[<0|del|b>*<b|r|0> + (<0|r|b>*<b|del|0>)*] (Au)
       state          X           Y           Z        Dip. S.   Osc.(frdel)
         1        -0.0000     -0.0000     -0.0000      0.0000      0.0000
         2        -0.0000      0.0000     -0.0000      0.0000      0.0000
         3         0.0000      0.0000      0.0000     -0.0000     -0.0000
         4        -0.0009     -0.0064     -0.0001      0.0074      0.0049
         5        -0.4054     -0.0637     -0.0390      0.5082      0.3388
         6        -0.0202     -0.0014     -0.0029      0.0245      0.0163

 Excitation energies and oscillator strengths:
 
 Excited State   1:      Triplet-A      1.4369 eV  862.88 nm  f=0.0000  <S**2>=2.000
      83 -> 89        -0.11868
      87 -> 88         0.70691
      87 <- 88         0.17572
 This state for optimization and/or second-order correction.
 Total Energy, E(TD-HF/TD-DFT) =  -1092.26000670    
 Copying the excited state density for this state as the 1-particle RhoCI density.
 
 Excited State   2:      Triplet-A      2.8193 eV  439.76 nm  f=0.0000  <S**2>=2.000
      82 -> 88         0.10500
      83 -> 88        -0.35593
      83 -> 89         0.16981
      87 -> 89         0.55192
 
 Excited State   3:      Triplet-A      2.8394 eV  436.66 nm  f=0.0000  <S**2>=2.000
      86 -> 88         0.67997
      86 -> 89         0.12940
 
 Excited State   4:      Singlet-A      3.0005 eV  413.22 nm  f=0.0045  <S**2>=0.000
      86 -> 88         0.69527
 
 Excited State   5:      Singlet-A      3.1148 eV  398.05 nm  f=0.3476  <S**2>=0.000
      87 -> 88         0.68531
 
 Excited State   6:      Singlet-A      3.5777 eV  346.54 nm  f=0.0163  <S**2>=0.000
      85 -> 88         0.67901
      85 -> 89         0.14098
 SavETr:  write IOETrn=   770 NScale= 10 NData=  16 NLR=1 NState=    6 LETran=     118.

 **********************************************************************

            Population analysis using the SCF Density.

 **********************************************************************

 Orbital symmetries:
       Occupied  (A) (A) (A) (A) (A) (A) (A) (A) (A) (A) (A) (A)
                 (A) (A) (A) (A) (A) (A) (A) (A) (A) (A) (A) (A)
                 (A) (A) (A) (A) (A) (A) (A) (A) (A) (A) (A) (A)
                 (A) (A) (A) (A) (A) (A) (A) (A) (A) (A) (A) (A)
                 (A) (A) (A) (A) (A) (A) (A) (A) (A) (A) (A) (A)
                 (A) (A) (A) (A) (A) (A) (A) (A) (A) (A) (A) (A)
                 (A) (A) (A) (A) (A) (A) (A) (A) (A) (A) (A) (A)
                 (A) (A) (A)
       Virtual   (A) (A) (A) (A) (A) (A) (A) (A) (A) (A) (A) (A)
                 (A) (A) (A) (A) (A) (A) (A) (A) (A) (A) (A) (A)
                 (A) (A) (A) (A) (A) (A) (A) (A) (A) (A) (A) (A)
                 (A) (A) (A) (A) (A) (A) (A) (A) (A) (A) (A) (A)
                 (A) (A) (A) (A) (A) (A) (A) (A) (A) (A) (A) (A)
                 (A) (A) (A) (A) (A) (A) (A) (A) (A) (A) (A) (A)
                 (A) (A) (A) (A) (A) (A) (A) (A) (A) (A) (A) (A)
                 (A) (A) (A) (A) (A) (A) (A) (A) (A) (A) (A) (A)
                 (A) (A) (A) (A) (A) (A) (A) (A) (A) (A) (A) (A)
                 (A) (A) (A) (A) (A) (A) (A) (A) (A) (A) (A) (A)
                 (A) (A) (A) (A) (A) (A) (A) (A) (A) (A) (A) (A)
                 (A) (A) (A) (A) (A) (A) (A) (A) (A) (A) (A) (A)
                 (A) (A) (A) (A) (A) (A) (A) (A) (A) (A) (A) (A)
                 (A) (A) (A) (A) (A) (A) (A) (A) (A) (A) (A) (A)
                 (A) (A) (A) (A) (A) (A) (A) (A) (A) (A) (A) (A)
                 (A) (A) (A) (A) (A) (A) (A) (A) (A) (A) (A) (A)
                 (A) (A) (A) (A) (A) (A) (A) (A) (A) (A) (A) (A)
                 (A) (A) (A) (A) (A) (A) (A) (A) (A) (A) (A) (A)
                 (A) (A) (A) (A) (A) (A) (A) (A) (A) (A) (A) (A)
                 (A) (A) (A) (A) (A) (A) (A) (A) (A) (A) (A) (A)
                 (A) (A) (A) (A) (A) (A) (A) (A) (A) (A) (A) (A)
                 (A) (A) (A) (A) (A) (A) (A) (A) (A) (A) (A) (A)
                 (A) (A) (A) (A) (A) (A) (A) (A) (A) (A) (A) (A)
                 (A) (A) (A) (A) (A) (A) (A) (A) (A) (A) (A) (A)
                 (A) (A) (A) (A) (A) (A) (A) (A) (A) (A) (A) (A)
                 (A) (A) (A) (A) (A) (A) (A) (A) (A) (A) (A) (A)
                 (A) (A) (A) (A) (A) (A) (A) (A) (A) (A) (A) (A)
                 (A) (A) (A) (A) (A) (A) (A) (A) (A) (A) (A) (A)
                 (A) (A) (A) (A) (A) (A) (A) (A) (A) (A) (A) (A)
                 (A) (A) (A) (A) (A) (A) (A) (A) (A) (A) (A) (A)
                 (A) (A) (A) (A) (A) (A) (A) (A) (A) (A) (A) (A)
                 (A) (A) (A) (A) (A) (A) (A) (A) (A) (A) (A) (A)
                 (A) (A) (A) (A) (A) (A) (A) (A) (A) (A) (A) (A)
                 (A) (A) (A) (A) (A) (A) (A) (A) (A) (A) (A) (A)
                 (A) (A) (A) (A) (A) (A) (A) (A) (A) (A) (A) (A)
                 (A) (A) (A) (A) (A) (A) (A) (A) (A) (A) (A) (A)
                 (A) (A) (A) (A) (A) (A) (A) (A) (A) (A) (A) (A)
                 (A) (A) (A) (A) (A) (A) (A) (A) (A) (A) (A) (A)
                 (A) (A) (A) (A) (A) (A) (A) (A) (A) (A) (A) (A)
                 (A) (A) (A) (A)
 The electronic state is 1-A.
 Alpha  occ. eigenvalues --  -19.23263 -19.22282 -19.16941 -19.16443 -14.36741
 Alpha  occ. eigenvalues --  -10.34493 -10.34428 -10.29912 -10.27823 -10.27240
 Alpha  occ. eigenvalues --  -10.26050 -10.26011 -10.25100 -10.24607 -10.24033
 Alpha  occ. eigenvalues --  -10.23724 -10.22898 -10.22661 -10.21312 -10.19606
 Alpha  occ. eigenvalues --  -10.19482 -10.19341 -10.18684 -10.18651  -1.14515
 Alpha  occ. eigenvalues --   -1.13004  -1.06169  -1.04979  -0.93721  -0.88190
 Alpha  occ. eigenvalues --   -0.86220  -0.84934  -0.83549  -0.80269  -0.77003
 Alpha  occ. eigenvalues --   -0.74042  -0.70642  -0.70536  -0.69693  -0.69605
 Alpha  occ. eigenvalues --   -0.67751  -0.66207  -0.64235  -0.61759  -0.58463
 Alpha  occ. eigenvalues --   -0.57380  -0.56039  -0.53090  -0.51075  -0.49957
 Alpha  occ. eigenvalues --   -0.49868  -0.49285  -0.48467  -0.48281  -0.46968
 Alpha  occ. eigenvalues --   -0.46616  -0.45877  -0.45435  -0.45060  -0.44710
 Alpha  occ. eigenvalues --   -0.43636  -0.43608  -0.43070  -0.42644  -0.42140
 Alpha  occ. eigenvalues --   -0.40953  -0.40325  -0.39816  -0.39723  -0.38930
 Alpha  occ. eigenvalues --   -0.38159  -0.37761  -0.37645  -0.37244  -0.36828
 Alpha  occ. eigenvalues --   -0.36665  -0.36225  -0.36019  -0.34549  -0.34140
 Alpha  occ. eigenvalues --   -0.34076  -0.32851  -0.31296  -0.30640  -0.29142
 Alpha  occ. eigenvalues --   -0.25907  -0.24509
 Alpha virt. eigenvalues --   -0.12184  -0.07666  -0.02521  -0.01752  -0.00945
 Alpha virt. eigenvalues --   -0.00123   0.00220   0.00640   0.01055   0.01193
 Alpha virt. eigenvalues --    0.01763   0.01850   0.02527   0.02810   0.03481
 Alpha virt. eigenvalues --    0.03664   0.04143   0.04744   0.04899   0.05154
 Alpha virt. eigenvalues --    0.05331   0.05735   0.05927   0.06385   0.06621
 Alpha virt. eigenvalues --    0.07051   0.07106   0.07220   0.07552   0.08312
 Alpha virt. eigenvalues --    0.08645   0.08814   0.09014   0.09328   0.09874
 Alpha virt. eigenvalues --    0.10106   0.10546   0.10707   0.10952   0.11069
 Alpha virt. eigenvalues --    0.11681   0.11892   0.12151   0.12538   0.12712
 Alpha virt. eigenvalues --    0.12922   0.13086   0.13224   0.13719   0.14111
 Alpha virt. eigenvalues --    0.14662   0.14947   0.15442   0.15587   0.16097
 Alpha virt. eigenvalues --    0.16373   0.16575   0.16931   0.17270   0.17583
 Alpha virt. eigenvalues --    0.17776   0.18221   0.18353   0.18578   0.18643
 Alpha virt. eigenvalues --    0.19061   0.19318   0.19991   0.20047   0.20280
 Alpha virt. eigenvalues --    0.20322   0.20709   0.21039   0.21516   0.21809
 Alpha virt. eigenvalues --    0.21937   0.22403   0.22794   0.23157   0.23237
 Alpha virt. eigenvalues --    0.23576   0.23786   0.24128   0.24475   0.24764
 Alpha virt. eigenvalues --    0.24912   0.25242   0.25340   0.26024   0.26103
 Alpha virt. eigenvalues --    0.26445   0.26758   0.26892   0.27328   0.27468
 Alpha virt. eigenvalues --    0.27767   0.27848   0.28353   0.28531   0.28703
 Alpha virt. eigenvalues --    0.29126   0.29340   0.29966   0.30278   0.30355
 Alpha virt. eigenvalues --    0.30515   0.31471   0.31536   0.31939   0.32230
 Alpha virt. eigenvalues --    0.32662   0.32998   0.33114   0.33940   0.34152
 Alpha virt. eigenvalues --    0.35122   0.35268   0.35611   0.35870   0.36327
 Alpha virt. eigenvalues --    0.36966   0.37375   0.37837   0.38561   0.39003
 Alpha virt. eigenvalues --    0.39292   0.40266   0.40348   0.40784   0.40898
 Alpha virt. eigenvalues --    0.41639   0.42244   0.43518   0.43770   0.44280
 Alpha virt. eigenvalues --    0.45687   0.45895   0.46340   0.47506   0.48496
 Alpha virt. eigenvalues --    0.49334   0.49582   0.50927   0.51172   0.51496
 Alpha virt. eigenvalues --    0.53720   0.59341   0.62686   0.62786   0.64890
 Alpha virt. eigenvalues --    0.66787   0.67322   0.67631   0.68461   0.68581
 Alpha virt. eigenvalues --    0.68860   0.69483   0.70160   0.70763   0.71399
 Alpha virt. eigenvalues --    0.71981   0.72674   0.73703   0.73849   0.74448
 Alpha virt. eigenvalues --    0.75119   0.75450   0.75859   0.75979   0.76960
 Alpha virt. eigenvalues --    0.77373   0.78566   0.79038   0.79646   0.79712
 Alpha virt. eigenvalues --    0.80174   0.80738   0.82378   0.82640   0.84173
 Alpha virt. eigenvalues --    0.84431   0.85226   0.85412   0.86148   0.86604
 Alpha virt. eigenvalues --    0.87034   0.87599   0.89607   0.90547   0.90898
 Alpha virt. eigenvalues --    0.92490   0.92880   0.93349   0.94060   0.94324
 Alpha virt. eigenvalues --    0.95528   0.96395   0.96528   0.97544   0.97891
 Alpha virt. eigenvalues --    0.98773   0.98983   1.00137   1.00508   1.01213
 Alpha virt. eigenvalues --    1.01517   1.01991   1.02924   1.03575   1.03988
 Alpha virt. eigenvalues --    1.04695   1.05569   1.05675   1.07352   1.08519
 Alpha virt. eigenvalues --    1.09403   1.10307   1.11509   1.13390   1.13554
 Alpha virt. eigenvalues --    1.14629   1.15689   1.16065   1.16468   1.17365
 Alpha virt. eigenvalues --    1.17515   1.18323   1.18947   1.19316   1.19605
 Alpha virt. eigenvalues --    1.20349   1.22459   1.23808   1.24550   1.26054
 Alpha virt. eigenvalues --    1.26635   1.27685   1.28055   1.28393   1.29464
 Alpha virt. eigenvalues --    1.29601   1.31009   1.31831   1.33261   1.34168
 Alpha virt. eigenvalues --    1.34864   1.35496   1.36232   1.37246   1.38139
 Alpha virt. eigenvalues --    1.39732   1.40580   1.41356   1.41608   1.42779
 Alpha virt. eigenvalues --    1.43662   1.44159   1.45511   1.46293   1.46720
 Alpha virt. eigenvalues --    1.47447   1.48134   1.49385   1.49931   1.51017
 Alpha virt. eigenvalues --    1.51886   1.53107   1.53534   1.54822   1.55221
 Alpha virt. eigenvalues --    1.56091   1.57154   1.58292   1.59512   1.61395
 Alpha virt. eigenvalues --    1.63066   1.66502   1.67115   1.67960   1.70018
 Alpha virt. eigenvalues --    1.72470   1.74030   1.74577   1.74946   1.76125
 Alpha virt. eigenvalues --    1.77294   1.78271   1.78891   1.81173   1.81335
 Alpha virt. eigenvalues --    1.82868   1.82914   1.84328   1.85108   1.85458
 Alpha virt. eigenvalues --    1.86152   1.86208   1.86722   1.87677   1.88272
 Alpha virt. eigenvalues --    1.89167   1.89686   1.89960   1.90799   1.91938
 Alpha virt. eigenvalues --    1.92504   1.93663   1.94247   1.95058   1.95768
 Alpha virt. eigenvalues --    1.96398   1.96972   1.97898   1.99088   2.00692
 Alpha virt. eigenvalues --    2.01965   2.02274   2.03207   2.03343   2.04298
 Alpha virt. eigenvalues --    2.04731   2.05726   2.06302   2.06641   2.07309
 Alpha virt. eigenvalues --    2.07653   2.08906   2.10201   2.10580   2.10769
 Alpha virt. eigenvalues --    2.11144   2.12307   2.13052   2.13526   2.14209
 Alpha virt. eigenvalues --    2.14255   2.14675   2.15350   2.15687   2.16776
 Alpha virt. eigenvalues --    2.17153   2.17977   2.18724   2.19848   2.20504
 Alpha virt. eigenvalues --    2.22006   2.23222   2.24466   2.25372   2.25691
 Alpha virt. eigenvalues --    2.26909   2.29543   2.30794   2.32056   2.33855
 Alpha virt. eigenvalues --    2.34387   2.35163   2.36213   2.38022   2.38795
 Alpha virt. eigenvalues --    2.40133   2.41016   2.42862   2.43653   2.46437
 Alpha virt. eigenvalues --    2.48021   2.49195   2.49870   2.50409   2.52410
 Alpha virt. eigenvalues --    2.52697   2.53571   2.54810   2.55814   2.57038
 Alpha virt. eigenvalues --    2.57764   2.58552   2.59478   2.61398   2.62471
 Alpha virt. eigenvalues --    2.64092   2.64986   2.65451   2.67275   2.68157
 Alpha virt. eigenvalues --    2.69265   2.70260   2.70448   2.71612   2.72590
 Alpha virt. eigenvalues --    2.73167   2.73689   2.74213   2.75865   2.76848
 Alpha virt. eigenvalues --    2.77101   2.79682   2.80345   2.80877   2.82361
 Alpha virt. eigenvalues --    2.84966   2.85930   2.86368   2.86804   2.87675
 Alpha virt. eigenvalues --    2.88654   2.89470   2.90253   2.93026   2.93647
 Alpha virt. eigenvalues --    2.95155   2.95192   2.96014   2.99881   3.00917
 Alpha virt. eigenvalues --    3.02301   3.03053   3.04346   3.08714   3.10816
 Alpha virt. eigenvalues --    3.16176   3.18133   3.23527   3.25821   3.27067
 Alpha virt. eigenvalues --    3.27764   3.28211   3.28963   3.29146   3.29531
 Alpha virt. eigenvalues --    3.29813   3.32401   3.35870   3.39748   3.42364
 Alpha virt. eigenvalues --    3.43818   3.44499   3.44888   3.45238   3.45953
 Alpha virt. eigenvalues --    3.48734   3.49829   3.51112   3.52499   3.54956
 Alpha virt. eigenvalues --    3.57232   3.58184   3.60108   4.27442   4.28942
 Alpha virt. eigenvalues --    4.32626   4.34362   4.36272   4.37633   4.42116
 Alpha virt. eigenvalues --    4.42822   4.45263   4.47539   4.49786   4.51906
 Alpha virt. eigenvalues --    4.55190   4.56636   4.60977   4.63512   4.67039
 Alpha virt. eigenvalues --    4.69274   4.70915   4.75308   4.79270   4.83242
 Alpha virt. eigenvalues --    4.90997   5.00045
          Condensed to atoms (all electrons):
               1          2          3          4          5          6
     1  C    8.333063   0.756881  -1.925304  -0.005102  -0.617851  -0.628790
     2  C    0.756881  20.738672  -0.895228  -0.103779  -8.222931  -3.556776
     3  C   -1.925304  -0.895228  11.378465  -0.004462  -0.238454  -0.996099
     4  N   -0.005102  -0.103779  -0.004462   7.201714   0.312865   0.019159
     5  C   -0.617851  -8.222931  -0.238454   0.312865  24.423904   2.792509
     6  C   -0.628790  -3.556776  -0.996099   0.019159   2.792509  16.844730
     7  C   -0.117821  -0.787400   0.024944   0.076086  -1.699616  -2.731269
     8  C   -0.000487   0.025967   0.135334  -0.041249   0.239422  -0.446310
     9  C   -0.018942   0.188786  -0.128422  -0.023412  -0.364788  -0.077126
    10  C   -0.174128  -2.497347  -1.017609   0.016075  -6.395189  -0.815053
    11  C   -0.021676   1.135786  -0.015351  -0.004501  -0.254925   0.058140
    12  C   -0.019820   0.001616   0.011494  -0.000267   0.313715  -0.070689
    13  O   -0.001754  -0.015772   0.000055   0.000001  -0.064073   0.002218
    14  O   -0.000010  -0.006176  -0.000213   0.000000  -0.012953   0.007495
    15  C   -0.001666  -0.029432  -0.006372   0.000005  -0.044565  -0.241567
    16  C   -0.000283  -0.009410  -0.000539  -0.000006  -0.018485   0.093256
    17  C    0.000054   0.001875  -0.000028   0.000000   0.000393  -0.004791
    18  C   -0.000018  -0.000789  -0.000009  -0.000000  -0.006437  -0.011010
    19  C    0.000040   0.001257   0.000092   0.000001   0.011849   0.003714
    20  C    0.005967   0.063412   0.020078  -0.000085   0.059426   0.084582
    21  C   -0.016832  -0.108217  -0.034484   0.000605  -1.116801  -1.598942
    22  C   -0.386112  -0.364938   0.204780   0.003945  -2.600178  -2.079626
    23  O    0.005848  -0.002299  -0.010667   0.000018   0.070414   0.060151
    24  O    0.037610  -0.636639  -0.017747   0.000473  -0.310954   0.059539
    25  H    0.519258  -0.086211  -0.000498   0.000380   0.007671  -0.046106
    26  H    0.466347  -0.106961  -0.038449   0.001673   0.032291   0.000328
    27  H   -0.002958  -0.015379   0.000332  -0.000302  -0.082238  -0.181913
    28  H   -0.001918  -0.037485   0.025637  -0.000326   0.059889   0.000356
    29  H    0.010952   0.048784  -0.000475  -0.000040  -0.023620  -0.032014
    30  H   -0.000261   0.032662  -0.066247   0.003461  -0.078007   0.038747
    31  H    0.000309  -0.012959   0.001838   0.001028   0.012756  -0.082476
    32  H   -0.000888  -0.029218   0.007477   0.000049  -0.012435  -0.054416
    33  H   -0.010634   0.004424   0.001501  -0.000414  -0.085043   0.113917
    34  H    0.000000   0.000003   0.000000  -0.000000   0.000067  -0.000010
    35  H   -0.000001  -0.000000   0.000002  -0.000000  -0.000497  -0.000700
    36  H   -0.000001   0.000035   0.000001   0.000000   0.000508  -0.000682
    37  H   -0.000000  -0.000000   0.000000  -0.000000  -0.000001   0.000015
    38  H   -0.000000  -0.000001  -0.000000  -0.000000  -0.000033   0.000029
    39  H    0.000000  -0.000001  -0.000000   0.000000  -0.000009  -0.000055
    40  H    0.000000   0.000004  -0.000000   0.000000   0.000095   0.000395
    41  H   -0.000000  -0.000000   0.000000  -0.000000  -0.000005  -0.000001
    42  H    0.000000   0.000000  -0.000000   0.000000   0.000012   0.000094
    43  H    0.000001   0.000299  -0.000011   0.000000   0.004358   0.010844
    44  H    0.000320  -0.001810  -0.000425  -0.000018  -0.001197   0.101750
    45  H   -0.000092   0.001983   0.000243   0.000000   0.009090  -0.071299
               7          8          9         10         11         12
     1  C   -0.117821  -0.000487  -0.018942  -0.174128  -0.021676  -0.019820
     2  C   -0.787400   0.025967   0.188786  -2.497347   1.135786   0.001616
     3  C    0.024944   0.135334  -0.128422  -1.017609  -0.015351   0.011494
     4  N    0.076086  -0.041249  -0.023412   0.016075  -0.004501  -0.000267
     5  C   -1.699616   0.239422  -0.364788  -6.395189  -0.254925   0.313715
     6  C   -2.731269  -0.446310  -0.077126  -0.815053   0.058140  -0.070689
     7  C    9.780288  -0.743015  -0.051870   1.707356  -0.502575  -0.299025
     8  C   -0.743015   6.855706  -0.414555  -0.406144  -0.130749  -0.006561
     9  C   -0.051870  -0.414555   5.733988   0.316434  -0.036390  -0.004521
    10  C    1.707356  -0.406144   0.316434  19.752637  -3.201722   0.295279
    11  C   -0.502575  -0.130749  -0.036390  -3.201722  13.843299  -2.044884
    12  C   -0.299025  -0.006561  -0.004521   0.295279  -2.044884   9.173002
    13  O    0.013224   0.001093  -0.001290   0.186965  -0.210165   0.527765
    14  O    0.003599   0.000132  -0.000475   0.082753  -0.258681   0.083607
    15  C   -0.012848  -0.033367   0.002918   0.604307  -1.087932   0.987571
    16  C   -0.050369  -0.004196   0.000675   0.235791  -0.572020   0.226338
    17  C    0.000852  -0.000118  -0.000140   0.026253   0.082269  -0.207676
    18  C    0.000469  -0.000303   0.000447  -0.011351  -0.114204   0.130944
    19  C    0.002093   0.000793  -0.001556  -0.033028  -0.041382   0.099829
    20  C    0.316387   0.185299  -0.130828  -0.766818   1.402029  -2.162574
    21  C   -0.176414  -0.232671   0.235560   0.874870  -2.472559   0.467244
    22  C    1.055735   0.214067   0.040373  -3.890745   0.597097  -1.513803
    23  O   -0.001502  -0.004684   0.001346   0.193301  -0.177611   0.100750
    24  O    0.040883   0.013731   0.002314  -0.024111  -0.042644   0.001839
    25  H   -0.006357   0.000894   0.000283  -0.028908  -0.001308  -0.000112
    26  H   -0.002158   0.000409  -0.000055   0.002127  -0.000046   0.000005
    27  H    0.354217  -0.006116   0.007983   0.164389  -0.026545  -0.016876
    28  H   -0.067590   0.439313  -0.020457  -0.034108  -0.004464   0.000315
    29  H   -0.134619   0.524430  -0.009997  -0.016841   0.006792  -0.000672
    30  H   -0.131646   0.487141  -0.002831   0.056656   0.001698  -0.000276
    31  H   -0.003245  -0.021425   0.448314   0.018321  -0.024827  -0.000747
    32  H   -0.011749   0.015521   0.421514   0.030932  -0.009203  -0.000484
    33  H   -0.145094  -0.051542   0.471276   0.049424   0.004855  -0.000025
    34  H    0.000011   0.000000  -0.000001  -0.000271   0.002577   0.001554
    35  H    0.000315   0.000004  -0.000011  -0.002889   0.010221  -0.003954
    36  H    0.000014   0.000002  -0.000007   0.001138  -0.008652   0.001521
    37  H   -0.000008  -0.000000   0.000000   0.000056  -0.002804   0.001924
    38  H    0.000004   0.000000  -0.000000  -0.000105   0.007244  -0.013496
    39  H   -0.000006   0.000000   0.000000  -0.000620  -0.005294   0.011471
    40  H   -0.000145  -0.000003   0.000028   0.000025  -0.001361  -0.000813
    41  H    0.000005   0.000000  -0.000004  -0.000218   0.000746  -0.000079
    42  H   -0.000063  -0.000001   0.000014  -0.000145  -0.001115   0.002395
    43  H   -0.004784  -0.000015   0.001213  -0.014482   0.051403   0.033061
    44  H   -0.044048   0.001552  -0.020235   0.015859  -0.171695  -0.060084
    45  H    0.028055   0.006047   0.000905   0.005614  -0.089471   0.036506
              13         14         15         16         17         18
     1  C   -0.001754  -0.000010  -0.001666  -0.000283   0.000054  -0.000018
     2  C   -0.015772  -0.006176  -0.029432  -0.009410   0.001875  -0.000789
     3  C    0.000055  -0.000213  -0.006372  -0.000539  -0.000028  -0.000009
     4  N    0.000001   0.000000   0.000005  -0.000006   0.000000  -0.000000
     5  C   -0.064073  -0.012953  -0.044565  -0.018485   0.000393  -0.006437
     6  C    0.002218   0.007495  -0.241567   0.093256  -0.004791  -0.011010
     7  C    0.013224   0.003599  -0.012848  -0.050369   0.000852   0.000469
     8  C    0.001093   0.000132  -0.033367  -0.004196  -0.000118  -0.000303
     9  C   -0.001290  -0.000475   0.002918   0.000675  -0.000140   0.000447
    10  C    0.186965   0.082753   0.604307   0.235791   0.026253  -0.011351
    11  C   -0.210165  -0.258681  -1.087932  -0.572020   0.082269  -0.114204
    12  C    0.527765   0.083607   0.987571   0.226338  -0.207676   0.130944
    13  O    8.062322  -0.068909   0.067025   0.018846   0.006037  -0.007413
    14  O   -0.068909   8.570562  -0.030670  -0.124659  -0.042010   0.024335
    15  C    0.067025  -0.030670  15.728723  -2.714712  -0.139161  -0.330817
    16  C    0.018846  -0.124659  -2.714712  10.470453   0.136818   0.215415
    17  C    0.006037  -0.042010  -0.139161   0.136818   5.950666  -0.370156
    18  C   -0.007413   0.024335  -0.330817   0.215415  -0.370156   5.798319
    19  C   -0.001782   0.013068   1.331709  -1.235645  -0.309542  -0.168835
    20  C   -0.089336  -0.069824  -8.630009  -0.720056   0.051870  -0.046488
    21  C    0.023215   0.088718   1.136183   0.743597   0.021996   0.116438
    22  C   -0.104752   0.025646  -0.504437  -0.196448  -0.013780  -0.001223
    23  O   -0.009727  -0.007269   0.003704   0.007867  -0.001110   0.000536
    24  O   -0.002131  -0.000157  -0.011789  -0.000535  -0.000581   0.000094
    25  H   -0.000000  -0.000000   0.000005   0.000001  -0.000000  -0.000000
    26  H   -0.000000  -0.000000  -0.000001   0.000000  -0.000000   0.000000
    27  H   -0.000118   0.000075  -0.001249   0.000011   0.000005  -0.000025
    28  H    0.000001  -0.000000  -0.000013  -0.000001  -0.000000   0.000000
    29  H   -0.000001   0.000001   0.000138  -0.000004   0.000000  -0.000000
    30  H   -0.000001   0.000000   0.000076   0.000004  -0.000000  -0.000000
    31  H   -0.000000   0.000000   0.000459  -0.000023  -0.000003   0.000002
    32  H    0.000008   0.000005  -0.007328  -0.000627   0.000004  -0.000001
    33  H   -0.000000  -0.000000   0.000120   0.000028  -0.000001  -0.000000
    34  H   -0.000026  -0.000239   0.007792  -0.087163   0.422376  -0.005020
    35  H   -0.000002  -0.002739  -0.037758  -0.042681   0.430016   0.008559
    36  H    0.000218   0.004302   0.047295  -0.086949   0.450464  -0.033814
    37  H   -0.000019  -0.000748  -0.067746  -0.008864  -0.001445   0.426997
    38  H    0.000031  -0.003105  -0.062518  -0.024762   0.013116   0.429721
    39  H    0.000055   0.002033   0.073576  -0.120372  -0.042178   0.447297
    40  H    0.000005   0.000126  -0.015075  -0.077386  -0.024608   0.005901
    41  H   -0.000000   0.000058   0.055533  -0.124594  -0.000373   0.003664
    42  H    0.000006   0.000076  -0.046856  -0.053221   0.007630  -0.024010
    43  H   -0.000044   0.006934   0.131291  -0.075859  -0.002022   0.004182
    44  H   -0.000270  -0.000263   0.031237   0.000710   0.001276  -0.001236
    45  H   -0.001510   0.001157  -0.021978   0.002657  -0.003542   0.003816
              19         20         21         22         23         24
     1  C    0.000040   0.005967  -0.016832  -0.386112   0.005848   0.037610
     2  C    0.001257   0.063412  -0.108217  -0.364938  -0.002299  -0.636639
     3  C    0.000092   0.020078  -0.034484   0.204780  -0.010667  -0.017747
     4  N    0.000001  -0.000085   0.000605   0.003945   0.000018   0.000473
     5  C    0.011849   0.059426  -1.116801  -2.600178   0.070414  -0.310954
     6  C    0.003714   0.084582  -1.598942  -2.079626   0.060151   0.059539
     7  C    0.002093   0.316387  -0.176414   1.055735  -0.001502   0.040883
     8  C    0.000793   0.185299  -0.232671   0.214067  -0.004684   0.013731
     9  C   -0.001556  -0.130828   0.235560   0.040373   0.001346   0.002314
    10  C   -0.033028  -0.766818   0.874870  -3.890745   0.193301  -0.024111
    11  C   -0.041382   1.402029  -2.472559   0.597097  -0.177611  -0.042644
    12  C    0.099829  -2.162574   0.467244  -1.513803   0.100750   0.001839
    13  O   -0.001782  -0.089336   0.023215  -0.104752  -0.009727  -0.002131
    14  O    0.013068  -0.069824   0.088718   0.025646  -0.007269  -0.000157
    15  C    1.331709  -8.630009   1.136183  -0.504437   0.003704  -0.011789
    16  C   -1.235645  -0.720056   0.743597  -0.196448   0.007867  -0.000535
    17  C   -0.309542   0.051870   0.021996  -0.013780  -0.001110  -0.000581
    18  C   -0.168835  -0.046488   0.116438  -0.001223   0.000536   0.000094
    19  C    6.254275  -0.513271  -0.173448   0.019341  -0.001027   0.000069
    20  C   -0.513271  19.854903  -4.364614   1.059088  -0.028240   0.022530
    21  C   -0.173448  -4.364614  11.662902   0.483166  -0.023655   0.041862
    22  C    0.019341   1.059088   0.483166  12.367716   0.119478   0.576109
    23  O   -0.001027  -0.028240  -0.023655   0.119478   8.216506  -0.081724
    24  O    0.000069   0.022530   0.041862   0.576109  -0.081724   8.670111
    25  H   -0.000000  -0.000015  -0.000026  -0.006146  -0.000145  -0.000462
    26  H    0.000000   0.000003  -0.000003  -0.002646  -0.000005   0.000604
    27  H    0.000032   0.014331   0.008294   0.026003  -0.000035  -0.000118
    28  H    0.000000   0.000352  -0.002955   0.001451  -0.000002   0.000029
    29  H    0.000001   0.000510  -0.006860  -0.007903   0.000024  -0.000199
    30  H    0.000000   0.000460   0.002126   0.007300   0.000002   0.000141
    31  H    0.000002  -0.004012   0.017891   0.003614  -0.000000   0.000014
    32  H   -0.000041   0.016735  -0.023412   0.006997  -0.000000   0.000112
    33  H   -0.000001  -0.001724   0.006642  -0.000723   0.000002   0.000073
    34  H   -0.001511   0.008952  -0.003237   0.000189  -0.000006  -0.000000
    35  H   -0.038578   0.037786  -0.006415   0.001402  -0.000021  -0.000001
    36  H    0.025342  -0.054597   0.011324  -0.000981   0.000169   0.000002
    37  H   -0.008946   0.006503   0.001156  -0.000069   0.000000  -0.000000
    38  H   -0.044744   0.052077  -0.002263   0.000034   0.000001   0.000000
    39  H    0.029201  -0.041548   0.001998   0.000270  -0.000014  -0.000000
    40  H    0.454878   0.002657   0.007102   0.000222  -0.000001   0.000000
    41  H    0.451940  -0.025095  -0.009947   0.000000  -0.000000   0.000000
    42  H    0.444132   0.007637   0.014966  -0.000179   0.000000  -0.000000
    43  H    0.015424   0.194545  -0.027241  -0.006000  -0.000005  -0.000004
    44  H    0.001420   0.039943   0.409991   0.008811  -0.000065  -0.000084
    45  H    0.001713  -0.060025   0.446714   0.008266  -0.000049   0.000065
              25         26         27         28         29         30
     1  C    0.519258   0.466347  -0.002958  -0.001918   0.010952  -0.000261
     2  C   -0.086211  -0.106961  -0.015379  -0.037485   0.048784   0.032662
     3  C   -0.000498  -0.038449   0.000332   0.025637  -0.000475  -0.066247
     4  N    0.000380   0.001673  -0.000302  -0.000326  -0.000040   0.003461
     5  C    0.007671   0.032291  -0.082238   0.059889  -0.023620  -0.078007
     6  C   -0.046106   0.000328  -0.181913   0.000356  -0.032014   0.038747
     7  C   -0.006357  -0.002158   0.354217  -0.067590  -0.134619  -0.131646
     8  C    0.000894   0.000409  -0.006116   0.439313   0.524430   0.487141
     9  C    0.000283  -0.000055   0.007983  -0.020457  -0.009997  -0.002831
    10  C   -0.028908   0.002127   0.164389  -0.034108  -0.016841   0.056656
    11  C   -0.001308  -0.000046  -0.026545  -0.004464   0.006792   0.001698
    12  C   -0.000112   0.000005  -0.016876   0.000315  -0.000672  -0.000276
    13  O   -0.000000  -0.000000  -0.000118   0.000001  -0.000001  -0.000001
    14  O   -0.000000  -0.000000   0.000075  -0.000000   0.000001   0.000000
    15  C    0.000005  -0.000001  -0.001249  -0.000013   0.000138   0.000076
    16  C    0.000001   0.000000   0.000011  -0.000001  -0.000004   0.000004
    17  C   -0.000000  -0.000000   0.000005  -0.000000   0.000000  -0.000000
    18  C   -0.000000   0.000000  -0.000025   0.000000  -0.000000  -0.000000
    19  C   -0.000000   0.000000   0.000032   0.000000   0.000001   0.000000
    20  C   -0.000015   0.000003   0.014331   0.000352   0.000510   0.000460
    21  C   -0.000026  -0.000003   0.008294  -0.002955  -0.006860   0.002126
    22  C   -0.006146  -0.002646   0.026003   0.001451  -0.007903   0.007300
    23  O   -0.000145  -0.000005  -0.000035  -0.000002   0.000024   0.000002
    24  O   -0.000462   0.000604  -0.000118   0.000029  -0.000199   0.000141
    25  H    0.490069  -0.028933   0.000000   0.000000  -0.000001  -0.000001
    26  H   -0.028933   0.503527  -0.000000  -0.000000  -0.000000  -0.000007
    27  H    0.000000  -0.000000   0.641064  -0.005844  -0.004652   0.005814
    28  H    0.000000  -0.000000  -0.005844   0.550124  -0.027201  -0.026709
    29  H   -0.000001  -0.000000  -0.004652  -0.027201   0.550146  -0.028675
    30  H   -0.000001  -0.000007   0.005814  -0.026709  -0.028675   0.537728
    31  H    0.000000  -0.000000  -0.004904   0.002746   0.000111  -0.000108
    32  H   -0.000000  -0.000000  -0.004575   0.000082  -0.000152   0.000026
    33  H   -0.000000  -0.000000   0.005394  -0.000072   0.000004   0.002204
    34  H    0.000000   0.000000  -0.000000  -0.000000   0.000000   0.000000
    35  H   -0.000000   0.000000  -0.000000   0.000000   0.000000   0.000000
    36  H    0.000000   0.000000   0.000000  -0.000000   0.000000   0.000000
    37  H   -0.000000  -0.000000   0.000000  -0.000000  -0.000000   0.000000
    38  H    0.000000  -0.000000   0.000000  -0.000000   0.000000   0.000000
    39  H   -0.000000  -0.000000   0.000000  -0.000000   0.000000   0.000000
    40  H    0.000000  -0.000000  -0.000000  -0.000000  -0.000000  -0.000000
    41  H   -0.000000   0.000000   0.000000   0.000000   0.000000   0.000000
    42  H   -0.000000  -0.000000  -0.000000  -0.000000   0.000000  -0.000000
    43  H    0.000000   0.000000   0.000006   0.000000  -0.000000   0.000000
    44  H   -0.000000   0.000000   0.000500  -0.000008  -0.000002  -0.000001
    45  H    0.000000   0.000000  -0.000530   0.000003  -0.000003   0.000000
              31         32         33         34         35         36
     1  C    0.000309  -0.000888  -0.010634   0.000000  -0.000001  -0.000001
     2  C   -0.012959  -0.029218   0.004424   0.000003  -0.000000   0.000035
     3  C    0.001838   0.007477   0.001501   0.000000   0.000002   0.000001
     4  N    0.001028   0.000049  -0.000414  -0.000000  -0.000000   0.000000
     5  C    0.012756  -0.012435  -0.085043   0.000067  -0.000497   0.000508
     6  C   -0.082476  -0.054416   0.113917  -0.000010  -0.000700  -0.000682
     7  C   -0.003245  -0.011749  -0.145094   0.000011   0.000315   0.000014
     8  C   -0.021425   0.015521  -0.051542   0.000000   0.000004   0.000002
     9  C    0.448314   0.421514   0.471276  -0.000001  -0.000011  -0.000007
    10  C    0.018321   0.030932   0.049424  -0.000271  -0.002889   0.001138
    11  C   -0.024827  -0.009203   0.004855   0.002577   0.010221  -0.008652
    12  C   -0.000747  -0.000484  -0.000025   0.001554  -0.003954   0.001521
    13  O   -0.000000   0.000008  -0.000000  -0.000026  -0.000002   0.000218
    14  O    0.000000   0.000005  -0.000000  -0.000239  -0.002739   0.004302
    15  C    0.000459  -0.007328   0.000120   0.007792  -0.037758   0.047295
    16  C   -0.000023  -0.000627   0.000028  -0.087163  -0.042681  -0.086949
    17  C   -0.000003   0.000004  -0.000001   0.422376   0.430016   0.450464
    18  C    0.000002  -0.000001  -0.000000  -0.005020   0.008559  -0.033814
    19  C    0.000002  -0.000041  -0.000001  -0.001511  -0.038578   0.025342
    20  C   -0.004012   0.016735  -0.001724   0.008952   0.037786  -0.054597
    21  C    0.017891  -0.023412   0.006642  -0.003237  -0.006415   0.011324
    22  C    0.003614   0.006997  -0.000723   0.000189   0.001402  -0.000981
    23  O   -0.000000  -0.000000   0.000002  -0.000006  -0.000021   0.000169
    24  O    0.000014   0.000112   0.000073  -0.000000  -0.000001   0.000002
    25  H    0.000000  -0.000000  -0.000000   0.000000  -0.000000   0.000000
    26  H   -0.000000  -0.000000  -0.000000   0.000000   0.000000   0.000000
    27  H   -0.004904  -0.004575   0.005394  -0.000000  -0.000000   0.000000
    28  H    0.002746   0.000082  -0.000072  -0.000000   0.000000  -0.000000
    29  H    0.000111  -0.000152   0.000004   0.000000   0.000000   0.000000
    30  H   -0.000108   0.000026   0.002204   0.000000   0.000000   0.000000
    31  H    0.553260  -0.028632  -0.025887  -0.000000  -0.000000   0.000000
    32  H   -0.028632   0.570537  -0.025761   0.000000   0.000000  -0.000000
    33  H   -0.025887  -0.025761   0.511844  -0.000000  -0.000000   0.000000
    34  H   -0.000000   0.000000  -0.000000   0.554797  -0.028890  -0.026021
    35  H   -0.000000   0.000000  -0.000000  -0.028890   0.548376  -0.026367
    36  H    0.000000  -0.000000   0.000000  -0.026021  -0.026367   0.519088
    37  H    0.000000  -0.000000   0.000000   0.003034   0.000093  -0.000038
    38  H    0.000000  -0.000000   0.000000   0.000079  -0.000158   0.000005
    39  H   -0.000000  -0.000000  -0.000000  -0.000056   0.000009   0.002552
    40  H   -0.000000   0.000000   0.000000  -0.000148   0.002502   0.000063
    41  H    0.000000   0.000000  -0.000000   0.002727  -0.000116   0.000095
    42  H   -0.000000   0.000000  -0.000000   0.000079   0.000030  -0.000148
    43  H    0.000000  -0.000010   0.000000  -0.000005  -0.000029  -0.000004
    44  H   -0.000107   0.002681  -0.000013  -0.000000   0.000001   0.000000
    45  H   -0.000016   0.000041  -0.000001   0.000000   0.000001   0.000000
              37         38         39         40         41         42
     1  C   -0.000000  -0.000000   0.000000   0.000000  -0.000000   0.000000
     2  C   -0.000000  -0.000001  -0.000001   0.000004  -0.000000   0.000000
     3  C    0.000000  -0.000000  -0.000000  -0.000000   0.000000  -0.000000
     4  N   -0.000000  -0.000000   0.000000   0.000000  -0.000000   0.000000
     5  C   -0.000001  -0.000033  -0.000009   0.000095  -0.000005   0.000012
     6  C    0.000015   0.000029  -0.000055   0.000395  -0.000001   0.000094
     7  C   -0.000008   0.000004  -0.000006  -0.000145   0.000005  -0.000063
     8  C   -0.000000   0.000000   0.000000  -0.000003   0.000000  -0.000001
     9  C    0.000000  -0.000000   0.000000   0.000028  -0.000004   0.000014
    10  C    0.000056  -0.000105  -0.000620   0.000025  -0.000218  -0.000145
    11  C   -0.002804   0.007244  -0.005294  -0.001361   0.000746  -0.001115
    12  C    0.001924  -0.013496   0.011471  -0.000813  -0.000079   0.002395
    13  O   -0.000019   0.000031   0.000055   0.000005  -0.000000   0.000006
    14  O   -0.000748  -0.003105   0.002033   0.000126   0.000058   0.000076
    15  C   -0.067746  -0.062518   0.073576  -0.015075   0.055533  -0.046856
    16  C   -0.008864  -0.024762  -0.120372  -0.077386  -0.124594  -0.053221
    17  C   -0.001445   0.013116  -0.042178  -0.024608  -0.000373   0.007630
    18  C    0.426997   0.429721   0.447297   0.005901   0.003664  -0.024010
    19  C   -0.008946  -0.044744   0.029201   0.454878   0.451940   0.444132
    20  C    0.006503   0.052077  -0.041548   0.002657  -0.025095   0.007637
    21  C    0.001156  -0.002263   0.001998   0.007102  -0.009947   0.014966
    22  C   -0.000069   0.000034   0.000270   0.000222   0.000000  -0.000179
    23  O    0.000000   0.000001  -0.000014  -0.000001  -0.000000   0.000000
    24  O   -0.000000   0.000000  -0.000000   0.000000   0.000000  -0.000000
    25  H   -0.000000   0.000000  -0.000000   0.000000  -0.000000  -0.000000
    26  H   -0.000000  -0.000000  -0.000000  -0.000000   0.000000  -0.000000
    27  H    0.000000   0.000000   0.000000  -0.000000   0.000000  -0.000000
    28  H   -0.000000  -0.000000  -0.000000  -0.000000   0.000000  -0.000000
    29  H   -0.000000   0.000000   0.000000  -0.000000   0.000000   0.000000
    30  H    0.000000   0.000000   0.000000  -0.000000   0.000000  -0.000000
    31  H    0.000000   0.000000  -0.000000  -0.000000   0.000000  -0.000000
    32  H   -0.000000  -0.000000  -0.000000   0.000000   0.000000   0.000000
    33  H    0.000000   0.000000  -0.000000   0.000000  -0.000000  -0.000000
    34  H    0.003034   0.000079  -0.000056  -0.000148   0.002727   0.000079
    35  H    0.000093  -0.000158   0.000009   0.002502  -0.000116   0.000030
    36  H   -0.000038   0.000005   0.002552   0.000063   0.000095  -0.000148
    37  H    0.555733  -0.028944  -0.025969   0.000095   0.002631  -0.000105
    38  H   -0.028944   0.550503  -0.026381   0.000044  -0.000116   0.002596
    39  H   -0.025969  -0.026381   0.518200  -0.000153   0.000085   0.000053
    40  H    0.000095   0.000044  -0.000153   0.549528  -0.027233  -0.030210
    41  H    0.002631  -0.000116   0.000085  -0.027233   0.543915  -0.027487
    42  H   -0.000105   0.002596   0.000053  -0.030210  -0.027487   0.552329
    43  H   -0.000008  -0.000051  -0.000004  -0.000779   0.000113  -0.000739
    44  H    0.000000   0.000000  -0.000000  -0.000002  -0.000000   0.000003
    45  H   -0.000000  -0.000002   0.000000   0.000001   0.000000  -0.000009
              43         44         45
     1  C    0.000001   0.000320  -0.000092
     2  C    0.000299  -0.001810   0.001983
     3  C   -0.000011  -0.000425   0.000243
     4  N    0.000000  -0.000018   0.000000
     5  C    0.004358  -0.001197   0.009090
     6  C    0.010844   0.101750  -0.071299
     7  C   -0.004784  -0.044048   0.028055
     8  C   -0.000015   0.001552   0.006047
     9  C    0.001213  -0.020235   0.000905
    10  C   -0.014482   0.015859   0.005614
    11  C    0.051403  -0.171695  -0.089471
    12  C    0.033061  -0.060084   0.036506
    13  O   -0.000044  -0.000270  -0.001510
    14  O    0.006934  -0.000263   0.001157
    15  C    0.131291   0.031237  -0.021978
    16  C   -0.075859   0.000710   0.002657
    17  C   -0.002022   0.001276  -0.003542
    18  C    0.004182  -0.001236   0.003816
    19  C    0.015424   0.001420   0.001713
    20  C    0.194545   0.039943  -0.060025
    21  C   -0.027241   0.409991   0.446714
    22  C   -0.006000   0.008811   0.008266
    23  O   -0.000005  -0.000065  -0.000049
    24  O   -0.000004  -0.000084   0.000065
    25  H    0.000000  -0.000000   0.000000
    26  H    0.000000   0.000000   0.000000
    27  H    0.000006   0.000500  -0.000530
    28  H    0.000000  -0.000008   0.000003
    29  H   -0.000000  -0.000002  -0.000003
    30  H    0.000000  -0.000001   0.000000
    31  H    0.000000  -0.000107  -0.000016
    32  H   -0.000010   0.002681   0.000041
    33  H    0.000000  -0.000013  -0.000001
    34  H   -0.000005  -0.000000   0.000000
    35  H   -0.000029   0.000001   0.000001
    36  H   -0.000004   0.000000   0.000000
    37  H   -0.000008   0.000000  -0.000000
    38  H   -0.000051   0.000000  -0.000002
    39  H   -0.000004  -0.000000   0.000000
    40  H   -0.000779  -0.000002   0.000001
    41  H    0.000113  -0.000000   0.000000
    42  H   -0.000739   0.000003  -0.000009
    43  H    0.540184  -0.005565   0.001375
    44  H   -0.005565   0.569266  -0.032422
    45  H    0.001375  -0.032422   0.539145
 Mulliken charges:
               1
     1  C   -0.183302
     2  C    0.524712
     3  C   -0.415179
     4  N   -0.453576
     5  C   -0.099947
     6  C   -0.564243
     7  C    0.320696
     8  C   -0.603349
     9  C   -0.566459
    10  C    0.695271
    11  C    0.332599
    12  C   -0.082304
    13  O   -0.329996
    14  O   -0.285582
    15  C   -0.129802
    16  C    0.197401
    17  C   -0.440707
    18  C   -0.483976
    19  C   -0.588879
    20  C    0.201102
    21  C   -0.423565
    22  C    0.849589
    23  O   -0.430256
    24  O   -0.338324
    25  H    0.186668
    26  H    0.171950
    27  H    0.125927
    28  H    0.148855
    29  H    0.152038
    30  H    0.158526
    31  H    0.148707
    32  H    0.136214
    33  H    0.175231
    34  H    0.148370
    35  H    0.152490
    36  H    0.174125
    37  H    0.147477
    38  H    0.151194
    39  H    0.175858
    40  H    0.154247
    41  H    0.153755
    42  H    0.152238
    43  H    0.142428
    44  H    0.154229
    45  H    0.187551
 Sum of Mulliken charges =  -0.00000
 Mulliken charges with hydrogens summed into heavy atoms:
               1
     1  C    0.175315
     2  C    0.524712
     3  C   -0.415179
     4  N   -0.453576
     5  C   -0.099947
     6  C   -0.564243
     7  C    0.446624
     8  C   -0.143930
     9  C   -0.106306
    10  C    0.695271
    11  C    0.332599
    12  C   -0.082304
    13  O   -0.329996
    14  O   -0.285582
    15  C   -0.129802
    16  C    0.197401
    17  C    0.034278
    18  C   -0.009447
    19  C   -0.128639
    20  C    0.343530
    21  C   -0.081785
    22  C    0.849589
    23  O   -0.430256
    24  O   -0.338324
 Electronic spatial extent (au):  <R**2>=           9532.1638
 Charge=              0.0000 electrons
 Dipole moment (field-independent basis, Debye):
    X=             -0.7939    Y=              3.7180    Z=             -0.6896  Tot=              3.8639
 Quadrupole moment (field-independent basis, Debye-Ang):
   XX=           -141.4255   YY=           -151.9721   ZZ=           -148.6677
   XY=            -21.4607   XZ=             11.2494   YZ=              9.5883
 Traceless Quadrupole moment (field-independent basis, Debye-Ang):
   XX=              5.9296   YY=             -4.6170   ZZ=             -1.3126
   XY=            -21.4607   XZ=             11.2494   YZ=              9.5883
 Octapole moment (field-independent basis, Debye-Ang**2):
  XXX=           -126.5782  YYY=             11.8433  ZZZ=              1.0248  XYY=              3.4495
  XXY=            -99.0238  XXZ=              5.7070  XZZ=             -8.7448  YZZ=              3.3979
  YYZ=              1.6008  XYZ=             16.3830
 Hexadecapole moment (field-independent basis, Debye-Ang**3):
 XXXX=         -10266.4379 YYYY=          -2119.2201 ZZZZ=          -1109.2842 XXXY=           -611.3365
 XXXZ=            226.8717 YYYX=            -84.4771 YYYZ=             25.1198 ZZZX=             25.3515
 ZZZY=             32.0832 XXYY=          -2038.2500 XXZZ=          -1915.9455 YYZZ=           -549.4420
 XXYZ=            159.0717 YYXZ=             31.6195 ZZXY=            -45.0740
 N-N= 2.054127279962D+03 E-N=-6.646290797081D+03  KE= 1.082089337980D+03
 Unable to Open any file for archive entry.
 1\1\GINC-N2\SP\RB3LYP TD-FC\6-31+G(d,p)\C19H21N1O4\HPCMGAC13\05-Aug-20
 25\0\\# td=(50-50,nstates=3) b3lyp/6-31+g(d,p) geom=connectivity\\Titl
 e Card Required\\0,1\C,0,-4.817032,1.945077,-0.86533\C,0,-4.174947,0.7
 68075,-0.677117\C,0,-4.897485,-0.436197,-0.986914\N,0,-5.523193,-1.371
 564,-1.280857\C,0,-2.767022,0.71278,-0.270081\C,0,-1.928944,-0.239272,
 0.242731\C,0,-2.2405,-1.637733,0.759068\C,0,-3.457959,-1.689698,1.7065
 07\C,0,-2.319652,-2.704227,-0.354052\C,0,-0.635514,0.430247,0.432541\C
 ,0,0.583647,-0.033195,0.819144\C,0,1.665925,0.914719,1.261308\O,0,1.51
 9965,1.768439,2.09889\O,0,2.912644,0.684371,0.745809\C,0,3.191654,-0.4
 67086,0.001347\C,0,4.50486,-0.322626,-0.74644\C,0,4.393041,0.872178,-1
 .725018\C,0,5.639694,-0.051098,0.271993\C,0,4.830972,-1.600869,-1.5391
 5\C,0,2.362919,-1.515105,0.053812\C,0,1.061354,-1.465517,0.830464\C,0,
 -0.832575,1.849806,-0.014018\O,0,-0.069827,2.767951,-0.144862\O,0,-2.1
 49989,1.948471,-0.430813\H,0,-4.310311,2.886125,-0.691508\H,0,-5.84734
 7,1.963676,-1.200466\H,0,-1.388217,-1.899442,1.391329\H,0,-3.506549,-2
 .677456,2.177478\H,0,-3.365791,-0.942291,2.500996\H,0,-4.406429,-1.533
 027,1.190907\H,0,-2.401082,-3.701961,0.090995\H,0,-1.427532,-2.688338,
 -0.989634\H,0,-3.189663,-2.554863,-0.996514\H,0,5.341598,1.004791,-2.2
 56384\H,0,3.607649,0.699664,-2.468821\H,0,4.16545,1.800708,-1.195305\H
 ,0,6.589108,0.076915,-0.258951\H,0,5.749822,-0.888511,0.969599\H,0,5.4
 45906,0.854891,0.85135\H,0,4.062984,-1.821927,-2.287992\H,0,5.780207,-
 1.467045,-2.067399\H,0,4.937824,-2.470848,-0.882376\H,0,2.598828,-2.41
 9225,-0.492474\H,0,0.335864,-2.129056,0.36301\H,0,1.213081,-1.827253,1
 .861193\\Version=ES64L-G16RevC.02\State=1-A\HF=-1092.3128103\RMSD=3.04
 4e-09\PG=C01 [X(C19H21N1O4)]\\@
 The archive entry for this job was punched.


 REFRAIN FROM ILLUSIONS, INSIST ON WORK AND NOT WORDS,
 PATIENTLY SEEK DIVINE AND SCIENTIFIC TRUTH.
 LAST WORDS OF MARIA MENDELEEVA TO HER SON DMITRI, C. 1850
 Job cpu time:       0 days  3 hours  8 minutes 54.6 seconds.
 Elapsed time:       0 days  0 hours 12 minutes  8.5 seconds.
 File lengths (MBytes):  RWF=   1673 Int=      0 D2E=      0 Chk=     81 Scr=      2
 Normal termination of Gaussian 16 at Tue Aug  5 22:57:39 2025.
