 Entering Gaussian System, Link 0=g16
 Input=M1958e.gjf
 Output=M1958e.log
 Initial command:
 /hpc/softwares/Gaussian/g16/l1.exe "/hpc/home/hpcmgac13/pbs.12808.admin1.x8z/Gau-2017175.inp" -scrdir="/hpc/home/hpcmgac13/pbs.12808.admin1.x8z/"
 Default linda workers: n2
 Default is to use  16 SMP processors on each worker.
 Entering Link 1 = /hpc/softwares/Gaussian/g16/l1.exe PID=   2017176.
  
 Copyright (c) 1988-2021, Gaussian, Inc.  All Rights Reserved.
  
 This is part of the Gaussian(R) 16 program.  It is based on
 the Gaussian(R) 09 system (copyright 2009, Gaussian, Inc.),
 the Gaussian(R) 03 system (copyright 2003, Gaussian, Inc.),
 the Gaussian(R) 98 system (copyright 1998, Gaussian, Inc.),
 the Gaussian(R) 94 system (copyright 1995, Gaussian, Inc.),
 the Gaussian 92(TM) system (copyright 1992, Gaussian, Inc.),
 the Gaussian 90(TM) system (copyright 1990, Gaussian, Inc.),
 the Gaussian 88(TM) system (copyright 1988, Gaussian, Inc.),
 the Gaussian 86(TM) system (copyright 1986, Carnegie Mellon
 University), and the Gaussian 82(TM) system (copyright 1983,
 Carnegie Mellon University). Gaussian is a federally registered
 trademark of Gaussian, Inc.
  
 This software contains proprietary and confidential information,
 including trade secrets, belonging to Gaussian, Inc.
  
 This software is provided under written license and may be
 used, copied, transmitted, or stored only in accord with that
 written license.
  
 The following legend is applicable only to US Government
 contracts under FAR:
  
                    RESTRICTED RIGHTS LEGEND
  
 Use, reproduction and disclosure by the US Government is
 subject to restrictions as set forth in subparagraphs (a)
 and (c) of the Commercial Computer Software - Restricted
 Rights clause in FAR 52.227-19.
  
 Gaussian, Inc.
 340 Quinnipiac St., Bldg. 40, Wallingford CT 06492
  
  
 ---------------------------------------------------------------
 Warning -- This program may not be used in any manner that
 competes with the business of Gaussian, Inc. or will provide
 assistance to any competitor of Gaussian, Inc.  The licensee
 of this program is prohibited from giving any competitor of
 Gaussian, Inc. access to this program.  By using this program,
 the user acknowledges that Gaussian, Inc. is engaged in the
 business of creating and licensing software in the field of
 computational chemistry and represents and warrants to the
 licensee that it is not a competitor of Gaussian, Inc. and that
 it will not use this program in any manner prohibited above.
 ---------------------------------------------------------------
  

 Cite this work as:
 Gaussian 16, Revision C.02,
 M. J. Frisch, G. W. Trucks, H. B. Schlegel, G. E. Scuseria, 
 M. A. Robb, J. R. Cheeseman, G. Scalmani, V. Barone, 
 G. A. Petersson, H. Nakatsuji, X. Li, M. Caricato, A. V. Marenich, 
 J. Bloino, B. G. Janesko, R. Gomperts, B. Mennucci, H. P. Hratchian, 
 J. V. Ortiz, A. F. Izmaylov, J. L. Sonnenberg, D. Williams-Young, 
 F. Ding, F. Lipparini, F. Egidi, J. Goings, B. Peng, A. Petrone, 
 T. Henderson, D. Ranasinghe, V. G. Zakrzewski, J. Gao, N. Rega, 
 G. Zheng, W. Liang, M. Hada, M. Ehara, K. Toyota, R. Fukuda, 
 J. Hasegawa, M. Ishida, T. Nakajima, Y. Honda, O. Kitao, H. Nakai, 
 T. Vreven, K. Throssell, J. A. Montgomery, Jr., J. E. Peralta, 
 F. Ogliaro, M. J. Bearpark, J. J. Heyd, E. N. Brothers, K. N. Kudin, 
 V. N. Staroverov, T. A. Keith, R. Kobayashi, J. Normand, 
 K. Raghavachari, A. P. Rendell, J. C. Burant, S. S. Iyengar, 
 J. Tomasi, M. Cossi, J. M. Millam, M. Klene, C. Adamo, R. Cammi, 
 J. W. Ochterski, R. L. Martin, K. Morokuma, O. Farkas, 
 J. B. Foresman, and D. J. Fox, Gaussian, Inc., Wallingford CT, 2019.
 
 ******************************************
 Gaussian 16:  ES64L-G16RevC.02  7-Dec-2021
                 5-Aug-2025 
 ******************************************
 SetLPE:    new flags="-opt 'Tsnet.Node.lindarsharg: ssh'  -nodelist 'n2.head.cm.mguif.local' -env GAUSS_MDEF=2147483648 -env GAUSS_EXEDIR="/hpc/softwares/Gaussian/g16/bsd:/hpc/softwares/Gaussian/g16""
 Will use up to    1 processors via Linda.
 ----------------------------------------------------------
 # td=(50-50,nstates=3) b3lyp/6-31+g(d,p) geom=connectivity
 ----------------------------------------------------------
 1/38=1,57=2,172=1/1;
 2/12=2,17=6,18=5,40=1/2;
 3/5=1,6=6,7=111,11=9,25=1,30=1,74=-5/1,2,3,8;
 4//1;
 5/5=2,38=5/2;
 8/6=1,10=2,108=3/1;
 9/41=3,42=1,48=2,70=2/14;
 6/7=2,8=2,9=2,10=2/1;
 99/5=1,9=1/99;
 -------------------
 Title Card Required
 -------------------
 Symbolic Z-matrix:
 Charge =  0 Multiplicity = 1
 C                     4.31565  -1.53447   0.1693 
 C                     3.85201  -0.32023  -0.65292 
 C                     4.4684    0.98554  -0.12363 
 C                     2.31384  -0.24369  -0.78589 
 C                     1.57035  -0.04072   0.54439 
 N                     0.12115   0.01087   0.35648 
 C                    -0.71095   1.10112   0.18812 
 C                    -0.23184   2.42296   0.22307 
 N                     0.15389   3.52535   0.24785 
 C                    -2.01593   0.6018    0.00858 
 C                    -3.28963   1.18514  -0.20112 
 C                    -4.37343   0.34206  -0.33526 
 C                    -4.24026  -1.07771  -0.26783 
 C                    -3.01417  -1.67634  -0.06378 
 C                    -1.91006  -0.81423   0.07198 
 N                    -0.59506  -1.14536   0.28087 
 O                    -0.05545  -2.28939   0.40267 
 H                     5.40511  -1.63783   0.12089 
 H                     4.04854  -1.4377    1.22837 
 H                     3.87202  -2.46424  -0.20297 
 H                     4.22212  -0.46187  -1.67812 
 H                     4.13981   1.85214  -0.70824 
 H                     5.56179   0.94347  -0.17448 
 H                     4.20345   1.16853   0.92471 
 H                     2.05191   0.58218  -1.4591 
 H                     1.94492  -1.16867  -1.24275 
 H                     1.75545  -0.86689   1.23395 
 H                     1.84558   0.8988    1.02794 
 H                    -3.40182   2.26309  -0.25342 
 H                    -5.35969   0.76611  -0.49728 
 H                    -5.12617  -1.69461  -0.37975 
 H                    -2.8831   -2.75075  -0.0076 
 
                          Input orientation:                          
 ---------------------------------------------------------------------
 Center     Atomic      Atomic             Coordinates (Angstroms)
 Number     Number       Type             X           Y           Z
 ---------------------------------------------------------------------
      1          6           0        4.315650   -1.534470    0.169301
      2          6           0        3.852007   -0.320229   -0.652918
      3          6           0        4.468398    0.985537   -0.123628
      4          6           0        2.313839   -0.243689   -0.785888
      5          6           0        1.570354   -0.040719    0.544392
      6          7           0        0.121148    0.010869    0.356483
      7          6           0       -0.710946    1.101117    0.188116
      8          6           0       -0.231843    2.422956    0.223065
      9          7           0        0.153891    3.525348    0.247853
     10          6           0       -2.015930    0.601804    0.008576
     11          6           0       -3.289628    1.185139   -0.201123
     12          6           0       -4.373431    0.342061   -0.335261
     13          6           0       -4.240260   -1.077709   -0.267826
     14          6           0       -3.014167   -1.676336   -0.063777
     15          6           0       -1.910063   -0.814234    0.071976
     16          7           0       -0.595060   -1.145365    0.280870
     17          8           0       -0.055453   -2.289390    0.402672
     18          1           0        5.405106   -1.637832    0.120887
     19          1           0        4.048538   -1.437698    1.228368
     20          1           0        3.872023   -2.464238   -0.202969
     21          1           0        4.222120   -0.461871   -1.678116
     22          1           0        4.139807    1.852144   -0.708237
     23          1           0        5.561787    0.943472   -0.174480
     24          1           0        4.203446    1.168526    0.924709
     25          1           0        2.051907    0.582180   -1.459100
     26          1           0        1.944917   -1.168665   -1.242746
     27          1           0        1.755446   -0.866886    1.233945
     28          1           0        1.845579    0.898796    1.027943
     29          1           0       -3.401819    2.263094   -0.253415
     30          1           0       -5.359691    0.766113   -0.497280
     31          1           0       -5.126166   -1.694608   -0.379754
     32          1           0       -2.883099   -2.750746   -0.007602
 ---------------------------------------------------------------------
                    Distance matrix (angstroms):
                    1          2          3          4          5
     1  C    0.000000
     2  C    1.537982   0.000000
     3  C    2.541569   1.537892   0.000000
     4  C    2.566271   1.545801   2.567432   0.000000
     5  C    3.147799   2.591837   3.146126   1.537404   0.000000
     6  N    4.474031   3.879153   4.480967   2.485499   1.462248
     7  C    5.675680   4.852639   5.190005   3.450581   2.575859
     8  C    6.028582   4.997023   4.927335   3.822235   3.069342
     9  N    6.551959   5.410722   5.020320   4.465382   3.848524
    10  C    6.684191   5.976655   6.497018   4.482514   3.682576
    11  C    8.085403   7.312537   7.760980   5.812258   5.067341
    12  C    8.903712   8.258170   8.867739   6.727982   6.020705
    13  C    8.579237   8.136760   8.950894   6.627231   5.958043
    14  C    7.334894   7.023565   7.942161   5.564312   4.905400
    15  C    6.267991   5.828461   6.630400   4.347735   3.596499
    16  N    4.927365   4.618356   5.508445   3.226869   2.445139
    17  O    4.441949   4.501123   5.609578   3.348300   2.778463
    18  H    1.095419   2.178754   2.796297   3.510243   4.175578
    19  H    1.096511   2.196952   2.806465   2.914115   2.925879
    20  H    1.095380   2.190806   3.501843   2.774630   3.424861
    21  H    2.138262   1.099126   2.138241   2.117832   3.485509
    22  H    3.502877   2.192052   1.095786   2.780774   3.428425
    23  H    2.794859   2.179264   1.095379   3.511743   4.173362
    24  H    2.808811   2.197455   1.096675   2.913951   2.922343
    25  H    3.500918   2.169016   2.790271   1.097216   2.152644
    26  H    2.783535   2.169040   3.501566   1.095629   2.146258
    27  H    2.851978   2.873091   3.554516   2.186299   1.091922
    28  H    3.572016   2.887398   2.865802   2.194202   1.091906
    29  H    8.611592   7.710457   7.974291   6.263883   5.537739
    30  H    9.967409   9.276839   9.837637   7.745067   7.054189
    31  H    9.459122   9.086866   9.965161   7.591033   6.959366
    32  H    7.302918   7.189263   8.247289   5.822304   5.242346
                    6          7          8          9         10
     6  N    0.000000
     7  C    1.381799   0.000000
     8  C    2.441427   1.406421   0.000000
     9  N    3.516310   2.574569   1.168192   0.000000
    10  C    2.244403   1.408734   2.558430   3.648628   0.000000
    11  C    3.650100   2.609247   3.325985   4.187598   1.416531
    12  C    4.559544   3.776756   4.668469   5.565068   2.396560
    13  C    4.538353   4.172676   5.344440   6.384561   2.800858
    14  C    3.585175   3.616977   4.962640   6.098461   2.488299
    15  C    2.210782   2.262728   3.649472   4.808618   1.421405
    16  N    1.362185   2.251381   3.587225   4.730494   2.268395
    17  O    2.307491   3.459948   4.719065   5.820565   3.515364
    18  H    5.540211   6.701675   6.948067   7.365447   7.752442
    19  H    4.275853   5.493669   5.851234   6.384474   6.513466
    20  H    4.528599   5.819648   6.395927   7.064198   6.641789
    21  H    4.602287   5.500990   5.636888   6.013132   6.549015
    22  H    4.546817   4.989719   4.506049   4.427329   6.322204
    23  H    5.545469   6.285182   5.992751   6.007478   7.587624
    24  H    4.281146   4.969745   4.662369   4.734093   6.311982
    25  H    2.711193   3.258216   3.381368   3.895945   4.324553
    26  H    2.697215   3.775299   4.448216   5.240555   4.515382
    27  H    2.052151   3.324137   3.974199   4.777978   4.228694
    28  H    2.052544   2.698530   2.699366   3.220112   4.004818
    29  H    4.225611   2.964108   3.209570   3.806262   2.179269
    30  H    5.598116   4.710926   5.436805   6.210329   3.385798
    31  H    5.566417   5.256684   6.424338   7.451230   3.885599
    32  H    4.096898   4.426444   5.818037   6.976956   3.462923
                   11         12         13         14         15
    11  C    0.000000
    12  C    1.379639   0.000000
    13  C    2.455327   1.427595   0.000000
    14  C    2.877982   2.448516   1.379599   0.000000
    15  C    2.444438   2.751553   2.369536   1.407371   0.000000
    16  N    3.595033   4.107084   3.686886   2.500558   1.372049
    17  O    4.785061   5.110187   4.407987   3.057352   2.392702
    18  H    9.147199   9.987384   9.669432   8.421386   7.361549
    19  H    7.922840   8.748831   8.430443   7.183898   6.101711
    20  H    8.037860   8.710931   8.230176   6.932516   6.019188
    21  H    7.830741   8.736879   8.601166   7.512980   6.386756
    22  H    7.476534   8.654171   8.888393   8.002802   6.657269
    23  H    8.854754   9.954703  10.008697   8.967867   7.679766
    24  H    7.577198   8.708237   8.818383   7.820760   6.483323
    25  H    5.520694   6.527300   6.615567   5.719522   4.471171
    26  H    5.833167   6.559523   6.262201   5.122520   4.088397
    27  H    5.632317   6.441048   6.184517   5.008842   3.845634
    28  H    5.288000   6.390960   6.528631   5.607164   4.237121
    29  H    1.085038   2.154320   3.444438   3.962997   3.435282
    30  H    2.132710   1.085716   2.169206   3.413937   3.836858
    31  H    3.420194   2.171776   1.085321   2.135583   3.364883
    32  H    3.961554   3.448754   2.169944   1.083832   2.168689
                   16         17         18         19         20
    16  N    0.000000
    17  O    1.270750   0.000000
    18  H    6.022467   5.506508   0.000000
    19  H    4.748285   4.271990   1.762624   0.000000
    20  H    4.682772   3.977743   1.771489   1.770217   0.000000
    21  H    5.244999   5.095796   2.453314   3.070833   2.511593
    22  H    5.690550   5.998886   3.803730   3.818616   4.354097
    23  H    6.517465   6.506757   2.602868   3.150853   3.803761
    24  H    5.366030   5.510710   3.156859   2.628423   3.818177
    25  H    3.608094   4.019089   4.320736   3.910106   3.764485
    26  H    2.961998   2.822216   3.748669   3.256379   2.544284
    27  H    2.551623   2.448242   3.892721   2.363076   3.015983
    28  H    3.270081   3.764229   4.464019   3.217515   4.114805
    29  H    4.447578   5.688034   9.639463   8.449814   8.675194
    30  H    5.192396   6.187160  11.047259   9.815774   9.785005
    31  H    4.611834   5.165083  10.543318   9.318114   9.032773
    32  H    2.809909   2.894263   8.363578   7.162354   6.764017
                   21         22         23         24         25
    21  H    0.000000
    22  H    2.510400   0.000000
    23  H    2.455732   1.769918   0.000000
    24  H    3.071358   1.771411   1.761805   0.000000
    25  H    2.418230   2.556547   3.755002   3.264271   0.000000
    26  H    2.423790   3.772072   4.322507   3.906568   1.767403
    27  H    3.837788   4.104921   4.444017   3.198630   3.072486
    28  H    3.849950   3.030953   3.906151   2.375489   2.515591
    29  H    8.220684   7.566496   9.060567   7.773423   5.832862
    30  H    9.732082   9.563704  10.927687   9.676651   7.476009
    31  H    9.518184   9.927014  11.010629   9.845853   7.607462
    32  H    7.649425   8.426072   9.219067   8.151627   6.129399
                   26         27         28         29         30
    26  H    0.000000
    27  H    2.502193   0.000000
    28  H    3.072506   1.779942   0.000000
    29  H    6.429878   6.213405   5.571209   0.000000
    30  H    7.593180   7.502600   7.366127   2.476628   0.000000
    31  H    7.142940   7.116581   7.570507   4.318882   2.474569
    32  H    5.228604   5.158146   6.062335   5.046592   4.329156
                   31         32
    31  H    0.000000
    32  H    2.507045   0.000000
 Stoichiometry    C13H15N3O
 Framework group  C1[X(C13H15N3O)]
 Deg. of freedom    90
 Full point group                 C1      NOp   1
 Largest Abelian subgroup         C1      NOp   1
 Largest concise Abelian subgroup C1      NOp   1
                         Standard orientation:                         
 ---------------------------------------------------------------------
 Center     Atomic      Atomic             Coordinates (Angstroms)
 Number     Number       Type             X           Y           Z
 ---------------------------------------------------------------------
      1          6           0       -4.315650   -1.534470   -0.169301
      2          6           0       -3.852007   -0.320229    0.652918
      3          6           0       -4.468398    0.985537    0.123628
      4          6           0       -2.313839   -0.243689    0.785888
      5          6           0       -1.570354   -0.040719   -0.544392
      6          7           0       -0.121148    0.010869   -0.356483
      7          6           0        0.710946    1.101117   -0.188116
      8          6           0        0.231843    2.422956   -0.223065
      9          7           0       -0.153891    3.525348   -0.247853
     10          6           0        2.015930    0.601804   -0.008576
     11          6           0        3.289628    1.185139    0.201123
     12          6           0        4.373431    0.342061    0.335261
     13          6           0        4.240260   -1.077709    0.267826
     14          6           0        3.014167   -1.676336    0.063777
     15          6           0        1.910063   -0.814234   -0.071976
     16          7           0        0.595060   -1.145365   -0.280870
     17          8           0        0.055453   -2.289390   -0.402672
     18          1           0       -5.405106   -1.637832   -0.120887
     19          1           0       -4.048538   -1.437698   -1.228368
     20          1           0       -3.872023   -2.464238    0.202969
     21          1           0       -4.222120   -0.461871    1.678116
     22          1           0       -4.139807    1.852144    0.708237
     23          1           0       -5.561787    0.943472    0.174480
     24          1           0       -4.203446    1.168526   -0.924709
     25          1           0       -2.051907    0.582180    1.459100
     26          1           0       -1.944917   -1.168665    1.242746
     27          1           0       -1.755446   -0.866886   -1.233945
     28          1           0       -1.845579    0.898796   -1.027943
     29          1           0        3.401819    2.263094    0.253415
     30          1           0        5.359691    0.766113    0.497280
     31          1           0        5.126166   -1.694608    0.379754
     32          1           0        2.883099   -2.750746    0.007602
 ---------------------------------------------------------------------
 Rotational constants (GHZ):           0.9073462           0.2813076           0.2221581
 Standard basis: 6-31+G(d,p) (6D, 7F)
 There are   398 symmetry adapted cartesian basis functions of A   symmetry.
 There are   398 symmetry adapted basis functions of A   symmetry.
   398 basis functions,   649 primitive gaussians,   398 cartesian basis functions
    61 alpha electrons       61 beta electrons
       nuclear repulsion energy      1155.2810518657 Hartrees.
 NAtoms=   32 NActive=   32 NUniq=   32 SFac= 1.00D+00 NAtFMM=   60 NAOKFM=F Big=F
 Integral buffers will be    131072 words long.
 Regular integral format.
 Two-electron integral symmetry is turned on.
 One-electron integrals computed using PRISM.
 NBasis=   398 RedAO= T EigKep=  1.22D-06  NBF=   398
 NBsUse=   396 1.00D-06 EigRej=  9.91D-07 NBFU=   396
 ExpMin= 4.38D-02 ExpMax= 5.48D+03 ExpMxC= 8.25D+02 IAcc=3 IRadAn=         5 AccDes= 0.00D+00
 Harris functional with IExCor=  402 and IRadAn=       5 diagonalized for initial guess.
 HarFok:  IExCor=  402 AccDes= 0.00D+00 IRadAn=         5 IDoV= 1 UseB2=F ITyADJ=14
 ICtDFT=  3500011 ScaDFX=  1.000000  1.000000  1.000000  1.000000
 FoFCou: FMM=F IPFlag=           0 FMFlag=      100000 FMFlg1=           0
         NFxFlg=           0 DoJE=T BraDBF=F KetDBF=T FulRan=T
         wScrn=  0.000000 ICntrl=       500 IOpCl=  0 I1Cent=   200000004 NGrid=           0
         NMat0=    1 NMatS0=      1 NMatT0=    0 NMatD0=    1 NMtDS0=    0 NMtDT0=    0
 Petite list used in FoFCou.
 Requested convergence on RMS density matrix=1.00D-08 within 128 cycles.
 Requested convergence on MAX density matrix=1.00D-06.
 Requested convergence on             energy=1.00D-06.
 No special actions if energy rises.
 SCF Done:  E(RB3LYP) =  -743.854105356     A.U. after   17 cycles
            NFock= 17  Conv=0.30D-08     -V/T= 2.0096
 DoSCS=F DFT=T ScalE2(SS,OS)=  1.000000  1.000000
 ExpMin= 4.38D-02 ExpMax= 5.48D+03 ExpMxC= 8.25D+02 IAcc=3 IRadAn=         5 AccDes= 0.00D+00
 HarFok:  IExCor=  205 AccDes= 0.00D+00 IRadAn=         5 IDoV=-2 UseB2=F ITyADJ=14
 ICtDFT= 12500011 ScaDFX=  1.000000  1.000000  1.000000  1.000000
 Range of M.O.s used for correlation:    18   396
 NBasis=   398 NAE=    61 NBE=    61 NFC=    17 NFV=     0
 NROrb=    379 NOA=    44 NOB=    44 NVA=   335 NVB=   335

 **** Warning!!: The largest alpha MO coefficient is  0.22131873D+03

 Orbital symmetries:
       Occupied  (A) (A) (A) (A) (A) (A) (A) (A) (A) (A) (A) (A)
                 (A) (A) (A) (A) (A) (A) (A) (A) (A) (A) (A) (A)
                 (A) (A) (A) (A) (A) (A) (A) (A) (A) (A) (A) (A)
                 (A) (A) (A) (A) (A) (A) (A) (A) (A) (A) (A) (A)
                 (A) (A) (A) (A) (A) (A) (A) (A) (A) (A) (A) (A)
                 (A)
       Virtual   (A) (A) (A) (A) (A) (A) (A) (A) (A) (A) (A) (A)
                 (A) (A) (A) (A) (A) (A) (A) (A) (A) (A) (A) (A)
                 (A) (A) (A) (A) (A) (A) (A) (A) (A) (A) (A) (A)
                 (A) (A) (A) (A) (A) (A) (A) (A) (A) (A) (A) (A)
                 (A) (A) (A) (A) (A) (A) (A) (A) (A) (A) (A) (A)
                 (A) (A) (A) (A) (A) (A) (A) (A) (A) (A) (A) (A)
                 (A) (A) (A) (A) (A) (A) (A) (A) (A) (A) (A) (A)
                 (A) (A) (A) (A) (A) (A) (A) (A) (A) (A) (A) (A)
                 (A) (A) (A) (A) (A) (A) (A) (A) (A) (A) (A) (A)
                 (A) (A) (A) (A) (A) (A) (A) (A) (A) (A) (A) (A)
                 (A) (A) (A) (A) (A) (A) (A) (A) (A) (A) (A) (A)
                 (A) (A) (A) (A) (A) (A) (A) (A) (A) (A) (A) (A)
                 (A) (A) (A) (A) (A) (A) (A) (A) (A) (A) (A) (A)
                 (A) (A) (A) (A) (A) (A) (A) (A) (A) (A) (A) (A)
                 (A) (A) (A) (A) (A) (A) (A) (A) (A) (A) (A) (A)
                 (A) (A) (A) (A) (A) (A) (A) (A) (A) (A) (A) (A)
                 (A) (A) (A) (A) (A) (A) (A) (A) (A) (A) (A) (A)
                 (A) (A) (A) (A) (A) (A) (A) (A) (A) (A) (A) (A)
                 (A) (A) (A) (A) (A) (A) (A) (A) (A) (A) (A) (A)
                 (A) (A) (A) (A) (A) (A) (A) (A) (A) (A) (A) (A)
                 (A) (A) (A) (A) (A) (A) (A) (A) (A) (A) (A) (A)
                 (A) (A) (A) (A) (A) (A) (A) (A) (A) (A) (A) (A)
                 (A) (A) (A) (A) (A) (A) (A) (A) (A) (A) (A) (A)
                 (A) (A) (A) (A) (A) (A) (A) (A) (A) (A) (A) (A)
                 (A) (A) (A) (A) (A) (A) (A) (A) (A) (A) (A) (A)
                 (A) (A) (A) (A) (A) (A) (A) (A) (A) (A) (A) (A)
                 (A) (A) (A) (A) (A) (A) (A) (A) (A) (A) (A) (A)
                 (A) (A) (A) (A) (A) (A) (A) (A) (A) (A) (A)
    24 initial guesses have been made.
 Convergence on wavefunction:    0.001000000000000
 Iteration     1 Dimension    24 NMult     0 NNew     24
 CISAX will form    24 AO SS matrices at one time.
 New state      1 was old state      2
 New state      2 was old state      4
 New state      3 was old state      6
 New state      4 was old state      1
 New state      5 was old state      8
 New state      6 was old state     14
 New state      7 was old state     10
 New state      8 was old state     13
 New state      9 was old state     12
 New state     10 was old state      9
 New state     11 was old state      3
 New state     12 was old state     16
 Vector   5 SDiff=5.51D-02 TDiff=4.01D+00 assumed to be singlet.
 Vector   6 SDiff=6.58D-01 TDiff=5.03D+00 assumed to be singlet.
 Vector  11 SDiff=3.76D+00 TDiff=1.06D-01 assumed to be triplet.
 Vector  12 SDiff=7.42D-01 TDiff=4.71D+00 assumed to be singlet.
 Iteration     2 Dimension    36 NMult    24 NNew     12
 New state      2 was old state      4
 New state      3 was old state      2
 New state      4 was old state      3
 New state      5 was old state      8
 New state      6 was old state     10
 Iteration     3 Dimension    48 NMult    36 NNew     12
 New state      5 was old state      6
 New state      6 was old state      5
 Iteration     4 Dimension    60 NMult    48 NNew     12
 Iteration     5 Dimension    72 NMult    60 NNew     12
 Iteration     6 Dimension    82 NMult    72 NNew     10
 Iteration     7 Dimension    86 NMult    82 NNew      4
 ***********************************************************************
 Excited states from <AA,BB:AA,BB> singles matrix:
 ***********************************************************************
 
 Ground to excited state transition densities written to RWF  633
 Ground to excited state transition electric dipole moments (Au):
       state          X           Y           Z        Dip. S.      Osc.
         1        -0.0000     -0.0000     -0.0000      0.0000      0.0000
         2        -0.0108     -1.3002     -0.0481      1.6929      0.1364
         3         0.0000      0.0000      0.0000      0.0000      0.0000
         4        -0.0000      0.0000      0.0000      0.0000      0.0000
         5        -0.1616      0.5119     -0.0572      0.2914      0.0310
         6         0.1095     -0.0958      0.0062      0.0212      0.0023
 Ground to excited state transition velocity dipole moments (Au):
       state          X           Y           Z        Dip. S.      Osc.
         1         0.0000      0.0000     -0.0000      0.0000      0.0000
         2         0.0052      0.1598      0.0069      0.0256      0.1413
         3         0.0000      0.0000      0.0000      0.0000      0.0000
         4         0.0000     -0.0000      0.0000      0.0000      0.0000
         5         0.0311     -0.0735      0.0105      0.0065      0.0271
         6        -0.0190      0.0132      0.0006      0.0005      0.0022
 Ground to excited state transition magnetic dipole moments (Au):
       state          X           Y           Z
         1        -0.0000      0.0000      0.0000
         2        -0.0331     -0.0370      1.0609
         3        -0.0000     -0.0000     -0.0000
         4         0.0000      0.0000     -0.0000
         5        -0.0879     -0.0890     -0.1998
         6        -0.3332     -0.4348     -0.0001
 Ground to excited state transition velocity quadrupole moments (Au):
       state          XX          YY          ZZ          XY          XZ          YZ
         1         0.0000      0.0000      0.0000     -0.0000     -0.0000     -0.0000
         2         0.0609      0.0734      0.0026      0.1991      0.0106     -0.0885
         3        -0.0000     -0.0000     -0.0000      0.0000      0.0000     -0.0000
         4         0.0000      0.0000      0.0000     -0.0000     -0.0000      0.0000
         5         0.5951     -0.4726      0.0087      0.0656      0.0268      0.0438
         6        -0.2043      0.1016      0.0047     -0.0315      0.0148     -0.0288
 <0|del|b> * <b|rxdel|0> + <0|del|b> * <b|delr+rdel|0>
 Rotatory Strengths (R) in cgs (10**-40 erg-esu-cm/Gauss)
       state          XX          YY          ZZ    R(velocity)    E-M Angle
         1        -0.0000     -0.0000     -0.0000     -0.0000       90.00
         2         3.0846     15.4642    -11.4773      2.3571       89.59
         3        -0.0000     -0.0000      0.0000     -0.0000       90.00
         4        -0.0000      0.0000      0.0000     -0.0000       90.00
         5        15.7639     -9.2076      1.0581      2.5381       84.81
         6       -12.9999     15.0775      0.5325      0.8700       87.30
 1/2[<0|r|b>*<b|rxdel|0> + (<0|rxdel|b>*<b|r|0>)*]
 Rotatory Strengths (R) in cgs (10**-40 erg-esu-cm/Gauss)
       state          XX          YY          ZZ     R(length)
         1        -0.0000      0.0000      0.0000      0.0000
         2        -0.2533    -33.9766     36.0517      0.6073
         3         0.0000      0.0000      0.0000      0.0000
         4         0.0000     -0.0000      0.0000     -0.0000
         5       -10.0415     32.2115     -8.0808      4.6964
         6        25.7904    -29.4501      0.0003     -1.2198
  1/2[<0|del|b>*<b|r|0> + (<0|r|b>*<b|del|0>)*] (Au)
       state          X           Y           Z        Dip. S.   Osc.(frdel)
         1        -0.0000     -0.0000      0.0000      0.0000      0.0000
         2        -0.0001     -0.2078     -0.0003      0.2082      0.1388
         3         0.0000      0.0000      0.0000     -0.0000     -0.0000
         4        -0.0000     -0.0000      0.0000      0.0000      0.0000
         5        -0.0050     -0.0376     -0.0006      0.0433      0.0288
         6        -0.0021     -0.0013      0.0000      0.0033      0.0022

 Excitation energies and oscillator strengths:
 
 Excited State   1:      Triplet-A      1.5835 eV  783.00 nm  f=0.0000  <S**2>=2.000
      61 -> 62         0.70862
      61 <- 62         0.15905
 This state for optimization and/or second-order correction.
 Total Energy, E(TD-HF/TD-DFT) =  -743.795914446    
 Copying the excited state density for this state as the 1-particle RhoCI density.
 
 Excited State   2:      Singlet-A      3.2886 eV  377.01 nm  f=0.1364  <S**2>=0.000
      61 -> 62         0.68797
      61 -> 63         0.11918
 
 Excited State   3:      Triplet-A      3.3800 eV  366.81 nm  f=0.0000  <S**2>=2.000
      59 -> 62        -0.42868
      59 -> 63        -0.13769
      61 -> 63         0.45885
      61 -> 64        -0.22806
 
 Excited State   4:      Triplet-A      3.7905 eV  327.09 nm  f=0.0000  <S**2>=2.000
      59 -> 62         0.13933
      60 -> 62         0.63566
      61 -> 63         0.13680
      61 -> 64         0.20376
 
 Excited State   5:      Singlet-A      4.3366 eV  285.90 nm  f=0.0310  <S**2>=0.000
      60 -> 62        -0.38267
      61 -> 63         0.55272
      61 -> 64         0.15676
 
 Excited State   6:      Singlet-A      4.4013 eV  281.70 nm  f=0.0023  <S**2>=0.000
      58 -> 62         0.67103
      61 -> 63        -0.12674
      61 -> 65        -0.10713
 SavETr:  write IOETrn=   770 NScale= 10 NData=  16 NLR=1 NState=    6 LETran=     118.

 **********************************************************************

            Population analysis using the SCF Density.

 **********************************************************************

 Orbital symmetries:
       Occupied  (A) (A) (A) (A) (A) (A) (A) (A) (A) (A) (A) (A)
                 (A) (A) (A) (A) (A) (A) (A) (A) (A) (A) (A) (A)
                 (A) (A) (A) (A) (A) (A) (A) (A) (A) (A) (A) (A)
                 (A) (A) (A) (A) (A) (A) (A) (A) (A) (A) (A) (A)
                 (A) (A) (A) (A) (A) (A) (A) (A) (A) (A) (A) (A)
                 (A)
       Virtual   (A) (A) (A) (A) (A) (A) (A) (A) (A) (A) (A) (A)
                 (A) (A) (A) (A) (A) (A) (A) (A) (A) (A) (A) (A)
                 (A) (A) (A) (A) (A) (A) (A) (A) (A) (A) (A) (A)
                 (A) (A) (A) (A) (A) (A) (A) (A) (A) (A) (A) (A)
                 (A) (A) (A) (A) (A) (A) (A) (A) (A) (A) (A) (A)
                 (A) (A) (A) (A) (A) (A) (A) (A) (A) (A) (A) (A)
                 (A) (A) (A) (A) (A) (A) (A) (A) (A) (A) (A) (A)
                 (A) (A) (A) (A) (A) (A) (A) (A) (A) (A) (A) (A)
                 (A) (A) (A) (A) (A) (A) (A) (A) (A) (A) (A) (A)
                 (A) (A) (A) (A) (A) (A) (A) (A) (A) (A) (A) (A)
                 (A) (A) (A) (A) (A) (A) (A) (A) (A) (A) (A) (A)
                 (A) (A) (A) (A) (A) (A) (A) (A) (A) (A) (A) (A)
                 (A) (A) (A) (A) (A) (A) (A) (A) (A) (A) (A) (A)
                 (A) (A) (A) (A) (A) (A) (A) (A) (A) (A) (A) (A)
                 (A) (A) (A) (A) (A) (A) (A) (A) (A) (A) (A) (A)
                 (A) (A) (A) (A) (A) (A) (A) (A) (A) (A) (A) (A)
                 (A) (A) (A) (A) (A) (A) (A) (A) (A) (A) (A) (A)
                 (A) (A) (A) (A) (A) (A) (A) (A) (A) (A) (A) (A)
                 (A) (A) (A) (A) (A) (A) (A) (A) (A) (A) (A) (A)
                 (A) (A) (A) (A) (A) (A) (A) (A) (A) (A) (A) (A)
                 (A) (A) (A) (A) (A) (A) (A) (A) (A) (A) (A) (A)
                 (A) (A) (A) (A) (A) (A) (A) (A) (A) (A) (A) (A)
                 (A) (A) (A) (A) (A) (A) (A) (A) (A) (A) (A) (A)
                 (A) (A) (A) (A) (A) (A) (A) (A) (A) (A) (A) (A)
                 (A) (A) (A) (A) (A) (A) (A) (A) (A) (A) (A) (A)
                 (A) (A) (A) (A) (A) (A) (A) (A) (A) (A) (A) (A)
                 (A) (A) (A) (A) (A) (A) (A) (A) (A) (A) (A) (A)
                 (A) (A) (A) (A) (A) (A) (A) (A) (A) (A) (A)
 The electronic state is 1-A.
 Alpha  occ. eigenvalues --  -19.15983 -14.52364 -14.46686 -14.35873 -10.28086
 Alpha  occ. eigenvalues --  -10.25923 -10.25701 -10.25324 -10.23923 -10.22581
 Alpha  occ. eigenvalues --  -10.22530 -10.22173 -10.22082 -10.20881 -10.20629
 Alpha  occ. eigenvalues --  -10.18728 -10.18604  -1.17033  -1.02803  -0.92326
 Alpha  occ. eigenvalues --   -0.90896  -0.85388  -0.82825  -0.81303  -0.77400
 Alpha  occ. eigenvalues --   -0.75657  -0.69552  -0.69526  -0.67475  -0.64388
 Alpha  occ. eigenvalues --   -0.63828  -0.58119  -0.57386  -0.55543  -0.53473
 Alpha  occ. eigenvalues --   -0.52081  -0.50112  -0.48048  -0.47490  -0.46607
 Alpha  occ. eigenvalues --   -0.46237  -0.45559  -0.44365  -0.42411  -0.41850
 Alpha  occ. eigenvalues --   -0.40783  -0.39934  -0.39009  -0.38466  -0.38271
 Alpha  occ. eigenvalues --   -0.37812  -0.37060  -0.35642  -0.34887  -0.34294
 Alpha  occ. eigenvalues --   -0.34149  -0.32806  -0.29276  -0.28961  -0.28069
 Alpha  occ. eigenvalues --   -0.21304
 Alpha virt. eigenvalues --   -0.08631  -0.02916  -0.01102  -0.01017  -0.00619
 Alpha virt. eigenvalues --    0.00145   0.00972   0.01528   0.01884   0.02316
 Alpha virt. eigenvalues --    0.03902   0.04156   0.04396   0.04638   0.05316
 Alpha virt. eigenvalues --    0.05778   0.06284   0.06677   0.07339   0.07520
 Alpha virt. eigenvalues --    0.07882   0.08229   0.08649   0.08783   0.09586
 Alpha virt. eigenvalues --    0.09793   0.10418   0.10631   0.10986   0.11317
 Alpha virt. eigenvalues --    0.11693   0.12198   0.13077   0.13236   0.14037
 Alpha virt. eigenvalues --    0.14160   0.14504   0.14635   0.14789   0.15072
 Alpha virt. eigenvalues --    0.15620   0.15842   0.16400   0.16931   0.17108
 Alpha virt. eigenvalues --    0.17332   0.17740   0.18180   0.19194   0.19263
 Alpha virt. eigenvalues --    0.19758   0.20111   0.20252   0.20915   0.21547
 Alpha virt. eigenvalues --    0.21797   0.22055   0.22723   0.23189   0.23416
 Alpha virt. eigenvalues --    0.23821   0.23982   0.24263   0.25232   0.25487
 Alpha virt. eigenvalues --    0.25925   0.26058   0.26299   0.26758   0.26912
 Alpha virt. eigenvalues --    0.27392   0.27859   0.28123   0.28578   0.28868
 Alpha virt. eigenvalues --    0.29251   0.29546   0.29676   0.29839   0.30523
 Alpha virt. eigenvalues --    0.31124   0.31489   0.32106   0.32766   0.33217
 Alpha virt. eigenvalues --    0.33448   0.34400   0.34818   0.35064   0.36602
 Alpha virt. eigenvalues --    0.36925   0.37296   0.38679   0.39907   0.41920
 Alpha virt. eigenvalues --    0.43525   0.44008   0.46053   0.46449   0.47848
 Alpha virt. eigenvalues --    0.48952   0.52970   0.56832   0.59741   0.61226
 Alpha virt. eigenvalues --    0.62421   0.63237   0.64929   0.65284   0.65365
 Alpha virt. eigenvalues --    0.66206   0.67330   0.68590   0.69264   0.70036
 Alpha virt. eigenvalues --    0.70314   0.71594   0.72657   0.73381   0.73660
 Alpha virt. eigenvalues --    0.74515   0.74574   0.75491   0.76739   0.78250
 Alpha virt. eigenvalues --    0.78839   0.80366   0.81151   0.82675   0.82868
 Alpha virt. eigenvalues --    0.85557   0.86134   0.86398   0.87564   0.88884
 Alpha virt. eigenvalues --    0.90165   0.91065   0.92157   0.93166   0.93387
 Alpha virt. eigenvalues --    0.95075   0.96171   0.96717   0.97572   0.97939
 Alpha virt. eigenvalues --    0.98596   1.00297   1.01180   1.01353   1.03232
 Alpha virt. eigenvalues --    1.03942   1.04635   1.06723   1.06845   1.08403
 Alpha virt. eigenvalues --    1.09529   1.09692   1.10200   1.12010   1.13302
 Alpha virt. eigenvalues --    1.14502   1.15642   1.16076   1.17219   1.17715
 Alpha virt. eigenvalues --    1.20618   1.21315   1.21577   1.23953   1.25578
 Alpha virt. eigenvalues --    1.26102   1.27177   1.28376   1.28791   1.29866
 Alpha virt. eigenvalues --    1.33487   1.34073   1.35881   1.36645   1.37405
 Alpha virt. eigenvalues --    1.38127   1.38297   1.39754   1.40265   1.40624
 Alpha virt. eigenvalues --    1.42694   1.43029   1.45842   1.48925   1.50020
 Alpha virt. eigenvalues --    1.52097   1.52979   1.55990   1.59395   1.62013
 Alpha virt. eigenvalues --    1.64437   1.65392   1.67856   1.68931   1.71497
 Alpha virt. eigenvalues --    1.71608   1.73304   1.77578   1.79120   1.79926
 Alpha virt. eigenvalues --    1.81910   1.83553   1.85115   1.85381   1.86773
 Alpha virt. eigenvalues --    1.86948   1.88534   1.89168   1.89316   1.89992
 Alpha virt. eigenvalues --    1.90915   1.92408   1.92475   1.93362   1.94408
 Alpha virt. eigenvalues --    1.97285   1.97357   1.98359   2.00236   2.00404
 Alpha virt. eigenvalues --    2.02431   2.02707   2.03602   2.04496   2.04900
 Alpha virt. eigenvalues --    2.08282   2.09283   2.10083   2.10885   2.11668
 Alpha virt. eigenvalues --    2.12046   2.13444   2.13944   2.14817   2.15847
 Alpha virt. eigenvalues --    2.17518   2.20149   2.21603   2.23663   2.24739
 Alpha virt. eigenvalues --    2.25723   2.27680   2.28712   2.31758   2.32894
 Alpha virt. eigenvalues --    2.33353   2.34220   2.36638   2.36836   2.38525
 Alpha virt. eigenvalues --    2.39239   2.40154   2.41367   2.44501   2.45813
 Alpha virt. eigenvalues --    2.48731   2.49911   2.50681   2.52368   2.53834
 Alpha virt. eigenvalues --    2.54784   2.55516   2.57735   2.58970   2.61032
 Alpha virt. eigenvalues --    2.63426   2.65062   2.67411   2.68586   2.69182
 Alpha virt. eigenvalues --    2.70834   2.71668   2.72812   2.73370   2.74301
 Alpha virt. eigenvalues --    2.75161   2.77588   2.79540   2.81182   2.82750
 Alpha virt. eigenvalues --    2.85824   2.87814   2.88301   2.88773   2.89867
 Alpha virt. eigenvalues --    2.90496   2.93646   2.96920   3.01922   3.02935
 Alpha virt. eigenvalues --    3.06384   3.09280   3.10925   3.14009   3.22891
 Alpha virt. eigenvalues --    3.25302   3.25668   3.25758   3.26970   3.29479
 Alpha virt. eigenvalues --    3.34026   3.34864   3.38782   3.41850   3.44408
 Alpha virt. eigenvalues --    3.46318   3.47150   3.49624   3.49846   3.50462
 Alpha virt. eigenvalues --    3.54397   3.57214   3.83821   4.16532   4.27522
 Alpha virt. eigenvalues --    4.31382   4.32450   4.36788   4.37764   4.43028
 Alpha virt. eigenvalues --    4.45148   4.49604   4.52267   4.52481   4.58567
 Alpha virt. eigenvalues --    4.67530   4.71667   4.78403   4.88400   4.98250
          Condensed to atoms (all electrons):
               1          2          3          4          5          6
     1  C    5.336168   0.035535  -0.085755  -0.024483   0.026684  -0.028472
     2  C    0.035535   6.116795   0.072854  -0.273072   0.151682   0.053424
     3  C   -0.085755   0.072854   5.282929  -0.008077   0.020370  -0.005185
     4  C   -0.024483  -0.273072  -0.008077   6.250283  -0.518221  -0.050858
     5  C    0.026684   0.151682   0.020370  -0.518221   6.550939   0.141280
     6  N   -0.028472   0.053424  -0.005185  -0.050858   0.141280   9.319357
     7  C    0.003118  -0.028271   0.007656  -0.039713   0.314244  -1.480874
     8  C   -0.015329  -0.008534   0.000702   0.060344  -0.499519   0.291910
     9  N    0.000148  -0.001968   0.000933   0.002406   0.012166  -0.049272
    10  C    0.015425  -0.044287   0.001917   0.014037  -0.316854  -1.517401
    11  C    0.008684  -0.016445  -0.000327   0.037501   0.393587  -0.965540
    12  C   -0.000114  -0.001187   0.000009   0.003704  -0.065407  -0.206383
    13  C   -0.000389   0.001746   0.000006   0.001448   0.020120   0.095259
    14  C   -0.000581  -0.000880   0.000504   0.009404   0.003474  -0.096960
    15  C   -0.026086   0.038527  -0.002306  -0.100049  -0.459772   3.617300
    16  N    0.021008  -0.061683   0.001613   0.134229  -0.178644  -1.708859
    17  O    0.011464  -0.023977   0.002013   0.013719   0.013496  -0.297634
    18  H    0.425802  -0.088910  -0.000566   0.032005  -0.009421   0.000313
    19  H    0.444350  -0.109406  -0.002646   0.000744   0.012494  -0.000077
    20  H    0.411750  -0.048546   0.006710  -0.008637  -0.002366   0.000185
    21  H   -0.000982   0.295974  -0.008713  -0.028657   0.019143   0.000968
    22  H    0.007815  -0.057326   0.414960  -0.001609  -0.002051  -0.001221
    23  H   -0.000271  -0.075542   0.417242   0.028988  -0.012882   0.000626
    24  H   -0.000792  -0.121594   0.445059  -0.000807   0.026598   0.000040
    25  H    0.008821  -0.005591  -0.026348   0.368548  -0.002046   0.000324
    26  H   -0.028432  -0.000805   0.005979   0.385621  -0.040044   0.019107
    27  H    0.010980   0.002692  -0.010704  -0.060935   0.428148  -0.049665
    28  H   -0.010490   0.006906   0.009926  -0.032485   0.354476  -0.027860
    29  H    0.000000  -0.000002  -0.000001   0.000040  -0.000417   0.000633
    30  H   -0.000000   0.000000  -0.000000  -0.000004   0.000009   0.000574
    31  H    0.000000   0.000001   0.000000   0.000009   0.000093   0.001041
    32  H    0.000004  -0.000024  -0.000002  -0.000279  -0.000112  -0.004768
               7          8          9         10         11         12
     1  C    0.003118  -0.015329   0.000148   0.015425   0.008684  -0.000114
     2  C   -0.028271  -0.008534  -0.001968  -0.044287  -0.016445  -0.001187
     3  C    0.007656   0.000702   0.000933   0.001917  -0.000327   0.000009
     4  C   -0.039713   0.060344   0.002406   0.014037   0.037501   0.003704
     5  C    0.314244  -0.499519   0.012166  -0.316854   0.393587  -0.065407
     6  N   -1.480874   0.291910  -0.049272  -1.517401  -0.965540  -0.206383
     7  C   14.255617  -5.278760   0.392071  -3.531251   6.442890   0.303115
     8  C   -5.278760  11.512902  -0.220542   0.776960  -1.976616  -0.040455
     9  N    0.392071  -0.220542   7.489555  -0.179927   0.169357   0.007100
    10  C   -3.531251   0.776960  -0.179927  21.400453 -10.358730   0.004166
    11  C    6.442890  -1.976616   0.169357 -10.358730  18.293605  -0.091270
    12  C    0.303115  -0.040455   0.007100   0.004166  -0.091270   6.488539
    13  C    0.106999  -0.120706   0.004156  -1.194342   0.797469   0.162235
    14  C   -0.197025   0.780061  -0.014070  -1.836935   1.357689  -0.217375
    15  C   -7.402953   1.019024  -0.063863  -0.011850  -8.802812  -0.388791
    16  N    1.120697  -0.218377   0.046254   0.775551   0.991567   0.116126
    17  O    0.125590  -0.050983   0.000219   0.264166   0.022976  -0.014330
    18  H   -0.000106  -0.000290   0.000003   0.000115   0.000007  -0.000000
    19  H   -0.001624   0.000322  -0.000002   0.000566   0.000073  -0.000001
    20  H    0.001557  -0.000450   0.000002  -0.000566  -0.000031  -0.000002
    21  H   -0.003381  -0.000099  -0.000028   0.001006   0.000212  -0.000001
    22  H   -0.005689   0.002809   0.000041  -0.000381  -0.000141  -0.000009
    23  H   -0.000786   0.001243  -0.000009   0.000001  -0.000011   0.000000
    24  H    0.003086  -0.004875   0.000038   0.000109   0.000248  -0.000002
    25  H   -0.066823   0.044404  -0.001920  -0.012762  -0.001472  -0.000686
    26  H    0.037664  -0.023837   0.000356   0.000567  -0.001171   0.000102
    27  H   -0.007127   0.008406  -0.000041  -0.002877  -0.000222  -0.000447
    28  H    0.058441  -0.053053   0.005508   0.007816  -0.002576   0.000444
    29  H   -0.091899   0.028967   0.000444   0.171326   0.169056  -0.036675
    30  H   -0.010546   0.000474  -0.000009   0.036499   0.013862   0.251113
    31  H    0.002539   0.000487  -0.000001  -0.018208   0.022194  -0.003614
    32  H   -0.005893  -0.003274   0.000007   0.061790  -0.033090   0.009456
              13         14         15         16         17         18
     1  C   -0.000389  -0.000581  -0.026086   0.021008   0.011464   0.425802
     2  C    0.001746  -0.000880   0.038527  -0.061683  -0.023977  -0.088910
     3  C    0.000006   0.000504  -0.002306   0.001613   0.002013  -0.000566
     4  C    0.001448   0.009404  -0.100049   0.134229   0.013719   0.032005
     5  C    0.020120   0.003474  -0.459772  -0.178644   0.013496  -0.009421
     6  N    0.095259  -0.096960   3.617300  -1.708859  -0.297634   0.000313
     7  C    0.106999  -0.197025  -7.402953   1.120697   0.125590  -0.000106
     8  C   -0.120706   0.780061   1.019024  -0.218377  -0.050983  -0.000290
     9  N    0.004156  -0.014070  -0.063863   0.046254   0.000219   0.000003
    10  C   -1.194342  -1.836935  -0.011850   0.775551   0.264166   0.000115
    11  C    0.797469   1.357689  -8.802812   0.991567   0.022976   0.000007
    12  C    0.162235  -0.217375  -0.388791   0.116126  -0.014330  -0.000000
    13  C    5.728966   0.678436  -0.484956   0.104125   0.014125  -0.000000
    14  C    0.678436   8.187832  -2.765051   0.545253  -0.087987  -0.000027
    15  C   -0.484956  -2.765051  26.803354  -3.845872  -0.395407  -0.000129
    16  N    0.104125   0.545253  -3.845872   8.764637   0.558995  -0.000044
    17  O    0.014125  -0.087987  -0.395407   0.558995   7.864259   0.000019
    18  H   -0.000000  -0.000027  -0.000129  -0.000044   0.000019   0.552047
    19  H    0.000001   0.000134  -0.000266   0.001357  -0.000244  -0.029353
    20  H    0.000006  -0.000196   0.001058  -0.002692   0.000516  -0.026185
    21  H   -0.000005  -0.000047  -0.001138   0.000055   0.000072  -0.004856
    22  H    0.000000   0.000066   0.000555   0.000221  -0.000014   0.000047
    23  H    0.000000   0.000013   0.000091   0.000095   0.000000   0.002576
    24  H   -0.000001  -0.000093  -0.000865  -0.000660   0.000024  -0.000241
    25  H   -0.000089   0.005261   0.007530   0.003624  -0.001496  -0.000129
    26  H   -0.000257  -0.013491   0.009734  -0.027605   0.002720   0.000073
    27  H   -0.000310   0.004187  -0.002854   0.021297  -0.007390  -0.000040
    28  H   -0.000018  -0.004127   0.010871  -0.008019   0.000966   0.000003
    29  H   -0.010010  -0.013704   0.090032  -0.002103   0.000013  -0.000000
    30  H    0.003855  -0.011614   0.031834  -0.000223  -0.000001   0.000000
    31  H    0.298347   0.010434   0.004040  -0.001107  -0.000098  -0.000000
    32  H   -0.055190   0.238296   0.127630  -0.032481   0.011304   0.000000
              19         20         21         22         23         24
     1  C    0.444350   0.411750  -0.000982   0.007815  -0.000271  -0.000792
     2  C   -0.109406  -0.048546   0.295974  -0.057326  -0.075542  -0.121594
     3  C   -0.002646   0.006710  -0.008713   0.414960   0.417242   0.445059
     4  C    0.000744  -0.008637  -0.028657  -0.001609   0.028988  -0.000807
     5  C    0.012494  -0.002366   0.019143  -0.002051  -0.012882   0.026598
     6  N   -0.000077   0.000185   0.000968  -0.001221   0.000626   0.000040
     7  C   -0.001624   0.001557  -0.003381  -0.005689  -0.000786   0.003086
     8  C    0.000322  -0.000450  -0.000099   0.002809   0.001243  -0.004875
     9  N   -0.000002   0.000002  -0.000028   0.000041  -0.000009   0.000038
    10  C    0.000566  -0.000566   0.001006  -0.000381   0.000001   0.000109
    11  C    0.000073  -0.000031   0.000212  -0.000141  -0.000011   0.000248
    12  C   -0.000001  -0.000002  -0.000001  -0.000009   0.000000  -0.000002
    13  C    0.000001   0.000006  -0.000005   0.000000   0.000000  -0.000001
    14  C    0.000134  -0.000196  -0.000047   0.000066   0.000013  -0.000093
    15  C   -0.000266   0.001058  -0.001138   0.000555   0.000091  -0.000865
    16  N    0.001357  -0.002692   0.000055   0.000221   0.000095  -0.000660
    17  O   -0.000244   0.000516   0.000072  -0.000014   0.000000   0.000024
    18  H   -0.029353  -0.026185  -0.004856   0.000047   0.002576  -0.000241
    19  H    0.565409  -0.029126   0.005275   0.000039  -0.000256   0.003453
    20  H   -0.029126   0.542933  -0.003498  -0.000141   0.000047   0.000040
    21  H    0.005275  -0.003498   0.606893  -0.003551  -0.004841   0.005324
    22  H    0.000039  -0.000141  -0.003551   0.547040  -0.025910  -0.029882
    23  H   -0.000256   0.000047  -0.004841  -0.025910   0.550183  -0.028889
    24  H    0.003453   0.000040   0.005324  -0.029882  -0.028889   0.565490
    25  H   -0.000093   0.000051  -0.005104   0.002821   0.000064  -0.000154
    26  H   -0.000193   0.002944  -0.004974   0.000037  -0.000118  -0.000090
    27  H   -0.000901   0.000138  -0.000074   0.000066   0.000003  -0.000029
    28  H   -0.000053   0.000063  -0.000091  -0.000004  -0.000029  -0.000998
    29  H    0.000000  -0.000000  -0.000000   0.000000  -0.000000   0.000000
    30  H   -0.000000   0.000000   0.000000  -0.000000  -0.000000   0.000000
    31  H    0.000000   0.000000  -0.000000   0.000000   0.000000  -0.000000
    32  H   -0.000000  -0.000000  -0.000000   0.000000  -0.000000   0.000000
              25         26         27         28         29         30
     1  C    0.008821  -0.028432   0.010980  -0.010490   0.000000  -0.000000
     2  C   -0.005591  -0.000805   0.002692   0.006906  -0.000002   0.000000
     3  C   -0.026348   0.005979  -0.010704   0.009926  -0.000001  -0.000000
     4  C    0.368548   0.385621  -0.060935  -0.032485   0.000040  -0.000004
     5  C   -0.002046  -0.040044   0.428148   0.354476  -0.000417   0.000009
     6  N    0.000324   0.019107  -0.049665  -0.027860   0.000633   0.000574
     7  C   -0.066823   0.037664  -0.007127   0.058441  -0.091899  -0.010546
     8  C    0.044404  -0.023837   0.008406  -0.053053   0.028967   0.000474
     9  N   -0.001920   0.000356  -0.000041   0.005508   0.000444  -0.000009
    10  C   -0.012762   0.000567  -0.002877   0.007816   0.171326   0.036499
    11  C   -0.001472  -0.001171  -0.000222  -0.002576   0.169056   0.013862
    12  C   -0.000686   0.000102  -0.000447   0.000444  -0.036675   0.251113
    13  C   -0.000089  -0.000257  -0.000310  -0.000018  -0.010010   0.003855
    14  C    0.005261  -0.013491   0.004187  -0.004127  -0.013704  -0.011614
    15  C    0.007530   0.009734  -0.002854   0.010871   0.090032   0.031834
    16  N    0.003624  -0.027605   0.021297  -0.008019  -0.002103  -0.000223
    17  O   -0.001496   0.002720  -0.007390   0.000966   0.000013  -0.000001
    18  H   -0.000129   0.000073  -0.000040   0.000003  -0.000000   0.000000
    19  H   -0.000093  -0.000193  -0.000901  -0.000053   0.000000  -0.000000
    20  H    0.000051   0.002944   0.000138   0.000063  -0.000000   0.000000
    21  H   -0.005104  -0.004974  -0.000074  -0.000091  -0.000000   0.000000
    22  H    0.002821   0.000037   0.000066  -0.000004   0.000000  -0.000000
    23  H    0.000064  -0.000118   0.000003  -0.000029  -0.000000  -0.000000
    24  H   -0.000154  -0.000090  -0.000029  -0.000998   0.000000   0.000000
    25  H    0.563590  -0.030189   0.004446  -0.006125   0.000000   0.000000
    26  H   -0.030189   0.534470  -0.005227   0.004714  -0.000000  -0.000000
    27  H    0.004446  -0.005227   0.506692  -0.029000   0.000000   0.000000
    28  H   -0.006125   0.004714  -0.029000   0.548498  -0.000000  -0.000000
    29  H    0.000000  -0.000000   0.000000  -0.000000   0.549417  -0.004794
    30  H    0.000000  -0.000000   0.000000  -0.000000  -0.004794   0.560299
    31  H    0.000000   0.000000  -0.000000   0.000000  -0.000136  -0.005213
    32  H   -0.000000  -0.000000   0.000000  -0.000000   0.000013  -0.000129
              31         32
     1  C    0.000000   0.000004
     2  C    0.000001  -0.000024
     3  C    0.000000  -0.000002
     4  C    0.000009  -0.000279
     5  C    0.000093  -0.000112
     6  N    0.001041  -0.004768
     7  C    0.002539  -0.005893
     8  C    0.000487  -0.003274
     9  N   -0.000001   0.000007
    10  C   -0.018208   0.061790
    11  C    0.022194  -0.033090
    12  C   -0.003614   0.009456
    13  C    0.298347  -0.055190
    14  C    0.010434   0.238296
    15  C    0.004040   0.127630
    16  N   -0.001107  -0.032481
    17  O   -0.000098   0.011304
    18  H   -0.000000   0.000000
    19  H    0.000000  -0.000000
    20  H    0.000000  -0.000000
    21  H   -0.000000  -0.000000
    22  H    0.000000   0.000000
    23  H    0.000000  -0.000000
    24  H   -0.000000   0.000000
    25  H    0.000000  -0.000000
    26  H    0.000000  -0.000000
    27  H   -0.000000   0.000000
    28  H    0.000000  -0.000000
    29  H   -0.000136   0.000013
    30  H   -0.005213  -0.000129
    31  H    0.558730  -0.004411
    32  H   -0.004411   0.530927
 Mulliken charges:
               1
     1  C   -0.545581
     2  C    0.191913
     3  C   -0.540750
     4  C   -0.195142
     5  C   -0.381246
     6  N   -0.051313
     7  C    0.977438
     8  C   -0.013319
     9  N   -0.599112
    10  C    1.493901
    11  C   -0.470523
    12  C   -0.279359
    13  C   -0.151025
    14  C   -0.560882
    15  C   -1.006560
    16  N   -0.118337
    17  O   -0.027095
    18  H    0.147287
    19  H    0.140022
    20  H    0.154437
    21  H    0.135118
    22  H    0.151410
    23  H    0.148372
    24  H    0.140464
    25  H    0.151544
    26  H    0.172344
    27  H    0.190785
    28  H    0.166296
    29  H    0.149800
    30  H    0.134013
    31  H    0.134875
    32  H    0.160226
 Sum of Mulliken charges =  -0.00000
 Mulliken charges with hydrogens summed into heavy atoms:
               1
     1  C   -0.103834
     2  C    0.327030
     3  C   -0.100505
     4  C    0.128746
     5  C   -0.024165
     6  N   -0.051313
     7  C    0.977438
     8  C   -0.013319
     9  N   -0.599112
    10  C    1.493901
    11  C   -0.320723
    12  C   -0.145346
    13  C   -0.016150
    14  C   -0.400657
    15  C   -1.006560
    16  N   -0.118337
    17  O   -0.027095
 Electronic spatial extent (au):  <R**2>=           4864.5353
 Charge=             -0.0000 electrons
 Dipole moment (field-independent basis, Debye):
    X=              0.7500    Y=             -1.2380    Z=              0.6181  Tot=              1.5739
 Quadrupole moment (field-independent basis, Debye-Ang):
   XX=            -81.5715   YY=           -122.6970   ZZ=           -103.3439
   XY=              0.9386   XZ=              1.0151   YZ=             -0.3665
 Traceless Quadrupole moment (field-independent basis, Debye-Ang):
   XX=             20.9660   YY=            -20.1595   ZZ=             -0.8065
   XY=              0.9386   XZ=              1.0151   YZ=             -0.3665
 Octapole moment (field-independent basis, Debye-Ang**2):
  XXX=             35.3766  YYY=            -67.1995  ZZZ=             -3.9294  XYY=             22.5744
  XXY=            -10.8591  XXZ=             12.0935  XZZ=            -15.4840  YZZ=             -3.4833
  YYZ=             10.0477  XYZ=              0.9882
 Hexadecapole moment (field-independent basis, Debye-Ang**3):
 XXXX=          -4645.4983 YYYY=          -1798.9227 ZZZZ=           -240.0506 XXXY=             -7.7948
 XXXZ=             29.1051 YYYX=             12.6214 YYYZ=             13.6033 ZZZX=             -8.8971
 ZZZY=              4.1915 XXYY=          -1035.7586 XXZZ=           -930.6063 YYZZ=           -297.6479
 XXYZ=              0.8378 YYXZ=             -0.3046 ZZXY=              2.5015
 N-N= 1.155281051866D+03 E-N=-4.035212930957D+03  KE= 7.367787079457D+02
 Unable to Open any file for archive entry.
 1\1\GINC-N2\SP\RB3LYP TD-FC\6-31+G(d,p)\C13H15N3O1\HPCMGAC13\05-Aug-20
 25\0\\# td=(50-50,nstates=3) b3lyp/6-31+g(d,p) geom=connectivity\\Titl
 e Card Required\\0,1\C,0,4.31565,-1.53447,0.169301\C,0,3.852007,-0.320
 229,-0.652918\C,0,4.468398,0.985537,-0.123628\C,0,2.313839,-0.243689,-
 0.785888\C,0,1.570354,-0.040719,0.544392\N,0,0.121148,0.010869,0.35648
 3\C,0,-0.710946,1.101117,0.188116\C,0,-0.231843,2.422956,0.223065\N,0,
 0.153891,3.525348,0.247853\C,0,-2.01593,0.601804,0.008576\C,0,-3.28962
 8,1.185139,-0.201123\C,0,-4.373431,0.342061,-0.335261\C,0,-4.24026,-1.
 077709,-0.267826\C,0,-3.014167,-1.676336,-0.063777\C,0,-1.910063,-0.81
 4234,0.071976\N,0,-0.59506,-1.145365,0.28087\O,0,-0.055453,-2.28939,0.
 402672\H,0,5.405106,-1.637832,0.120887\H,0,4.048538,-1.437698,1.228368
 \H,0,3.872023,-2.464238,-0.202969\H,0,4.22212,-0.461871,-1.678116\H,0,
 4.139807,1.852144,-0.708237\H,0,5.561787,0.943472,-0.17448\H,0,4.20344
 6,1.168526,0.924709\H,0,2.051907,0.58218,-1.4591\H,0,1.944917,-1.16866
 5,-1.242746\H,0,1.755446,-0.866886,1.233945\H,0,1.845579,0.898796,1.02
 7943\H,0,-3.401819,2.263094,-0.253415\H,0,-5.359691,0.766113,-0.49728\
 H,0,-5.126166,-1.694608,-0.379754\H,0,-2.883099,-2.750746,-0.007602\\V
 ersion=ES64L-G16RevC.02\State=1-A\HF=-743.8541054\RMSD=3.014e-09\PG=C0
 1 [X(C13H15N3O1)]\\@
 The archive entry for this job was punched.


 THE REASON MAN'S BEST FRIEND IS A DOG IS BECAUSE
 HE WAGS HIS TAIL INSTEAD OF HIS TONGUE.
 Job cpu time:       0 days  1 hours 38 minutes 30.5 seconds.
 Elapsed time:       0 days  0 hours  6 minutes 20.4 seconds.
 File lengths (MBytes):  RWF=    895 Int=      0 D2E=      0 Chk=     42 Scr=      2
 Normal termination of Gaussian 16 at Tue Aug  5 22:45:54 2025.
