 Entering Gaussian System, Link 0=g16
 Input=M1966E.gjf
 Output=M1966E.log
 Initial command:
 /hpc/softwares/Gaussian/g16/l1.exe "/hpc/home/hpcmgac13/pbs.14146.admin1.x8z/Gau-4019165.inp" -scrdir="/hpc/home/hpcmgac13/pbs.14146.admin1.x8z/"
 Default linda workers: n2
 Default is to use   8 SMP processors on each worker.
 Entering Link 1 = /hpc/softwares/Gaussian/g16/l1.exe PID=   4019166.
  
 Copyright (c) 1988-2021, Gaussian, Inc.  All Rights Reserved.
  
 This is part of the Gaussian(R) 16 program.  It is based on
 the Gaussian(R) 09 system (copyright 2009, Gaussian, Inc.),
 the Gaussian(R) 03 system (copyright 2003, Gaussian, Inc.),
 the Gaussian(R) 98 system (copyright 1998, Gaussian, Inc.),
 the Gaussian(R) 94 system (copyright 1995, Gaussian, Inc.),
 the Gaussian 92(TM) system (copyright 1992, Gaussian, Inc.),
 the Gaussian 90(TM) system (copyright 1990, Gaussian, Inc.),
 the Gaussian 88(TM) system (copyright 1988, Gaussian, Inc.),
 the Gaussian 86(TM) system (copyright 1986, Carnegie Mellon
 University), and the Gaussian 82(TM) system (copyright 1983,
 Carnegie Mellon University). Gaussian is a federally registered
 trademark of Gaussian, Inc.
  
 This software contains proprietary and confidential information,
 including trade secrets, belonging to Gaussian, Inc.
  
 This software is provided under written license and may be
 used, copied, transmitted, or stored only in accord with that
 written license.
  
 The following legend is applicable only to US Government
 contracts under FAR:
  
                    RESTRICTED RIGHTS LEGEND
  
 Use, reproduction and disclosure by the US Government is
 subject to restrictions as set forth in subparagraphs (a)
 and (c) of the Commercial Computer Software - Restricted
 Rights clause in FAR 52.227-19.
  
 Gaussian, Inc.
 340 Quinnipiac St., Bldg. 40, Wallingford CT 06492
  
  
 ---------------------------------------------------------------
 Warning -- This program may not be used in any manner that
 competes with the business of Gaussian, Inc. or will provide
 assistance to any competitor of Gaussian, Inc.  The licensee
 of this program is prohibited from giving any competitor of
 Gaussian, Inc. access to this program.  By using this program,
 the user acknowledges that Gaussian, Inc. is engaged in the
 business of creating and licensing software in the field of
 computational chemistry and represents and warrants to the
 licensee that it is not a competitor of Gaussian, Inc. and that
 it will not use this program in any manner prohibited above.
 ---------------------------------------------------------------
  

 Cite this work as:
 Gaussian 16, Revision C.02,
 M. J. Frisch, G. W. Trucks, H. B. Schlegel, G. E. Scuseria, 
 M. A. Robb, J. R. Cheeseman, G. Scalmani, V. Barone, 
 G. A. Petersson, H. Nakatsuji, X. Li, M. Caricato, A. V. Marenich, 
 J. Bloino, B. G. Janesko, R. Gomperts, B. Mennucci, H. P. Hratchian, 
 J. V. Ortiz, A. F. Izmaylov, J. L. Sonnenberg, D. Williams-Young, 
 F. Ding, F. Lipparini, F. Egidi, J. Goings, B. Peng, A. Petrone, 
 T. Henderson, D. Ranasinghe, V. G. Zakrzewski, J. Gao, N. Rega, 
 G. Zheng, W. Liang, M. Hada, M. Ehara, K. Toyota, R. Fukuda, 
 J. Hasegawa, M. Ishida, T. Nakajima, Y. Honda, O. Kitao, H. Nakai, 
 T. Vreven, K. Throssell, J. A. Montgomery, Jr., J. E. Peralta, 
 F. Ogliaro, M. J. Bearpark, J. J. Heyd, E. N. Brothers, K. N. Kudin, 
 V. N. Staroverov, T. A. Keith, R. Kobayashi, J. Normand, 
 K. Raghavachari, A. P. Rendell, J. C. Burant, S. S. Iyengar, 
 J. Tomasi, M. Cossi, J. M. Millam, M. Klene, C. Adamo, R. Cammi, 
 J. W. Ochterski, R. L. Martin, K. Morokuma, O. Farkas, 
 J. B. Foresman, and D. J. Fox, Gaussian, Inc., Wallingford CT, 2019.
 
 ******************************************
 Gaussian 16:  ES64L-G16RevC.02  7-Dec-2021
                19-Sep-2025 
 ******************************************
 SetLPE:    new flags="-opt 'Tsnet.Node.lindarsharg: ssh'  -nodelist 'n2.head.cm.mguif.local' -env GAUSS_MDEF=2147483648 -env GAUSS_EXEDIR="/hpc/softwares/Gaussian/g16/bsd:/hpc/softwares/Gaussian/g16""
 Will use up to    1 processors via Linda.
 ----------------------------------------------------------
 # td=(50-50,nstates=3) b3lyp/6-31+g(d,p) geom=connectivity
 ----------------------------------------------------------
 1/38=1,57=2,172=1/1;
 2/12=2,17=6,18=5,40=1/2;
 3/5=1,6=6,7=111,11=9,25=1,30=1,74=-5/1,2,3,8;
 4//1;
 5/5=2,38=5/2;
 8/6=1,10=2,108=3/1;
 9/41=3,42=1,48=2,70=2/14;
 6/7=2,8=2,9=2,10=2/1;
 99/5=1,9=1/99;
 -------------------
 Title Card Required
 -------------------
 Symbolic Z-matrix:
 Charge =  0 Multiplicity = 1
 C                    -0.31011   2.64172   2.73076 
 C                    -1.45767   1.6509    2.7289 
 O                    -1.53608   1.06622   1.39825 
 C                    -2.49848   0.12651   1.23347 
 O                    -3.26349  -0.19179   2.12246 
 N                    -2.53842  -0.37225  -0.07001 
 C                    -3.56859  -1.46256  -0.41151 
 C                    -3.28153  -2.06146  -1.80201 
 C                    -3.41104  -2.61396   0.60685 
 C                    -4.9791   -0.85449  -0.37992 
 C                    -1.74968   0.20132  -1.08449 
 O                    -2.18906   0.45032  -2.19288 
 C                    -0.28358   0.48233  -0.83386 
 C                     0.26227   1.75582  -1.09318 
 C                    -0.53178   2.95689  -1.48951 
 N                     1.59591   1.96369  -0.94612 
 O                     2.11646   3.12038  -1.15826 
 C                     2.41595   0.90049  -0.55221 
 C                     3.8003    1.09969  -0.39659 
 C                     4.60408   0.04386  -0.01551 
 C                     4.03261  -1.22833   0.2115 
 Cl                    5.07827  -2.54746   0.69102 
 C                     2.67873  -1.45199   0.06168 
 C                     1.8613   -0.37265  -0.31919 
 N                     0.48442  -0.57459  -0.47577 
 O                    -0.00354  -1.75233  -0.29844 
 H                    -0.23358   3.10126   3.7215 
 H                     0.64233   2.14994   2.51147 
 H                    -0.46845   3.4388    1.99846 
 H                    -2.41537   2.12999   2.95007 
 H                    -1.30701   0.8446    3.45133 
 H                    -3.93779  -2.92838  -1.91979 
 H                    -3.48332  -1.36697  -2.61625 
 H                    -2.24779  -2.41066  -1.87722 
 H                    -4.05986  -3.43738   0.29259 
 H                    -3.69136  -2.32097   1.61634 
 H                    -2.37799  -2.9736    0.60918 
 H                    -5.06885  -0.05536  -1.12231 
 H                    -5.71337  -1.62958  -0.62407 
 H                    -5.21904  -0.457     0.60846 
 H                    -1.5988    2.7508   -1.50033 
 H                    -0.30586   3.78051  -0.80479 
 H                    -0.22295   3.29268  -2.48543 
 H                     4.19694   2.08925  -0.58606 
 H                     5.67212   0.18218   0.10837 
 H                     2.21963  -2.41815   0.2244 
 
                          Input orientation:                          
 ---------------------------------------------------------------------
 Center     Atomic      Atomic             Coordinates (Angstroms)
 Number     Number       Type             X           Y           Z
 ---------------------------------------------------------------------
      1          6           0       -0.310105    2.641715    2.730764
      2          6           0       -1.457673    1.650895    2.728895
      3          8           0       -1.536075    1.066216    1.398248
      4          6           0       -2.498475    0.126513    1.233469
      5          8           0       -3.263487   -0.191791    2.122460
      6          7           0       -2.538420   -0.372245   -0.070009
      7          6           0       -3.568586   -1.462558   -0.411514
      8          6           0       -3.281527   -2.061456   -1.802007
      9          6           0       -3.411039   -2.613960    0.606852
     10          6           0       -4.979102   -0.854485   -0.379920
     11          6           0       -1.749677    0.201317   -1.084492
     12          8           0       -2.189064    0.450321   -2.192883
     13          6           0       -0.283578    0.482325   -0.833861
     14          6           0        0.262273    1.755815   -1.093176
     15          6           0       -0.531783    2.956887   -1.489507
     16          7           0        1.595909    1.963692   -0.946121
     17          8           0        2.116459    3.120380   -1.158263
     18          6           0        2.415945    0.900488   -0.552210
     19          6           0        3.800301    1.099691   -0.396593
     20          6           0        4.604077    0.043858   -0.015514
     21          6           0        4.032609   -1.228330    0.211500
     22         17           0        5.078265   -2.547458    0.691021
     23          6           0        2.678726   -1.451994    0.061678
     24          6           0        1.861301   -0.372652   -0.319191
     25          7           0        0.484423   -0.574585   -0.475768
     26          8           0       -0.003540   -1.752330   -0.298441
     27          1           0       -0.233575    3.101261    3.721501
     28          1           0        0.642328    2.149942    2.511466
     29          1           0       -0.468452    3.438796    1.998457
     30          1           0       -2.415372    2.129992    2.950071
     31          1           0       -1.307007    0.844597    3.451326
     32          1           0       -3.937792   -2.928381   -1.919786
     33          1           0       -3.483321   -1.366972   -2.616248
     34          1           0       -2.247790   -2.410661   -1.877218
     35          1           0       -4.059864   -3.437378    0.292587
     36          1           0       -3.691357   -2.320966    1.616344
     37          1           0       -2.377991   -2.973598    0.609175
     38          1           0       -5.068847   -0.055355   -1.122308
     39          1           0       -5.713367   -1.629578   -0.624072
     40          1           0       -5.219040   -0.457003    0.608458
     41          1           0       -1.598797    2.750795   -1.500325
     42          1           0       -0.305855    3.780512   -0.804792
     43          1           0       -0.222950    3.292676   -2.485425
     44          1           0        4.196940    2.089249   -0.586060
     45          1           0        5.672121    0.182182    0.108366
     46          1           0        2.219634   -2.418146    0.224398
 ---------------------------------------------------------------------
                    Distance matrix (angstroms):
                    1          2          3          4          5
     1  C    0.000000
     2  C    1.516127   0.000000
     3  O    2.400166   1.455547   0.000000
     4  C    3.654736   2.375565   1.355141   0.000000
     5  O    4.137784   2.650324   2.256328   1.215264   0.000000
     6  N    4.679067   3.618698   2.286842   1.396213   2.316291
     7  C    6.110374   4.900175   3.714975   2.525124   2.851133
     8  C    7.176014   6.134906   4.803183   3.822891   4.347116
     9  C    6.461340   5.148562   4.205412   2.955607   2.861074
    10  C    6.610545   5.323732   4.324975   3.117514   3.105544
    11  C    4.752272   4.090044   2.637740   2.437055   3.568010
    12  O    5.707451   5.118614   3.701614   3.455499   4.493204
    13  C    4.167760   3.929031   2.625260   3.050610   4.251367
    14  C    3.966731   4.192547   3.149094   3.961014   5.154073
    15  C    4.237825   4.511962   3.594770   4.392436   5.515676
    16  N    4.196676   4.788314   4.013833   4.988970   6.138080
    17  O    4.608890   5.481223   4.908803   5.998436   7.118809
    18  C    4.608811   5.131635   4.410240   5.285755   6.372039
    19  C    5.390143   6.141563   5.630229   6.578659   7.609905
    20  C    6.200007   6.845375   6.383213   7.212006   8.156288
    21  C    6.339014   6.691069   6.138693   6.747968   7.613094
    22  Cl   7.753876   8.031039   7.570225   8.053034   8.785386
    23  C    5.728489   5.818227   5.088452   5.537887   6.414424
    24  C    4.806624   4.939753   4.069656   4.654843   5.679597
    25  N    4.610608   4.358252   3.207269   3.508662   4.576478
    26  O    5.345811   4.781339   3.629272   3.478721   4.350092
    27  H    1.094806   2.141785   3.351928   4.491013   4.751999
    28  H    1.094103   2.169407   2.675660   3.948694   4.570605
    29  H    1.093931   2.169951   2.670057   3.959472   4.583531
    30  H    2.177638   1.093453   2.076761   2.639613   2.606706
    31  H    2.177764   1.093034   2.077671   2.618039   2.582208
    32  H    8.112564   6.980759   5.721398   4.620284   4.927815
    33  H    7.397933   6.463848   5.082160   4.245084   4.887201
    34  H    7.107364   6.191672   4.829481   4.021998   4.685344
    35  H    7.547236   6.212690   5.279617   4.003063   3.810051
    36  H    6.107618   4.690714   4.020673   2.749493   2.229935
    37  H    6.348939   5.169732   4.201375   3.164640   3.288250
    38  H    6.690738   5.548300   4.482366   3.491357   3.715704
    39  H    7.661208   6.333626   5.367201   4.107292   3.951276
    40  H    6.180929   4.804932   4.063028   2.851772   2.487313
    41  H    4.424335   4.372185   3.353128   3.894856   4.955257
    42  H    3.714436   4.283561   3.705972   4.723748   5.752876
    43  H    5.257373   5.604384   4.665226   5.388207   6.528321
    44  H    5.623166   6.569302   6.152360   7.210520   8.258159
    45  H    6.979492   7.736812   7.375866   8.247884   9.167416
    46  H    6.187378   6.029277   5.255859   5.454729   6.214814
                    6          7          8          9         10
     6  N    0.000000
     7  C    1.538392   0.000000
     8  C    2.530901   1.540958   0.000000
     9  C    2.498978   1.545192   2.474800   0.000000
    10  C    2.507096   1.536329   2.522077   2.555052   0.000000
    11  C    1.407219   2.555349   2.825161   3.680564   3.469917
    12  O    2.303315   2.955582   2.766818   4.326841   3.574027
    13  C    2.529441   3.840862   4.049176   4.630729   4.903169
    14  C    3.663249   5.049561   5.256664   5.956362   5.898679
    15  C    4.138198   5.469528   5.730839   6.612048   5.961240
    16  N    4.828752   6.220691   6.381515   6.959609   7.175895
    17  O    5.920357   7.340347   7.510265   8.157912   8.170211
    18  C    5.137908   6.435712   6.541887   6.902790   7.602390
    19  C    6.515569   7.801656   7.881645   8.173220   8.994276
    20  C    7.154815   8.319767   8.355038   8.467197   9.632089
    21  C    6.632537   7.630280   7.631834   7.581832   9.038831
    22  Cl   7.957676   8.784112   8.737134   8.489982  10.254936
    23  C    5.329335   6.265216   6.274502   6.223553   7.693787
    24  C    4.406772   5.538961   5.612440   5.803325   6.857621
    25  N    3.056659   4.149639   4.260525   4.528326   5.471530
    26  O    2.895243   3.578590   3.619595   3.629464   5.056578
    27  H    5.634989   7.002325   8.151859   7.243001   7.415498
    28  H    4.810675   6.271026   7.192952   6.538509   6.999084
    29  H    4.804930   6.280292   7.253254   6.872499   6.665951
    30  H    3.923928   5.053372   6.395366   5.383968   5.154479
    31  H    3.923886   5.035796   6.319919   4.947686   5.572217
    32  H    3.451630   2.135377   1.093670   2.600044   2.785060
    33  H    2.892344   2.208452   1.089044   3.456671   2.738826
    34  H    2.739637   2.188993   1.093715   2.750470   3.481903
    35  H    3.441120   2.153376   2.624175   1.094419   2.822871
    36  H    2.823219   2.205481   3.452598   1.087887   2.791760
    37  H    2.693337   2.177743   2.731699   1.093862   3.497817
    38  H    2.758770   2.176288   2.771452   3.504965   1.094442
    39  H    3.459503   2.161750   2.736402   2.790143   1.095228
    40  H    2.766446   2.185288   3.484045   2.814486   1.091995
    41  H    3.561190   4.776811   5.106893   6.041938   5.067525
    42  H    4.771755   6.187880   6.631565   7.247357   6.595677
    43  H    4.962588   6.173057   6.203925   7.390158   6.652299
    44  H    7.189599   8.541030   8.639117   9.023556   9.638870
    45  H    8.231172   9.400325   9.426094   9.516864  10.712687
    46  H    5.187626   5.900934   5.873357   5.647043   7.391349
                   11         12         13         14         15
    11  C    0.000000
    12  O    1.218029   0.000000
    13  C    1.513680   2.340693   0.000000
    14  C    2.542535   2.987093   1.409601   0.000000
    15  C    3.039814   3.086129   2.571951   1.493378   0.000000
    16  N    3.783921   4.262714   2.395730   1.357727   2.410141
    17  O    4.844933   5.170801   3.581166   2.303102   2.673881
    18  C    4.257296   4.909233   2.746200   2.379607   3.714351
    19  C    5.664145   6.286560   4.153362   3.665156   4.838449
    20  C    6.444975   7.145132   4.975049   4.789928   6.085676
    21  C    6.095762   6.878091   4.759054   4.982242   6.422082
    22  Cl   7.571592   8.373628   6.344621   6.700395   8.156295
    23  C    4.863938   5.691856   3.649497   4.178872   5.670253
    24  C    3.735544   4.538002   2.365666   2.772420   4.264073
    25  N    2.442083   3.338630   1.354664   2.421014   3.812038
    26  O    2.735618   3.635533   2.314904   3.606846   4.886144
    27  H    5.814276   6.769886   5.254774   5.023664   5.221530
    28  H    4.738116   5.747729   3.850904   3.645987   4.247056
    29  H    4.650525   5.427598   4.098405   3.595077   3.521667
    30  H    4.521132   5.415024   4.645158   4.863912   4.893007
    31  H    4.602544   5.726305   4.420574   4.893409   5.429049
    32  H    3.909037   3.814218   5.115215   6.345512   6.813400
    33  H    2.794875   2.270879   4.103067   5.108916   5.355080
    34  H    2.774700   2.878943   3.649122   4.926932   5.648502
    35  H    4.524755   4.979122   5.558174   6.897134   7.517303
    36  H    4.174512   4.944404   5.047267   6.292284   6.890932
    37  H    3.652858   4.428368   4.290958   5.677706   6.556188
    38  H    3.329294   3.113678   4.824013   5.630455   5.458332
    39  H    4.390330   4.382677   5.829816   6.883983   6.973769
    40  H    3.916113   4.225104   5.226988   6.151172   6.166561
    41  H    2.587570   2.473910   2.705537   2.149264   1.086789
    42  H    3.869560   4.069821   3.298390   2.122577   1.094640
    43  H    3.721560   3.468453   3.260278   2.129728   1.095438
    44  H    6.258992   6.785942   4.766409   3.981199   4.891813
    45  H    7.517071   8.195479   6.037237   5.760771   6.981448
    46  H    4.932566   5.788607   3.974760   4.794707   6.276842
                   16         17         18         19         20
    16  N    0.000000
    17  O    1.286042   0.000000
    18  C    1.399295   2.320541   0.000000
    19  C    2.430601   2.738366   1.407246   0.000000
    20  C    3.687935   4.118144   2.410348   1.380601   0.000000
    21  C    4.179306   4.945620   2.780058   2.417318   1.413002
    22  Cl   5.929377   6.657066   4.530111   4.014697   2.727447
    23  C    3.722239   4.765606   2.445421   2.824719   2.439366
    24  C    2.433511   3.601447   1.408124   2.435879   2.790792
    25  N    2.810602   4.096597   2.431555   3.715443   4.191164
    26  O    4.097139   5.383028   3.599410   4.755299   4.953430
    27  H    5.140795   5.416191   5.488895   6.102224   6.834901
    28  H    3.591506   4.072066   3.754060   4.419573   5.149434
    29  H    3.886909   4.092436   4.611795   5.424936   6.427459
    30  H    5.594492   6.196513   6.092559   7.134162   7.900589
    31  H    5.386728   6.176376   5.467339   6.399699   6.899353
    32  H    7.449983   8.591937   7.543240   8.855708   9.242510
    33  H    6.299303   7.322539   6.648531   8.003902   8.611635
    34  H    5.897112   7.082089   5.871097   7.148023   7.512569
    35  H    7.917937   9.124479   7.840081   9.101767   9.342259
    36  H    7.271843   8.428370   7.237370   8.478075   8.778928
    37  H    6.525922   7.775634   6.272095   7.468236   7.631812
    38  H    6.966101   7.855903   7.567084   8.973437   9.736544
    39  H    8.151124   9.173529   8.514230   9.900027  10.469975
    40  H    7.397297   8.350360   7.841105   9.207711   9.855650
    41  H    3.336588   3.749230   4.521140   5.752793   6.928767
    42  H    2.633916   2.535413   3.970709   4.920767   6.220368
    43  H    2.728352   2.695159   4.052610   5.035767   6.321034
    44  H    2.628834   2.391453   2.141551   1.082795   2.162153
    45  H    4.571786   4.783314   3.399266   2.144881   1.084065
    46  H    4.578171   5.709437   3.413940   3.906317   3.435781
                   21         22         23         24         25
    21  C    0.000000
    22  Cl   1.750267   0.000000
    23  C    1.380388   2.711808   0.000000
    24  C    2.393407   4.012377   1.406494   0.000000
    25  N    3.672784   5.133908   2.423564   1.400388   0.000000
    26  O    4.101843   5.237939   2.722947   2.319822   1.287104
    27  H    7.018959   8.325111   6.527475   5.725711   5.625338
    28  H    5.310044   6.712460   4.808567   3.982712   4.046177
    29  H    6.725684   8.265028   6.129900   5.032532   4.810092
    30  H    7.768820   9.117919   6.864639   5.936433   5.240221
    31  H    6.580653   7.739316   5.714028   5.073132   4.543717
    32  H    8.423767   9.394184   7.062877   6.536294   5.213591
    33  H    8.031475   9.253774   6.719326   5.901705   4.577393
    34  H    6.723397   7.764383   5.380420   4.844126   3.577740
    35  H    8.388956   9.190000   7.028774   6.695298   5.425541
    36  H    7.926354   8.821213   6.614383   6.194694   4.986373
    37  H    6.655817   7.468872   5.308994   5.059484   3.889187
    38  H    9.273156  10.604840   7.960987   6.983740   5.614839
    39  H    9.789956  10.910146   8.421936   7.684296   6.288689
    40  H    9.292230  10.507679   7.978953   7.141350   5.806794
    41  H    7.104683   8.800945   6.196813   4.808667   4.055573
    42  H    6.704000   8.442121   6.085854   4.709686   4.438431
    43  H    6.769245   8.502932   6.117136   4.740390   4.415292
    44  H    3.416056   4.889450   3.907037   3.404025   4.570663
    45  H    2.165221   2.853609   3.410737   3.874661   5.275047
    46  H    2.168573   2.899350   1.081986   2.146611   2.626767
                   26         27         28         29         30
    26  O    0.000000
    27  H    6.306362   0.000000
    28  H    4.851850   1.770988   0.000000
    29  H    5.695584   1.771434   1.777120   0.000000
    30  H    5.607333   2.509722   3.089062   2.531607   0.000000
    31  H    4.743818   2.513520   2.527285   3.089316   1.769737
    32  H    4.414770   9.049968   8.148795   8.241959   7.184734
    33  H    4.198762   8.407914   7.462112   7.313026   6.659818
    34  H    2.821807   8.110734   6.957904   7.238995   6.629354
    35  H    4.431982   8.315752   7.632311   7.942921   6.384527
    36  H    4.194013   6.766719   6.290555   6.611202   4.818505
    37  H    2.820156   7.154649   6.244333   6.833392   5.614964
    38  H    5.405166   7.537013   7.119352   6.565965   5.329253
    39  H    5.720422   8.443516   8.031888   7.750820   6.147002
    40  H    5.449934   6.870745   6.691281   6.299003   4.476187
    41  H    4.926206   5.408708   4.634451   3.740655   4.567080
    42  H    5.564182   4.577547   3.815151   2.828677   4.612296
    43  H    5.503011   6.209886   5.198410   4.492975   5.975213
    44  H    5.699516   6.261686   4.715254   5.501535   7.498570
    45  H    6.010071   7.513522   5.911496   7.203098   8.790722
    46  H    2.378902   6.979385   5.346588   6.684075   7.042594
                   31         32         33         34         35
    31  H    0.000000
    32  H    7.071438   0.000000
    33  H    6.814898   1.769068   0.000000
    34  H    6.314678   1.768036   1.778198   0.000000
    35  H    5.990923   2.273450   3.616670   3.007626   0.000000
    36  H    4.367273   3.596373   4.343756   3.781125   1.770454
    37  H    4.878877   2.971644   3.769132   2.552646   1.773138
    38  H    5.989948   3.188971   2.542850   3.751762   3.802375
    39  H    6.492027   2.553122   3.001805   3.767053   2.615813
    40  H    5.008000   3.760495   3.773525   4.338628   3.213425
    41  H    5.313904   6.156288   4.663981   5.215733   6.896729
    42  H    5.266540   7.709956   6.314606   6.576613   8.209431
    43  H    6.512548   7.267843   5.688537   6.082594   8.229999
    44  H    6.938521   9.650352   8.663344   7.965603   9.974489
    45  H    7.766750  10.302399   9.677061   8.566818  10.384926
    46  H    5.787552   6.540012   6.457394   4.937076   6.362042
                   36         37         38         39         40
    36  H    0.000000
    37  H    1.779114   0.000000
    38  H    3.811914   4.330691   0.000000
    39  H    3.096128   3.801581   1.772519   0.000000
    40  H    2.612280   3.795367   1.783096   1.771559   0.000000
    41  H    6.309928   6.150269   4.478685   6.073316   5.276655
    42  H    7.385903   7.204932   6.123788   7.651334   6.640271
    43  H    7.769642   7.313477   6.045669   7.605123   6.970877
    44  H    9.301925   8.383956   9.525844  10.585145   9.827052
    45  H    9.808897   8.661066  10.813851  11.551982  10.921357
    46  H    6.073448   4.647014   7.779354   8.017122   7.702432
                   41         42         43         44         45
    41  H    0.000000
    42  H    1.793260   0.000000
    43  H    1.776798   1.751966   0.000000
    44  H    5.904582   4.814912   4.958957   0.000000
    45  H    7.877303   7.036905   7.152257   2.509042   0.000000
    46  H    6.653799   6.772052   6.776640   4.988305   4.323752
                   46
    46  H    0.000000
 Stoichiometry    C17H20ClN3O5
 Framework group  C1[X(C17H20ClN3O5)]
 Deg. of freedom   132
 Full point group                 C1      NOp   1
 Largest Abelian subgroup         C1      NOp   1
 Largest concise Abelian subgroup C1      NOp   1
                         Standard orientation:                         
 ---------------------------------------------------------------------
 Center     Atomic      Atomic             Coordinates (Angstroms)
 Number     Number       Type             X           Y           Z
 ---------------------------------------------------------------------
      1          6           0       -0.310105    2.641715    2.730764
      2          6           0       -1.457673    1.650895    2.728895
      3          8           0       -1.536075    1.066216    1.398248
      4          6           0       -2.498475    0.126513    1.233469
      5          8           0       -3.263487   -0.191791    2.122460
      6          7           0       -2.538420   -0.372245   -0.070009
      7          6           0       -3.568586   -1.462558   -0.411514
      8          6           0       -3.281527   -2.061456   -1.802007
      9          6           0       -3.411039   -2.613960    0.606852
     10          6           0       -4.979102   -0.854485   -0.379920
     11          6           0       -1.749677    0.201317   -1.084492
     12          8           0       -2.189064    0.450321   -2.192883
     13          6           0       -0.283578    0.482325   -0.833861
     14          6           0        0.262273    1.755815   -1.093176
     15          6           0       -0.531783    2.956887   -1.489507
     16          7           0        1.595909    1.963692   -0.946121
     17          8           0        2.116459    3.120380   -1.158263
     18          6           0        2.415945    0.900488   -0.552210
     19          6           0        3.800301    1.099691   -0.396593
     20          6           0        4.604077    0.043858   -0.015514
     21          6           0        4.032609   -1.228330    0.211500
     22         17           0        5.078265   -2.547458    0.691021
     23          6           0        2.678726   -1.451994    0.061678
     24          6           0        1.861301   -0.372652   -0.319191
     25          7           0        0.484423   -0.574585   -0.475768
     26          8           0       -0.003540   -1.752330   -0.298441
     27          1           0       -0.233575    3.101261    3.721501
     28          1           0        0.642328    2.149942    2.511466
     29          1           0       -0.468452    3.438796    1.998457
     30          1           0       -2.415372    2.129992    2.950071
     31          1           0       -1.307007    0.844597    3.451326
     32          1           0       -3.937792   -2.928381   -1.919786
     33          1           0       -3.483321   -1.366972   -2.616248
     34          1           0       -2.247790   -2.410661   -1.877218
     35          1           0       -4.059864   -3.437378    0.292587
     36          1           0       -3.691357   -2.320966    1.616344
     37          1           0       -2.377991   -2.973598    0.609175
     38          1           0       -5.068847   -0.055355   -1.122308
     39          1           0       -5.713367   -1.629578   -0.624072
     40          1           0       -5.219040   -0.457003    0.608458
     41          1           0       -1.598797    2.750795   -1.500325
     42          1           0       -0.305855    3.780512   -0.804792
     43          1           0       -0.222950    3.292676   -2.485425
     44          1           0        4.196940    2.089249   -0.586060
     45          1           0        5.672121    0.182182    0.108366
     46          1           0        2.219634   -2.418146    0.224398
 ---------------------------------------------------------------------
 Rotational constants (GHZ):           0.2878418           0.1291168           0.1142524
 Standard basis: 6-31+G(d,p) (6D, 7F)
 There are   598 symmetry adapted cartesian basis functions of A   symmetry.
 There are   598 symmetry adapted basis functions of A   symmetry.
   598 basis functions,   996 primitive gaussians,   598 cartesian basis functions
   100 alpha electrons      100 beta electrons
       nuclear repulsion energy      2679.1687362235 Hartrees.
 NAtoms=   46 NActive=   46 NUniq=   46 SFac= 1.00D+00 NAtFMM=   60 NAOKFM=F Big=F
 Integral buffers will be    131072 words long.
 Regular integral format.
 Two-electron integral symmetry is turned on.
 One-electron integrals computed using PRISM.
 NBasis=   598 RedAO= T EigKep=  1.24D-06  NBF=   598
 NBsUse=   595 1.00D-06 EigRej=  9.83D-07 NBFU=   595
 ExpMin= 4.38D-02 ExpMax= 2.52D+04 ExpMxC= 3.78D+03 IAcc=3 IRadAn=         5 AccDes= 0.00D+00
 Harris functional with IExCor=  402 and IRadAn=       5 diagonalized for initial guess.
 HarFok:  IExCor=  402 AccDes= 0.00D+00 IRadAn=         5 IDoV= 1 UseB2=F ITyADJ=14
 ICtDFT=  3500011 ScaDFX=  1.000000  1.000000  1.000000  1.000000
 FoFCou: FMM=F IPFlag=           0 FMFlag=      100000 FMFlg1=           0
         NFxFlg=           0 DoJE=T BraDBF=F KetDBF=T FulRan=T
         wScrn=  0.000000 ICntrl=       500 IOpCl=  0 I1Cent=   200000004 NGrid=           0
         NMat0=    1 NMatS0=      1 NMatT0=    0 NMatD0=    1 NMtDS0=    0 NMtDT0=    0
 Petite list used in FoFCou.
 Requested convergence on RMS density matrix=1.00D-08 within 128 cycles.
 Requested convergence on MAX density matrix=1.00D-06.
 Requested convergence on             energy=1.00D-06.
 No special actions if energy rises.
 SCF Done:  E(RB3LYP) =  -1660.40700082     A.U. after   17 cycles
            NFock= 17  Conv=0.45D-08     -V/T= 2.0076
 DoSCS=F DFT=T ScalE2(SS,OS)=  1.000000  1.000000
 ExpMin= 4.38D-02 ExpMax= 2.52D+04 ExpMxC= 3.78D+03 IAcc=3 IRadAn=         5 AccDes= 0.00D+00
 HarFok:  IExCor=  205 AccDes= 0.00D+00 IRadAn=         5 IDoV=-2 UseB2=F ITyADJ=14
 ICtDFT= 12500011 ScaDFX=  1.000000  1.000000  1.000000  1.000000
 GSVD:  LWork=       -1140 too small for GESVD, short by        4950 words or        4950 for optimal perf.
 Range of M.O.s used for correlation:    31   595
 NBasis=   598 NAE=   100 NBE=   100 NFC=    30 NFV=     0
 NROrb=    565 NOA=    70 NOB=    70 NVA=   495 NVB=   495

 **** Warning!!: The largest alpha MO coefficient is  0.13909535D+03

 Orbital symmetries:
       Occupied  (A) (A) (A) (A) (A) (A) (A) (A) (A) (A) (A) (A)
                 (A) (A) (A) (A) (A) (A) (A) (A) (A) (A) (A) (A)
                 (A) (A) (A) (A) (A) (A) (A) (A) (A) (A) (A) (A)
                 (A) (A) (A) (A) (A) (A) (A) (A) (A) (A) (A) (A)
                 (A) (A) (A) (A) (A) (A) (A) (A) (A) (A) (A) (A)
                 (A) (A) (A) (A) (A) (A) (A) (A) (A) (A) (A) (A)
                 (A) (A) (A) (A) (A) (A) (A) (A) (A) (A) (A) (A)
                 (A) (A) (A) (A) (A) (A) (A) (A) (A) (A) (A) (A)
                 (A) (A) (A) (A)
       Virtual   (A) (A) (A) (A) (A) (A) (A) (A) (A) (A) (A) (A)
                 (A) (A) (A) (A) (A) (A) (A) (A) (A) (A) (A) (A)
                 (A) (A) (A) (A) (A) (A) (A) (A) (A) (A) (A) (A)
                 (A) (A) (A) (A) (A) (A) (A) (A) (A) (A) (A) (A)
                 (A) (A) (A) (A) (A) (A) (A) (A) (A) (A) (A) (A)
                 (A) (A) (A) (A) (A) (A) (A) (A) (A) (A) (A) (A)
                 (A) (A) (A) (A) (A) (A) (A) (A) (A) (A) (A) (A)
                 (A) (A) (A) (A) (A) (A) (A) (A) (A) (A) (A) (A)
                 (A) (A) (A) (A) (A) (A) (A) (A) (A) (A) (A) (A)
                 (A) (A) (A) (A) (A) (A) (A) (A) (A) (A) (A) (A)
                 (A) (A) (A) (A) (A) (A) (A) (A) (A) (A) (A) (A)
                 (A) (A) (A) (A) (A) (A) (A) (A) (A) (A) (A) (A)
                 (A) (A) (A) (A) (A) (A) (A) (A) (A) (A) (A) (A)
                 (A) (A) (A) (A) (A) (A) (A) (A) (A) (A) (A) (A)
                 (A) (A) (A) (A) (A) (A) (A) (A) (A) (A) (A) (A)
                 (A) (A) (A) (A) (A) (A) (A) (A) (A) (A) (A) (A)
                 (A) (A) (A) (A) (A) (A) (A) (A) (A) (A) (A) (A)
                 (A) (A) (A) (A) (A) (A) (A) (A) (A) (A) (A) (A)
                 (A) (A) (A) (A) (A) (A) (A) (A) (A) (A) (A) (A)
                 (A) (A) (A) (A) (A) (A) (A) (A) (A) (A) (A) (A)
                 (A) (A) (A) (A) (A) (A) (A) (A) (A) (A) (A) (A)
                 (A) (A) (A) (A) (A) (A) (A) (A) (A) (A) (A) (A)
                 (A) (A) (A) (A) (A) (A) (A) (A) (A) (A) (A) (A)
                 (A) (A) (A) (A) (A) (A) (A) (A) (A) (A) (A) (A)
                 (A) (A) (A) (A) (A) (A) (A) (A) (A) (A) (A) (A)
                 (A) (A) (A) (A) (A) (A) (A) (A) (A) (A) (A) (A)
                 (A) (A) (A) (A) (A) (A) (A) (A) (A) (A) (A) (A)
                 (A) (A) (A) (A) (A) (A) (A) (A) (A) (A) (A) (A)
                 (A) (A) (A) (A) (A) (A) (A) (A) (A) (A) (A) (A)
                 (A) (A) (A) (A) (A) (A) (A) (A) (A) (A) (A) (A)
                 (A) (A) (A) (A) (A) (A) (A) (A) (A) (A) (A) (A)
                 (A) (A) (A) (A) (A) (A) (A) (A) (A) (A) (A) (A)
                 (A) (A) (A) (A) (A) (A) (A) (A) (A) (A) (A) (A)
                 (A) (A) (A) (A) (A) (A) (A) (A) (A) (A) (A) (A)
                 (A) (A) (A) (A) (A) (A) (A) (A) (A) (A) (A) (A)
                 (A) (A) (A) (A) (A) (A) (A) (A) (A) (A) (A) (A)
                 (A) (A) (A) (A) (A) (A) (A) (A) (A) (A) (A) (A)
                 (A) (A) (A) (A) (A) (A) (A) (A) (A) (A) (A) (A)
                 (A) (A) (A) (A) (A) (A) (A) (A) (A) (A) (A) (A)
                 (A) (A) (A) (A) (A) (A) (A) (A) (A) (A) (A) (A)
                 (A) (A) (A) (A) (A) (A) (A) (A) (A) (A) (A) (A)
                 (A) (A) (A)
    24 initial guesses have been made.
 Convergence on wavefunction:    0.001000000000000
 Iteration     1 Dimension    24 NMult     0 NNew     24
 CISAX will form    24 AO SS matrices at one time.
 New state      1 was old state      2
 New state      2 was old state      4
 New state      3 was old state      6
 New state      4 was old state      3
 New state      5 was old state      8
 New state      6 was old state      5
 New state      7 was old state     10
 New state      8 was old state      7
 New state      9 was old state     21
 New state     10 was old state     12
 New state     11 was old state     18
 New state     12 was old state     16
 Vector   5 SDiff=2.44D-01 TDiff=4.57D+00 assumed to be singlet.
 Vector  11 SDiff=2.66D-01 TDiff=4.41D+00 assumed to be singlet.
 Iteration     2 Dimension    36 NMult    24 NNew     12
 New state      3 was old state      4
 New state      4 was old state      3
 New state      5 was old state      6
 New state      6 was old state      9
 Iteration     3 Dimension    48 NMult    36 NNew     12
 Iteration     4 Dimension    60 NMult    48 NNew     12
 Iteration     5 Dimension    72 NMult    60 NNew     12
 Iteration     6 Dimension    84 NMult    72 NNew     12
 Iteration     7 Dimension    92 NMult    84 NNew      8
 ***********************************************************************
 Excited states from <AA,BB:AA,BB> singles matrix:
 ***********************************************************************
 
 Ground to excited state transition densities written to RWF  633
 Ground to excited state transition electric dipole moments (Au):
       state          X           Y           Z        Dip. S.      Osc.
         1         0.0000     -0.0000     -0.0000      0.0000      0.0000
         2         0.0000      0.0000     -0.0000      0.0000      0.0000
         3        -0.1081     -0.9470      0.1769      0.9399      0.0676
         4        -0.0000     -0.0000     -0.0000      0.0000      0.0000
         5        -0.3512     -0.1770      0.1048      0.1656      0.0137
         6        -0.6551     -0.2722     -0.0297      0.5041      0.0418
 Ground to excited state transition velocity dipole moments (Au):
       state          X           Y           Z        Dip. S.      Osc.
         1        -0.0000      0.0000     -0.0000      0.0000      0.0000
         2        -0.0000     -0.0000     -0.0000      0.0000      0.0000
         3         0.0111      0.1072     -0.0196      0.0120      0.0743
         4        -0.0000      0.0000      0.0000      0.0000      0.0000
         5         0.0431      0.0239     -0.0130      0.0026      0.0140
         6         0.0830      0.0350      0.0037      0.0081      0.0436
 Ground to excited state transition magnetic dipole moments (Au):
       state          X           Y           Z
         1        -0.0000      0.0000     -0.0000
         2        -0.0000     -0.0000     -0.0000
         3         0.1498      0.0906      0.2519
         4         0.0000      0.0000      0.0000
         5         0.1223      0.1974      0.0029
         6         0.0582     -0.2603     -0.1496
 Ground to excited state transition velocity quadrupole moments (Au):
       state          XX          YY          ZZ          XY          XZ          YZ
         1        -0.0000      0.0000      0.0000      0.0000      0.0000     -0.0000
         2        -0.0000     -0.0000     -0.0000     -0.0000      0.0000      0.0000
         3         0.0534      0.2404      0.0828      0.2970     -0.0898     -0.1757
         4         0.0000     -0.0000     -0.0000      0.0000     -0.0000     -0.0000
         5         0.1348      0.0441     -0.0048      0.0486      0.0013     -0.0538
         6         0.4263      0.0782     -0.0373      0.1303     -0.0871     -0.0649
 <0|del|b> * <b|rxdel|0> + <0|del|b> * <b|delr+rdel|0>
 Rotatory Strengths (R) in cgs (10**-40 erg-esu-cm/Gauss)
       state          XX          YY          ZZ    R(velocity)    E-M Angle
         1        -0.0000      0.0000     -0.0000      0.0000       90.00
         2         0.0000     -0.0000      0.0000      0.0000       90.00
         3        28.0858      1.9568     12.1629     14.0685       78.97
         4         0.0000      0.0000     -0.0000      0.0000       90.00
         5        11.4774     10.1577     35.2941     18.9764       32.80
         6       -17.4167     -4.5701     -5.4704     -9.1524      100.09
 1/2[<0|r|b>*<b|rxdel|0> + (<0|rxdel|b>*<b|r|0>)*]
 Rotatory Strengths (R) in cgs (10**-40 erg-esu-cm/Gauss)
       state          XX          YY          ZZ     R(length)
         1         0.0000      0.0000     -0.0000      0.0000
         2         0.0000      0.0000     -0.0000      0.0000
         3        11.4558     60.6667    -31.5152     13.5358
         4         0.0000      0.0000      0.0000      0.0000
         5        30.3799     24.7109     -0.2134     18.2925
         6        26.9480    -50.1053     -3.1398     -8.7657
  1/2[<0|del|b>*<b|r|0> + (<0|r|b>*<b|del|0>)*] (Au)
       state          X           Y           Z        Dip. S.   Osc.(frdel)
         1        -0.0000     -0.0000      0.0000      0.0000      0.0000
         2        -0.0000     -0.0000      0.0000      0.0000      0.0000
         3        -0.0012     -0.1016     -0.0035      0.1062      0.0708
         4         0.0000     -0.0000     -0.0000     -0.0000     -0.0000
         5        -0.0151     -0.0042     -0.0014      0.0207      0.0138
         6        -0.0544     -0.0095     -0.0001      0.0640      0.0427

 Excitation energies and oscillator strengths:
 
 Excited State   1:      Triplet-A      1.0355 eV 1197.31 nm  f=0.0000  <S**2>=2.000
     100 ->101         0.72545
     100 ->102         0.10374
     100 ->104         0.16762
     100 <-101         0.25943
 This state for optimization and/or second-order correction.
 Total Energy, E(TD-HF/TD-DFT) =  -1660.36894618    
 Copying the excited state density for this state as the 1-particle RhoCI density.
 
 Excited State   2:      Triplet-A      2.8638 eV  432.94 nm  f=0.0000  <S**2>=2.000
      93 ->101        -0.15305
      98 ->101        -0.12837
     100 ->102         0.65029
 
 Excited State   3:      Singlet-A      2.9339 eV  422.59 nm  f=0.0676  <S**2>=0.000
     100 ->101         0.65075
     100 ->102        -0.22964
     100 ->104        -0.13943
 
 Excited State   4:      Triplet-A      3.1210 eV  397.26 nm  f=0.0000  <S**2>=2.000
      95 ->101        -0.24166
      98 ->101        -0.13402
      99 ->101         0.62529
 
 Excited State   5:      Singlet-A      3.3652 eV  368.43 nm  f=0.0137  <S**2>=0.000
      95 ->101        -0.21276
      99 ->101         0.59355
     100 ->102         0.26688
 
 Excited State   6:      Singlet-A      3.3867 eV  366.09 nm  f=0.0418  <S**2>=0.000
      98 ->101         0.24814
      99 ->101        -0.22738
     100 ->101         0.19674
     100 ->102         0.56322
     100 ->104        -0.10439
 SavETr:  write IOETrn=   770 NScale= 10 NData=  16 NLR=1 NState=    6 LETran=     118.

 **********************************************************************

            Population analysis using the SCF Density.

 **********************************************************************

 Orbital symmetries:
       Occupied  (A) (A) (A) (A) (A) (A) (A) (A) (A) (A) (A) (A)
                 (A) (A) (A) (A) (A) (A) (A) (A) (A) (A) (A) (A)
                 (A) (A) (A) (A) (A) (A) (A) (A) (A) (A) (A) (A)
                 (A) (A) (A) (A) (A) (A) (A) (A) (A) (A) (A) (A)
                 (A) (A) (A) (A) (A) (A) (A) (A) (A) (A) (A) (A)
                 (A) (A) (A) (A) (A) (A) (A) (A) (A) (A) (A) (A)
                 (A) (A) (A) (A) (A) (A) (A) (A) (A) (A) (A) (A)
                 (A) (A) (A) (A) (A) (A) (A) (A) (A) (A) (A) (A)
                 (A) (A) (A) (A)
       Virtual   (A) (A) (A) (A) (A) (A) (A) (A) (A) (A) (A) (A)
                 (A) (A) (A) (A) (A) (A) (A) (A) (A) (A) (A) (A)
                 (A) (A) (A) (A) (A) (A) (A) (A) (A) (A) (A) (A)
                 (A) (A) (A) (A) (A) (A) (A) (A) (A) (A) (A) (A)
                 (A) (A) (A) (A) (A) (A) (A) (A) (A) (A) (A) (A)
                 (A) (A) (A) (A) (A) (A) (A) (A) (A) (A) (A) (A)
                 (A) (A) (A) (A) (A) (A) (A) (A) (A) (A) (A) (A)
                 (A) (A) (A) (A) (A) (A) (A) (A) (A) (A) (A) (A)
                 (A) (A) (A) (A) (A) (A) (A) (A) (A) (A) (A) (A)
                 (A) (A) (A) (A) (A) (A) (A) (A) (A) (A) (A) (A)
                 (A) (A) (A) (A) (A) (A) (A) (A) (A) (A) (A) (A)
                 (A) (A) (A) (A) (A) (A) (A) (A) (A) (A) (A) (A)
                 (A) (A) (A) (A) (A) (A) (A) (A) (A) (A) (A) (A)
                 (A) (A) (A) (A) (A) (A) (A) (A) (A) (A) (A) (A)
                 (A) (A) (A) (A) (A) (A) (A) (A) (A) (A) (A) (A)
                 (A) (A) (A) (A) (A) (A) (A) (A) (A) (A) (A) (A)
                 (A) (A) (A) (A) (A) (A) (A) (A) (A) (A) (A) (A)
                 (A) (A) (A) (A) (A) (A) (A) (A) (A) (A) (A) (A)
                 (A) (A) (A) (A) (A) (A) (A) (A) (A) (A) (A) (A)
                 (A) (A) (A) (A) (A) (A) (A) (A) (A) (A) (A) (A)
                 (A) (A) (A) (A) (A) (A) (A) (A) (A) (A) (A) (A)
                 (A) (A) (A) (A) (A) (A) (A) (A) (A) (A) (A) (A)
                 (A) (A) (A) (A) (A) (A) (A) (A) (A) (A) (A) (A)
                 (A) (A) (A) (A) (A) (A) (A) (A) (A) (A) (A) (A)
                 (A) (A) (A) (A) (A) (A) (A) (A) (A) (A) (A) (A)
                 (A) (A) (A) (A) (A) (A) (A) (A) (A) (A) (A) (A)
                 (A) (A) (A) (A) (A) (A) (A) (A) (A) (A) (A) (A)
                 (A) (A) (A) (A) (A) (A) (A) (A) (A) (A) (A) (A)
                 (A) (A) (A) (A) (A) (A) (A) (A) (A) (A) (A) (A)
                 (A) (A) (A) (A) (A) (A) (A) (A) (A) (A) (A) (A)
                 (A) (A) (A) (A) (A) (A) (A) (A) (A) (A) (A) (A)
                 (A) (A) (A) (A) (A) (A) (A) (A) (A) (A) (A) (A)
                 (A) (A) (A) (A) (A) (A) (A) (A) (A) (A) (A) (A)
                 (A) (A) (A) (A) (A) (A) (A) (A) (A) (A) (A) (A)
                 (A) (A) (A) (A) (A) (A) (A) (A) (A) (A) (A) (A)
                 (A) (A) (A) (A) (A) (A) (A) (A) (A) (A) (A) (A)
                 (A) (A) (A) (A) (A) (A) (A) (A) (A) (A) (A) (A)
                 (A) (A) (A) (A) (A) (A) (A) (A) (A) (A) (A) (A)
                 (A) (A) (A) (A) (A) (A) (A) (A) (A) (A) (A) (A)
                 (A) (A) (A) (A) (A) (A) (A) (A) (A) (A) (A) (A)
                 (A) (A) (A) (A) (A) (A) (A) (A) (A) (A) (A) (A)
                 (A) (A) (A)
 The electronic state is 1-A.
 Alpha  occ. eigenvalues -- -101.57875 -19.21732 -19.17812 -19.15942 -19.15645
 Alpha  occ. eigenvalues --  -19.15332 -14.51418 -14.50729 -14.40150 -10.36389
 Alpha  occ. eigenvalues --  -10.34562 -10.29310 -10.28739 -10.28551 -10.28415
 Alpha  occ. eigenvalues --  -10.28273 -10.26423 -10.25539 -10.24462 -10.24130
 Alpha  occ. eigenvalues --  -10.24082 -10.20948 -10.20374 -10.17936 -10.17738
 Alpha  occ. eigenvalues --  -10.17289  -9.49369  -7.25791  -7.24806  -7.24759
 Alpha  occ. eigenvalues --   -1.14608  -1.13449  -1.13159  -1.08932  -1.03924
 Alpha  occ. eigenvalues --   -0.95843  -0.95480  -0.92318  -0.87919  -0.86896
 Alpha  occ. eigenvalues --   -0.82305  -0.81310  -0.80708  -0.78678  -0.74533
 Alpha  occ. eigenvalues --   -0.73220  -0.69726  -0.69277  -0.67629  -0.66846
 Alpha  occ. eigenvalues --   -0.65075  -0.64174  -0.62484  -0.60916  -0.58108
 Alpha  occ. eigenvalues --   -0.56866  -0.55594  -0.53061  -0.52543  -0.51708
 Alpha  occ. eigenvalues --   -0.50573  -0.49629  -0.49367  -0.48540  -0.48228
 Alpha  occ. eigenvalues --   -0.48139  -0.47765  -0.47390  -0.45689  -0.44521
 Alpha  occ. eigenvalues --   -0.44392  -0.44079  -0.43496  -0.43154  -0.42620
 Alpha  occ. eigenvalues --   -0.42357  -0.41652  -0.41392  -0.41156  -0.40302
 Alpha  occ. eigenvalues --   -0.39654  -0.38853  -0.38075  -0.37894  -0.37628
 Alpha  occ. eigenvalues --   -0.36558  -0.35938  -0.34746  -0.34276  -0.34020
 Alpha  occ. eigenvalues --   -0.32421  -0.31426  -0.30508  -0.30396  -0.29818
 Alpha  occ. eigenvalues --   -0.28876  -0.28417  -0.28091  -0.27394  -0.22691
 Alpha virt. eigenvalues --   -0.11296  -0.07745  -0.04805  -0.03253  -0.00996
 Alpha virt. eigenvalues --   -0.00738   0.00247   0.00920   0.01219   0.01447
 Alpha virt. eigenvalues --    0.01895   0.02195   0.02706   0.03102   0.03378
 Alpha virt. eigenvalues --    0.03943   0.04151   0.04417   0.04479   0.05318
 Alpha virt. eigenvalues --    0.05564   0.06037   0.06098   0.06295   0.06446
 Alpha virt. eigenvalues --    0.07170   0.07319   0.07876   0.08123   0.08548
 Alpha virt. eigenvalues --    0.08664   0.09244   0.09437   0.10082   0.10193
 Alpha virt. eigenvalues --    0.10310   0.10544   0.10754   0.10984   0.11549
 Alpha virt. eigenvalues --    0.11646   0.12204   0.12587   0.12714   0.12895
 Alpha virt. eigenvalues --    0.13217   0.13431   0.13709   0.14342   0.14478
 Alpha virt. eigenvalues --    0.14613   0.14781   0.15265   0.15468   0.16013
 Alpha virt. eigenvalues --    0.16430   0.16543   0.16725   0.17220   0.17431
 Alpha virt. eigenvalues --    0.17612   0.18048   0.18304   0.18574   0.18936
 Alpha virt. eigenvalues --    0.19412   0.19473   0.19711   0.19879   0.20385
 Alpha virt. eigenvalues --    0.20476   0.20922   0.21296   0.21569   0.21719
 Alpha virt. eigenvalues --    0.21852   0.22318   0.22627   0.22748   0.23204
 Alpha virt. eigenvalues --    0.23340   0.23401   0.23714   0.24316   0.24571
 Alpha virt. eigenvalues --    0.24889   0.25113   0.25680   0.25962   0.26190
 Alpha virt. eigenvalues --    0.26303   0.26663   0.26785   0.27115   0.27269
 Alpha virt. eigenvalues --    0.27940   0.28278   0.28367   0.28493   0.28624
 Alpha virt. eigenvalues --    0.29064   0.29836   0.30003   0.30217   0.30347
 Alpha virt. eigenvalues --    0.30719   0.31217   0.31992   0.32153   0.32352
 Alpha virt. eigenvalues --    0.32675   0.32945   0.33180   0.33244   0.33448
 Alpha virt. eigenvalues --    0.33806   0.34112   0.35181   0.35367   0.35988
 Alpha virt. eigenvalues --    0.36186   0.36889   0.37175   0.37483   0.37755
 Alpha virt. eigenvalues --    0.38422   0.39068   0.39427   0.39852   0.40231
 Alpha virt. eigenvalues --    0.40361   0.41087   0.41440   0.41795   0.42201
 Alpha virt. eigenvalues --    0.43515   0.43732   0.44423   0.44876   0.46067
 Alpha virt. eigenvalues --    0.46574   0.47196   0.47411   0.47942   0.49215
 Alpha virt. eigenvalues --    0.50415   0.51817   0.52073   0.52986   0.53749
 Alpha virt. eigenvalues --    0.55046   0.55532   0.57447   0.59385   0.60318
 Alpha virt. eigenvalues --    0.61189   0.62285   0.62405   0.64004   0.65349
 Alpha virt. eigenvalues --    0.65859   0.66327   0.67532   0.67737   0.68200
 Alpha virt. eigenvalues --    0.68734   0.69599   0.70669   0.71190   0.72555
 Alpha virt. eigenvalues --    0.72578   0.73097   0.73421   0.73894   0.74560
 Alpha virt. eigenvalues --    0.74691   0.76328   0.76662   0.77195   0.77709
 Alpha virt. eigenvalues --    0.78387   0.78999   0.79390   0.80457   0.80963
 Alpha virt. eigenvalues --    0.82448   0.82909   0.83760   0.84399   0.85225
 Alpha virt. eigenvalues --    0.85543   0.86202   0.86377   0.87745   0.88281
 Alpha virt. eigenvalues --    0.89097   0.89394   0.89681   0.90328   0.91024
 Alpha virt. eigenvalues --    0.92083   0.92806   0.92933   0.94496   0.95208
 Alpha virt. eigenvalues --    0.95975   0.96835   0.97750   0.97994   0.98679
 Alpha virt. eigenvalues --    0.99060   0.99468   0.99850   1.00846   1.02103
 Alpha virt. eigenvalues --    1.02835   1.03715   1.04090   1.04788   1.05479
 Alpha virt. eigenvalues --    1.06063   1.06666   1.07454   1.08307   1.09008
 Alpha virt. eigenvalues --    1.09393   1.10132   1.10888   1.12110   1.12623
 Alpha virt. eigenvalues --    1.14863   1.16232   1.16907   1.17007   1.17765
 Alpha virt. eigenvalues --    1.18190   1.18869   1.19421   1.20268   1.20554
 Alpha virt. eigenvalues --    1.21567   1.22396   1.23065   1.24316   1.25295
 Alpha virt. eigenvalues --    1.26572   1.27049   1.27825   1.28294   1.29092
 Alpha virt. eigenvalues --    1.30071   1.30912   1.31070   1.32011   1.32992
 Alpha virt. eigenvalues --    1.33250   1.34375   1.34775   1.35168   1.35827
 Alpha virt. eigenvalues --    1.36308   1.36701   1.37640   1.38480   1.39463
 Alpha virt. eigenvalues --    1.40153   1.40878   1.41415   1.42175   1.42855
 Alpha virt. eigenvalues --    1.43774   1.44612   1.45748   1.46094   1.46891
 Alpha virt. eigenvalues --    1.48236   1.49318   1.50418   1.50703   1.51089
 Alpha virt. eigenvalues --    1.51630   1.53331   1.55937   1.56262   1.57609
 Alpha virt. eigenvalues --    1.57952   1.58867   1.60000   1.62283   1.63374
 Alpha virt. eigenvalues --    1.64781   1.66017   1.67415   1.68614   1.71538
 Alpha virt. eigenvalues --    1.72864   1.73178   1.73554   1.75652   1.76592
 Alpha virt. eigenvalues --    1.78163   1.78437   1.79780   1.80498   1.81058
 Alpha virt. eigenvalues --    1.81579   1.82129   1.83302   1.83960   1.84802
 Alpha virt. eigenvalues --    1.85045   1.85638   1.86845   1.88085   1.88892
 Alpha virt. eigenvalues --    1.89813   1.90444   1.90846   1.91598   1.92759
 Alpha virt. eigenvalues --    1.93754   1.94235   1.94452   1.94643   1.95950
 Alpha virt. eigenvalues --    1.96236   1.97482   1.98482   1.98779   1.99383
 Alpha virt. eigenvalues --    2.00239   2.01631   2.02388   2.02991   2.03367
 Alpha virt. eigenvalues --    2.03716   2.04413   2.04532   2.05310   2.05891
 Alpha virt. eigenvalues --    2.06752   2.07041   2.08373   2.09037   2.09210
 Alpha virt. eigenvalues --    2.09445   2.11222   2.11696   2.12600   2.12807
 Alpha virt. eigenvalues --    2.12961   2.13682   2.14308   2.15208   2.15732
 Alpha virt. eigenvalues --    2.16180   2.16766   2.17869   2.18398   2.19198
 Alpha virt. eigenvalues --    2.20629   2.20694   2.21518   2.22673   2.23408
 Alpha virt. eigenvalues --    2.24598   2.24895   2.25460   2.25514   2.27835
 Alpha virt. eigenvalues --    2.29389   2.31817   2.35132   2.35626   2.36668
 Alpha virt. eigenvalues --    2.37732   2.38463   2.39143   2.40127   2.41274
 Alpha virt. eigenvalues --    2.43155   2.43877   2.44552   2.45881   2.46814
 Alpha virt. eigenvalues --    2.47901   2.48767   2.51020   2.51230   2.51752
 Alpha virt. eigenvalues --    2.52736   2.53498   2.54623   2.55739   2.56357
 Alpha virt. eigenvalues --    2.57657   2.58547   2.60008   2.60378   2.62562
 Alpha virt. eigenvalues --    2.63520   2.65760   2.67779   2.68246   2.68953
 Alpha virt. eigenvalues --    2.69339   2.70624   2.71019   2.71802   2.72884
 Alpha virt. eigenvalues --    2.73116   2.73496   2.74832   2.75882   2.76067
 Alpha virt. eigenvalues --    2.77329   2.78010   2.78334   2.79376   2.80875
 Alpha virt. eigenvalues --    2.81890   2.83793   2.86490   2.86791   2.88052
 Alpha virt. eigenvalues --    2.88666   2.89554   2.90015   2.90398   2.93267
 Alpha virt. eigenvalues --    2.95204   2.95896   2.96820   2.98826   2.99738
 Alpha virt. eigenvalues --    3.02266   3.04749   3.08720   3.10035   3.13229
 Alpha virt. eigenvalues --    3.14531   3.16303   3.16684   3.18782   3.23868
 Alpha virt. eigenvalues --    3.24266   3.25805   3.26520   3.28316   3.29777
 Alpha virt. eigenvalues --    3.31213   3.31697   3.32338   3.33595   3.35201
 Alpha virt. eigenvalues --    3.41527   3.45211   3.46418   3.46543   3.46871
 Alpha virt. eigenvalues --    3.47531   3.47775   3.49659   3.50781   3.52685
 Alpha virt. eigenvalues --    3.54849   3.55329   3.56746   3.73417   4.21535
 Alpha virt. eigenvalues --    4.27424   4.32455   4.34421   4.37164   4.40616
 Alpha virt. eigenvalues --    4.44333   4.45878   4.49456   4.51437   4.53041
 Alpha virt. eigenvalues --    4.54186   4.56869   4.59002   4.60490   4.63142
 Alpha virt. eigenvalues --    4.67293   4.72097   4.73848   4.77091   4.78572
 Alpha virt. eigenvalues --    4.81951   4.86540   4.89408   4.98837   5.13027
          Condensed to atoms (all electrons):
               1          2          3          4          5          6
     1  C    5.452267  -0.112258  -0.014021   0.052275   0.007030   0.022932
     2  C   -0.112258   5.705951  -0.029941  -0.159970  -0.075194  -0.069075
     3  O   -0.014021  -0.029941   8.699239   0.219440  -0.122946  -0.199266
     4  C    0.052275  -0.159970   0.219440   5.475482   0.443052   0.257440
     5  O    0.007030  -0.075194  -0.122946   0.443052   8.238478  -0.066845
     6  N    0.022932  -0.069075  -0.199266   0.257440  -0.066845   8.151404
     7  C    0.005390  -0.008145  -0.027811   0.116282   0.117721  -0.516916
     8  C    0.003432  -0.007731   0.033379   0.004201   0.003320   0.156207
     9  C    0.002944   0.009620  -0.028997   0.039613  -0.087297   0.159249
    10  C   -0.002738  -0.001235  -0.016440  -0.134717  -0.050074   0.054940
    11  C   -0.072194   0.031023  -0.114693  -0.679645   0.029580  -0.710729
    12  O    0.001597  -0.001173  -0.001459   0.001356  -0.001762  -0.039831
    13  C    0.154904  -0.201008  -0.194572  -0.025943   0.022832  -0.258404
    14  C   -0.087313   0.137532  -0.185087  -0.433321   0.005201   0.216463
    15  C   -0.025123  -0.022242  -0.049843  -0.005702  -0.001484  -0.185000
    16  N    0.013047  -0.005179   0.058732   0.054784  -0.000075   0.044779
    17  O   -0.001116   0.002764  -0.001590   0.000690  -0.000011  -0.000353
    18  C   -0.060407   0.051211   0.041442  -0.104611   0.001809   0.033252
    19  C   -0.026576   0.028419  -0.022368  -0.030591  -0.000440  -0.027446
    20  C    0.000871  -0.003203  -0.004378  -0.000490  -0.000082  -0.001180
    21  C   -0.005509   0.008602   0.011565  -0.005393   0.000033  -0.017272
    22  Cl  -0.000047   0.000078   0.000048  -0.000169   0.000002   0.000058
    23  C    0.020577  -0.011876  -0.006694   0.044585  -0.003628  -0.018530
    24  C    0.032193  -0.073603   0.197267   0.150338   0.012173  -0.125515
    25  N   -0.002281   0.017173   0.082501   0.228044  -0.014659   0.233785
    26  O   -0.000381  -0.011175   0.012227  -0.044094   0.002446  -0.029958
    27  H    0.423993  -0.073668   0.003390   0.005131   0.000115  -0.000357
    28  H    0.430765  -0.063337  -0.002786  -0.001934  -0.000156  -0.000941
    29  H    0.431076  -0.062436  -0.005401  -0.002114  -0.000096  -0.001450
    30  H   -0.035939   0.439459  -0.053589  -0.021319   0.002895  -0.004394
    31  H   -0.023753   0.428775  -0.053848  -0.027385   0.004200  -0.007733
    32  H   -0.000004  -0.000009   0.000014  -0.004076  -0.000088   0.010810
    33  H    0.000001  -0.000167   0.000131  -0.012521   0.000000  -0.011983
    34  H    0.000043  -0.000126  -0.000489  -0.002286   0.000143   0.022351
    35  H    0.000014  -0.000108   0.000025   0.003474   0.001848   0.000984
    36  H    0.000106   0.003002   0.000752   0.033619  -0.020301  -0.016432
    37  H    0.000064   0.000324  -0.000235   0.004219   0.000867   0.018915
    38  H   -0.000038   0.001135   0.000121   0.014797  -0.000608  -0.000669
    39  H   -0.000013  -0.000338   0.000025  -0.004840   0.000707  -0.006520
    40  H   -0.000039  -0.000731   0.000472  -0.001772  -0.005103  -0.017575
    41  H    0.002906  -0.002218  -0.002006   0.005694   0.000123   0.017288
    42  H   -0.002979   0.002630   0.002025   0.000571  -0.000008  -0.000307
    43  H    0.000032  -0.000107  -0.000190  -0.000457  -0.000001  -0.002245
    44  H    0.000041  -0.000093   0.000004  -0.000002   0.000000   0.000004
    45  H   -0.000014   0.000007  -0.000000  -0.000001  -0.000000  -0.000000
    46  H   -0.000050   0.000018   0.000063  -0.000294  -0.000001  -0.000329
               7          8          9         10         11         12
     1  C    0.005390   0.003432   0.002944  -0.002738  -0.072194   0.001597
     2  C   -0.008145  -0.007731   0.009620  -0.001235   0.031023  -0.001173
     3  O   -0.027811   0.033379  -0.028997  -0.016440  -0.114693  -0.001459
     4  C    0.116282   0.004201   0.039613  -0.134717  -0.679645   0.001356
     5  O    0.117721   0.003320  -0.087297  -0.050074   0.029580  -0.001762
     6  N   -0.516916   0.156207   0.159249   0.054940  -0.710729  -0.039831
     7  C    9.562130  -0.832050  -0.562983  -0.620676  -0.234586   0.084832
     8  C   -0.832050   6.328071  -0.159992  -0.345723  -0.122521  -0.049734
     9  C   -0.562983  -0.159992   6.273723  -0.349544  -0.163657   0.035714
    10  C   -0.620676  -0.345723  -0.349544   6.412300   0.191052  -0.079922
    11  C   -0.234586  -0.122521  -0.163657   0.191052  10.092617   0.435373
    12  O    0.084832  -0.049734   0.035714  -0.079922   0.435373   8.053925
    13  C   -0.231228  -0.021748   0.070816   0.070297  -4.527153  -0.190458
    14  C    0.331740  -0.066530   0.078030  -0.109161   2.733052   0.062475
    15  C   -0.060924  -0.030227  -0.009888   0.026534  -0.163892  -0.092067
    16  N   -0.008721   0.011999  -0.003095  -0.002033  -0.398706   0.012896
    17  O   -0.000761   0.000123   0.000178  -0.000031   0.022408  -0.000660
    18  C    0.021590  -0.008471   0.007318  -0.008049   0.500406   0.021480
    19  C   -0.001080  -0.004414   0.006213   0.000793   0.804985   0.000047
    20  C   -0.003452   0.001078   0.000626  -0.000001  -0.064670  -0.000305
    21  C    0.014389  -0.001167  -0.005620   0.001064  -0.086888   0.000543
    22  Cl  -0.000073   0.000060   0.000059  -0.000006   0.001540   0.000025
    23  C    0.000967   0.005546   0.014352   0.002791  -0.202381   0.014121
    24  C   -0.048276   0.041059  -0.120694   0.039330  -0.938024  -0.033451
    25  N   -0.199920   0.113641  -0.056879  -0.015345   0.034157   0.047709
    26  O    0.022207  -0.015672  -0.004088   0.010698   0.009892  -0.002631
    27  H   -0.000159   0.000009   0.000042   0.000029   0.000017  -0.000000
    28  H   -0.000357   0.000060   0.000043  -0.000025   0.000794   0.000004
    29  H   -0.000471   0.000077   0.000009   0.000083  -0.000671   0.000021
    30  H   -0.002386   0.000457  -0.000559   0.000194   0.001848   0.000001
    31  H   -0.003290   0.000032   0.001195   0.000361   0.000838   0.000028
    32  H   -0.071103   0.415501   0.010877  -0.012795  -0.012162   0.002955
    33  H   -0.083306   0.446989   0.015781  -0.022791   0.046336  -0.017982
    34  H   -0.121036   0.493374  -0.034187   0.020308  -0.023938   0.001553
    35  H   -0.061847   0.007277   0.425089  -0.025654  -0.009410  -0.000007
    36  H   -0.089563   0.021592   0.472938  -0.043308  -0.009367  -0.000009
    37  H   -0.115499  -0.027982   0.477681   0.021178  -0.022975   0.000213
    38  H   -0.112703  -0.021037   0.010083   0.475627  -0.007255   0.000383
    39  H   -0.029363  -0.017759  -0.020584   0.423899   0.004533  -0.000291
    40  H   -0.088100   0.009370  -0.028599   0.465904   0.022105  -0.000797
    41  H    0.004658  -0.000001  -0.000314  -0.001428  -0.037590  -0.003669
    42  H   -0.000476   0.000178   0.000008  -0.000052  -0.015676   0.001200
    43  H   -0.000126  -0.000001   0.000085   0.000112   0.053986  -0.000572
    44  H    0.000002   0.000001  -0.000000  -0.000000  -0.002185   0.000001
    45  H    0.000000  -0.000000  -0.000000   0.000000   0.000209  -0.000000
    46  H    0.000203  -0.000112   0.000019   0.000001  -0.006953   0.000019
              13         14         15         16         17         18
     1  C    0.154904  -0.087313  -0.025123   0.013047  -0.001116  -0.060407
     2  C   -0.201008   0.137532  -0.022242  -0.005179   0.002764   0.051211
     3  O   -0.194572  -0.185087  -0.049843   0.058732  -0.001590   0.041442
     4  C   -0.025943  -0.433321  -0.005702   0.054784   0.000690  -0.104611
     5  O    0.022832   0.005201  -0.001484  -0.000075  -0.000011   0.001809
     6  N   -0.258404   0.216463  -0.185000   0.044779  -0.000353   0.033252
     7  C   -0.231228   0.331740  -0.060924  -0.008721  -0.000761   0.021590
     8  C   -0.021748  -0.066530  -0.030227   0.011999   0.000123  -0.008471
     9  C    0.070816   0.078030  -0.009888  -0.003095   0.000178   0.007318
    10  C    0.070297  -0.109161   0.026534  -0.002033  -0.000031  -0.008049
    11  C   -4.527153   2.733052  -0.163892  -0.398706   0.022408   0.500406
    12  O   -0.190458   0.062475  -0.092067   0.012896  -0.000660   0.021480
    13  C   29.728283 -13.773008   1.260989   0.352541   0.250502  -9.962276
    14  C  -13.773008  25.552183  -3.049843  -1.439336  -0.249976   6.672766
    15  C    1.260989  -3.049843   8.958150  -0.120339  -0.041249  -0.357939
    16  N    0.352541  -1.439336  -0.120339   8.247193   0.286939  -0.472980
    17  O    0.250502  -0.249976  -0.041249   0.286939   7.778973  -0.352370
    18  C   -9.962276   6.672766  -0.357939  -0.472980  -0.352370  22.705841
    19  C   -1.854030   2.242652  -0.236326  -0.241150   0.016014  -3.104282
    20  C    0.206284   0.120767   0.077694   0.007204   0.118668  -1.161176
    21  C    0.194850  -0.374059  -0.036279   0.016375  -0.024458  -0.717118
    22  Cl  -0.006223  -0.005254  -0.000787   0.000946  -0.000219  -0.016196
    23  C    4.020424  -2.936595  -0.215751   0.305643   0.017155  -5.651523
    24  C    3.188967  -9.092350  -0.187257   0.577902   0.143471  -3.684730
    25  N   -2.771572  -0.698953  -0.095086   0.176923  -0.053172   0.902308
    26  O   -0.294387   0.554674   0.010087  -0.059218  -0.010920   0.262396
    27  H    0.002963  -0.003376   0.002537  -0.000086   0.000019  -0.000435
    28  H   -0.018740   0.014314  -0.007337   0.001702  -0.000425  -0.003715
    29  H    0.001873  -0.013100   0.004795   0.001612  -0.000210   0.004006
    30  H   -0.010376   0.005029  -0.002097   0.000012  -0.000005   0.001084
    31  H    0.008737  -0.003416   0.002457  -0.000049  -0.000005  -0.000778
    32  H    0.004023   0.000773   0.000027  -0.000001   0.000000   0.000016
    33  H   -0.016187   0.002637   0.001502  -0.000048  -0.000000   0.001293
    34  H   -0.009218  -0.007407  -0.002912   0.000195   0.000000  -0.001265
    35  H    0.001979   0.000216  -0.000032   0.000002   0.000000  -0.000052
    36  H   -0.001303  -0.000284   0.000076  -0.000001  -0.000000  -0.000092
    37  H    0.005771  -0.003292  -0.000803   0.000066   0.000000  -0.001203
    38  H   -0.006138  -0.002345   0.001492  -0.000005  -0.000000   0.000105
    39  H    0.000741  -0.000141   0.000134  -0.000000  -0.000000  -0.000003
    40  H    0.002892  -0.001469   0.000401  -0.000000  -0.000000  -0.000114
    41  H    0.032181  -0.068300   0.389381   0.012814   0.003502  -0.005051
    42  H    0.022038  -0.110713   0.449941  -0.008270  -0.000879   0.013169
    43  H   -0.060823  -0.088912   0.521785  -0.031716   0.004698  -0.025474
    44  H    0.007335  -0.039249  -0.002732  -0.048289   0.011436   0.139184
    45  H    0.000909   0.002237  -0.000089   0.000216   0.000007  -0.031076
    46  H   -0.054664   0.025642   0.000624  -0.002500   0.000012   0.172518
              19         20         21         22         23         24
     1  C   -0.026576   0.000871  -0.005509  -0.000047   0.020577   0.032193
     2  C    0.028419  -0.003203   0.008602   0.000078  -0.011876  -0.073603
     3  O   -0.022368  -0.004378   0.011565   0.000048  -0.006694   0.197267
     4  C   -0.030591  -0.000490  -0.005393  -0.000169   0.044585   0.150338
     5  O   -0.000440  -0.000082   0.000033   0.000002  -0.003628   0.012173
     6  N   -0.027446  -0.001180  -0.017272   0.000058  -0.018530  -0.125515
     7  C   -0.001080  -0.003452   0.014389  -0.000073   0.000967  -0.048276
     8  C   -0.004414   0.001078  -0.001167   0.000060   0.005546   0.041059
     9  C    0.006213   0.000626  -0.005620   0.000059   0.014352  -0.120694
    10  C    0.000793  -0.000001   0.001064  -0.000006   0.002791   0.039330
    11  C    0.804985  -0.064670  -0.086888   0.001540  -0.202381  -0.938024
    12  O    0.000047  -0.000305   0.000543   0.000025   0.014121  -0.033451
    13  C   -1.854030   0.206284   0.194850  -0.006223   4.020424   3.188967
    14  C    2.242652   0.120767  -0.374059  -0.005254  -2.936595  -9.092350
    15  C   -0.236326   0.077694  -0.036279  -0.000787  -0.215751  -0.187257
    16  N   -0.241150   0.007204   0.016375   0.000946   0.305643   0.577902
    17  O    0.016014   0.118668  -0.024458  -0.000219   0.017155   0.143471
    18  C   -3.104282  -1.161176  -0.717118  -0.016196  -5.651523  -3.684730
    19  C   12.209993  -0.643572   0.104905   0.070502   0.025478  -2.892224
    20  C   -0.643572   8.459243   0.245621  -0.078983  -1.149474  -0.230032
    21  C    0.104905   0.245621   8.761125  -0.130149   0.441240  -2.712243
    22  Cl   0.070502  -0.078983  -0.130149  16.962919  -0.032899  -0.031365
    23  C    0.025478  -1.149474   0.441240  -0.032899  10.932316   1.250771
    24  C   -2.892224  -0.230032  -2.712243  -0.031365   1.250771  19.789966
    25  N    0.133980  -0.099680  -0.166204  -0.004048  -0.626435   0.999943
    26  O   -0.000507   0.008091   0.222847  -0.000369  -0.076156  -0.576145
    27  H   -0.000298   0.000076  -0.000009   0.000000  -0.000092  -0.000250
    28  H    0.005897  -0.000429  -0.000214   0.000002  -0.003640   0.001561
    29  H   -0.001094  -0.000017  -0.000036   0.000000   0.000131   0.001786
    30  H    0.000059   0.000011  -0.000054  -0.000000  -0.000561   0.000769
    31  H    0.000214  -0.000069  -0.000046   0.000002  -0.000087  -0.001101
    32  H    0.000001   0.000002  -0.000004  -0.000000   0.000198  -0.001517
    33  H    0.000116  -0.000008  -0.000038   0.000000  -0.000610   0.000527
    34  H    0.000017  -0.000008  -0.000127   0.000002   0.000656   0.003794
    35  H   -0.000002   0.000001  -0.000007  -0.000000   0.000088  -0.000999
    36  H   -0.000007  -0.000001  -0.000007  -0.000000  -0.000181   0.000387
    37  H    0.000017   0.000014  -0.000146   0.000003   0.002333  -0.004333
    38  H    0.000011  -0.000001  -0.000003  -0.000000  -0.000055  -0.000011
    39  H   -0.000000  -0.000000   0.000000  -0.000000  -0.000022   0.000142
    40  H   -0.000005   0.000000   0.000001  -0.000000   0.000017   0.000316
    41  H   -0.004590  -0.000132  -0.000180   0.000000   0.000971   0.004727
    42  H   -0.006037  -0.000457   0.000235   0.000001  -0.002006   0.003284
    43  H    0.007874   0.000704  -0.000566  -0.000000   0.000609  -0.020175
    44  H    0.240335  -0.066873  -0.017501   0.001430  -0.003327   0.099977
    45  H   -0.006242   0.223616   0.074628  -0.009122   0.050587   0.012695
    46  H   -0.040669   0.035015  -0.040682   0.004132   0.167724   0.093803
              25         26         27         28         29         30
     1  C   -0.002281  -0.000381   0.423993   0.430765   0.431076  -0.035939
     2  C    0.017173  -0.011175  -0.073668  -0.063337  -0.062436   0.439459
     3  O    0.082501   0.012227   0.003390  -0.002786  -0.005401  -0.053589
     4  C    0.228044  -0.044094   0.005131  -0.001934  -0.002114  -0.021319
     5  O   -0.014659   0.002446   0.000115  -0.000156  -0.000096   0.002895
     6  N    0.233785  -0.029958  -0.000357  -0.000941  -0.001450  -0.004394
     7  C   -0.199920   0.022207  -0.000159  -0.000357  -0.000471  -0.002386
     8  C    0.113641  -0.015672   0.000009   0.000060   0.000077   0.000457
     9  C   -0.056879  -0.004088   0.000042   0.000043   0.000009  -0.000559
    10  C   -0.015345   0.010698   0.000029  -0.000025   0.000083   0.000194
    11  C    0.034157   0.009892   0.000017   0.000794  -0.000671   0.001848
    12  O    0.047709  -0.002631  -0.000000   0.000004   0.000021   0.000001
    13  C   -2.771572  -0.294387   0.002963  -0.018740   0.001873  -0.010376
    14  C   -0.698953   0.554674  -0.003376   0.014314  -0.013100   0.005029
    15  C   -0.095086   0.010087   0.002537  -0.007337   0.004795  -0.002097
    16  N    0.176923  -0.059218  -0.000086   0.001702   0.001612   0.000012
    17  O   -0.053172  -0.010920   0.000019  -0.000425  -0.000210  -0.000005
    18  C    0.902308   0.262396  -0.000435  -0.003715   0.004006   0.001084
    19  C    0.133980  -0.000507  -0.000298   0.005897  -0.001094   0.000059
    20  C   -0.099680   0.008091   0.000076  -0.000429  -0.000017   0.000011
    21  C   -0.166204   0.222847  -0.000009  -0.000214  -0.000036  -0.000054
    22  Cl  -0.004048  -0.000369   0.000000   0.000002   0.000000  -0.000000
    23  C   -0.626435  -0.076156  -0.000092  -0.003640   0.000131  -0.000561
    24  C    0.999943  -0.576145  -0.000250   0.001561   0.001786   0.000769
    25  N    9.558222  -0.129150  -0.000206   0.004596  -0.000413   0.001487
    26  O   -0.129150   7.953092   0.000007  -0.000038  -0.000009   0.000008
    27  H   -0.000206   0.000007   0.539643  -0.025859  -0.025296  -0.001344
    28  H    0.004596  -0.000038  -0.025859   0.542613  -0.029386   0.004591
    29  H   -0.000413  -0.000009  -0.025296  -0.029386   0.537329  -0.005296
    30  H    0.001487   0.000008  -0.001344   0.004591  -0.005296   0.558901
    31  H   -0.001537  -0.000107  -0.001169  -0.005603   0.004464  -0.036295
    32  H   -0.000112   0.000719  -0.000000  -0.000000   0.000000  -0.000000
    33  H   -0.000997   0.000786  -0.000000   0.000000  -0.000000   0.000000
    34  H    0.017604  -0.007851  -0.000000  -0.000000  -0.000000  -0.000000
    35  H    0.000295   0.000300  -0.000000   0.000000   0.000000  -0.000000
    36  H   -0.000050   0.000432   0.000000   0.000000  -0.000000   0.000002
    37  H    0.004712  -0.005456  -0.000000  -0.000000   0.000000   0.000000
    38  H   -0.000103   0.000003  -0.000000   0.000000   0.000000  -0.000000
    39  H   -0.000166   0.000017  -0.000000   0.000000  -0.000000   0.000000
    40  H    0.000033   0.000004   0.000000  -0.000000   0.000000  -0.000006
    41  H    0.000614  -0.000352  -0.000000   0.000001  -0.000050  -0.000003
    42  H    0.002624  -0.000005   0.000002  -0.000023   0.000798  -0.000003
    43  H   -0.008169   0.000035  -0.000000  -0.000002   0.000007  -0.000000
    44  H   -0.001518   0.000040   0.000000  -0.000002   0.000000  -0.000000
    45  H    0.000224   0.000020   0.000000   0.000000  -0.000000  -0.000000
    46  H   -0.052028   0.014217   0.000000   0.000000   0.000000   0.000000
              31         32         33         34         35         36
     1  C   -0.023753  -0.000004   0.000001   0.000043   0.000014   0.000106
     2  C    0.428775  -0.000009  -0.000167  -0.000126  -0.000108   0.003002
     3  O   -0.053848   0.000014   0.000131  -0.000489   0.000025   0.000752
     4  C   -0.027385  -0.004076  -0.012521  -0.002286   0.003474   0.033619
     5  O    0.004200  -0.000088   0.000000   0.000143   0.001848  -0.020301
     6  N   -0.007733   0.010810  -0.011983   0.022351   0.000984  -0.016432
     7  C   -0.003290  -0.071103  -0.083306  -0.121036  -0.061847  -0.089563
     8  C    0.000032   0.415501   0.446989   0.493374   0.007277   0.021592
     9  C    0.001195   0.010877   0.015781  -0.034187   0.425089   0.472938
    10  C    0.000361  -0.012795  -0.022791   0.020308  -0.025654  -0.043308
    11  C    0.000838  -0.012162   0.046336  -0.023938  -0.009410  -0.009367
    12  O    0.000028   0.002955  -0.017982   0.001553  -0.000007  -0.000009
    13  C    0.008737   0.004023  -0.016187  -0.009218   0.001979  -0.001303
    14  C   -0.003416   0.000773   0.002637  -0.007407   0.000216  -0.000284
    15  C    0.002457   0.000027   0.001502  -0.002912  -0.000032   0.000076
    16  N   -0.000049  -0.000001  -0.000048   0.000195   0.000002  -0.000001
    17  O   -0.000005   0.000000  -0.000000   0.000000   0.000000  -0.000000
    18  C   -0.000778   0.000016   0.001293  -0.001265  -0.000052  -0.000092
    19  C    0.000214   0.000001   0.000116   0.000017  -0.000002  -0.000007
    20  C   -0.000069   0.000002  -0.000008  -0.000008   0.000001  -0.000001
    21  C   -0.000046  -0.000004  -0.000038  -0.000127  -0.000007  -0.000007
    22  Cl   0.000002  -0.000000   0.000000   0.000002  -0.000000  -0.000000
    23  C   -0.000087   0.000198  -0.000610   0.000656   0.000088  -0.000181
    24  C   -0.001101  -0.001517   0.000527   0.003794  -0.000999   0.000387
    25  N   -0.001537  -0.000112  -0.000997   0.017604   0.000295  -0.000050
    26  O   -0.000107   0.000719   0.000786  -0.007851   0.000300   0.000432
    27  H   -0.001169  -0.000000  -0.000000  -0.000000  -0.000000   0.000000
    28  H   -0.005603  -0.000000   0.000000  -0.000000   0.000000   0.000000
    29  H    0.004464   0.000000  -0.000000  -0.000000   0.000000  -0.000000
    30  H   -0.036295  -0.000000   0.000000  -0.000000  -0.000000   0.000002
    31  H    0.558758   0.000000  -0.000000  -0.000000   0.000000  -0.000016
    32  H    0.000000   0.558809  -0.027429  -0.024679   0.001747   0.000291
    33  H   -0.000000  -0.027429   0.521689  -0.026376   0.000238  -0.000153
    34  H   -0.000000  -0.024679  -0.026376   0.522005  -0.000017   0.000028
    35  H    0.000000   0.001747   0.000238  -0.000017   0.563965  -0.026003
    36  H   -0.000016   0.000291  -0.000153   0.000028  -0.026003   0.510378
    37  H   -0.000002  -0.000061   0.000015   0.002776  -0.026016  -0.025067
    38  H   -0.000000   0.000170   0.002655   0.000066   0.000075   0.000041
    39  H   -0.000000   0.001391  -0.000122   0.000068   0.001535   0.000089
    40  H    0.000000   0.000075   0.000076  -0.000153   0.000197   0.002463
    41  H   -0.000001  -0.000000  -0.000003   0.000000   0.000000   0.000000
    42  H    0.000001  -0.000000   0.000000   0.000000  -0.000000   0.000000
    43  H    0.000000   0.000000   0.000000   0.000000   0.000000  -0.000000
    44  H   -0.000000  -0.000000  -0.000000   0.000000   0.000000  -0.000000
    45  H    0.000000  -0.000000   0.000000  -0.000000  -0.000000   0.000000
    46  H    0.000000   0.000000  -0.000000  -0.000002   0.000000   0.000000
              37         38         39         40         41         42
     1  C    0.000064  -0.000038  -0.000013  -0.000039   0.002906  -0.002979
     2  C    0.000324   0.001135  -0.000338  -0.000731  -0.002218   0.002630
     3  O   -0.000235   0.000121   0.000025   0.000472  -0.002006   0.002025
     4  C    0.004219   0.014797  -0.004840  -0.001772   0.005694   0.000571
     5  O    0.000867  -0.000608   0.000707  -0.005103   0.000123  -0.000008
     6  N    0.018915  -0.000669  -0.006520  -0.017575   0.017288  -0.000307
     7  C   -0.115499  -0.112703  -0.029363  -0.088100   0.004658  -0.000476
     8  C   -0.027982  -0.021037  -0.017759   0.009370  -0.000001   0.000178
     9  C    0.477681   0.010083  -0.020584  -0.028599  -0.000314   0.000008
    10  C    0.021178   0.475627   0.423899   0.465904  -0.001428  -0.000052
    11  C   -0.022975  -0.007255   0.004533   0.022105  -0.037590  -0.015676
    12  O    0.000213   0.000383  -0.000291  -0.000797  -0.003669   0.001200
    13  C    0.005771  -0.006138   0.000741   0.002892   0.032181   0.022038
    14  C   -0.003292  -0.002345  -0.000141  -0.001469  -0.068300  -0.110713
    15  C   -0.000803   0.001492   0.000134   0.000401   0.389381   0.449941
    16  N    0.000066  -0.000005  -0.000000  -0.000000   0.012814  -0.008270
    17  O    0.000000  -0.000000  -0.000000  -0.000000   0.003502  -0.000879
    18  C   -0.001203   0.000105  -0.000003  -0.000114  -0.005051   0.013169
    19  C    0.000017   0.000011  -0.000000  -0.000005  -0.004590  -0.006037
    20  C    0.000014  -0.000001  -0.000000   0.000000  -0.000132  -0.000457
    21  C   -0.000146  -0.000003   0.000000   0.000001  -0.000180   0.000235
    22  Cl   0.000003  -0.000000  -0.000000  -0.000000   0.000000   0.000001
    23  C    0.002333  -0.000055  -0.000022   0.000017   0.000971  -0.002006
    24  C   -0.004333  -0.000011   0.000142   0.000316   0.004727   0.003284
    25  N    0.004712  -0.000103  -0.000166   0.000033   0.000614   0.002624
    26  O   -0.005456   0.000003   0.000017   0.000004  -0.000352  -0.000005
    27  H   -0.000000  -0.000000  -0.000000   0.000000  -0.000000   0.000002
    28  H   -0.000000   0.000000   0.000000  -0.000000   0.000001  -0.000023
    29  H    0.000000   0.000000  -0.000000   0.000000  -0.000050   0.000798
    30  H    0.000000  -0.000000   0.000000  -0.000006  -0.000003  -0.000003
    31  H   -0.000002  -0.000000  -0.000000   0.000000  -0.000001   0.000001
    32  H   -0.000061   0.000170   0.001391   0.000075  -0.000000  -0.000000
    33  H    0.000015   0.002655  -0.000122   0.000076  -0.000003   0.000000
    34  H    0.002776   0.000066   0.000068  -0.000153   0.000000   0.000000
    35  H   -0.026016   0.000075   0.001535   0.000197   0.000000  -0.000000
    36  H   -0.025067   0.000041   0.000089   0.002463   0.000000   0.000000
    37  H    0.518022  -0.000147   0.000078   0.000036   0.000000  -0.000000
    38  H   -0.000147   0.541619  -0.027124  -0.027322  -0.000006   0.000000
    39  H    0.000078  -0.027124   0.552133  -0.025105  -0.000000   0.000000
    40  H    0.000036  -0.027322  -0.025105   0.517985   0.000001   0.000000
    41  H    0.000000  -0.000006  -0.000000   0.000001   0.539738  -0.027464
    42  H   -0.000000   0.000000   0.000000   0.000000  -0.027464   0.513567
    43  H   -0.000000   0.000000  -0.000000  -0.000000  -0.024707  -0.021829
    44  H    0.000000  -0.000000  -0.000000   0.000000  -0.000000   0.000001
    45  H    0.000000   0.000000   0.000000  -0.000000   0.000000  -0.000000
    46  H   -0.000005   0.000000  -0.000000   0.000000  -0.000000   0.000000
              43         44         45         46
     1  C    0.000032   0.000041  -0.000014  -0.000050
     2  C   -0.000107  -0.000093   0.000007   0.000018
     3  O   -0.000190   0.000004  -0.000000   0.000063
     4  C   -0.000457  -0.000002  -0.000001  -0.000294
     5  O   -0.000001   0.000000  -0.000000  -0.000001
     6  N   -0.002245   0.000004  -0.000000  -0.000329
     7  C   -0.000126   0.000002   0.000000   0.000203
     8  C   -0.000001   0.000001  -0.000000  -0.000112
     9  C    0.000085  -0.000000  -0.000000   0.000019
    10  C    0.000112  -0.000000   0.000000   0.000001
    11  C    0.053986  -0.002185   0.000209  -0.006953
    12  O   -0.000572   0.000001  -0.000000   0.000019
    13  C   -0.060823   0.007335   0.000909  -0.054664
    14  C   -0.088912  -0.039249   0.002237   0.025642
    15  C    0.521785  -0.002732  -0.000089   0.000624
    16  N   -0.031716  -0.048289   0.000216  -0.002500
    17  O    0.004698   0.011436   0.000007   0.000012
    18  C   -0.025474   0.139184  -0.031076   0.172518
    19  C    0.007874   0.240335  -0.006242  -0.040669
    20  C    0.000704  -0.066873   0.223616   0.035015
    21  C   -0.000566  -0.017501   0.074628  -0.040682
    22  Cl  -0.000000   0.001430  -0.009122   0.004132
    23  C    0.000609  -0.003327   0.050587   0.167724
    24  C   -0.020175   0.099977   0.012695   0.093803
    25  N   -0.008169  -0.001518   0.000224  -0.052028
    26  O    0.000035   0.000040   0.000020   0.014217
    27  H   -0.000000   0.000000   0.000000   0.000000
    28  H   -0.000002  -0.000002   0.000000   0.000000
    29  H    0.000007   0.000000  -0.000000   0.000000
    30  H   -0.000000  -0.000000  -0.000000   0.000000
    31  H    0.000000  -0.000000   0.000000   0.000000
    32  H    0.000000  -0.000000  -0.000000   0.000000
    33  H    0.000000  -0.000000   0.000000  -0.000000
    34  H    0.000000   0.000000  -0.000000  -0.000002
    35  H    0.000000   0.000000  -0.000000   0.000000
    36  H   -0.000000  -0.000000   0.000000   0.000000
    37  H   -0.000000   0.000000   0.000000  -0.000005
    38  H    0.000000  -0.000000   0.000000   0.000000
    39  H   -0.000000  -0.000000   0.000000  -0.000000
    40  H   -0.000000   0.000000  -0.000000   0.000000
    41  H   -0.024707  -0.000000   0.000000  -0.000000
    42  H   -0.021829   0.000001  -0.000000   0.000000
    43  H    0.509113  -0.000000  -0.000000   0.000000
    44  H   -0.000000   0.502783  -0.004723   0.000008
    45  H   -0.000000  -0.004723   0.527092  -0.000131
    46  H    0.000000   0.000008  -0.000131   0.492051
 Mulliken charges:
               1
     1  C   -0.585708
     2  C    0.128624
     3  O   -0.224212
     4  C    0.548559
     5  O   -0.443715
     6  N   -0.063605
     7  C   -0.144723
     8  C   -0.364162
     9  C   -0.475329
    10  C   -0.375751
    11  C   -0.388828
    12  O   -0.261691
    13  C    0.876330
    14  C    0.084405
    15  C   -0.705356
    16  N   -0.342722
    17  O    0.080853
    18  C    0.178195
    19  C   -0.754573
    20  C    0.003084
    21  C    0.243954
    22  Cl   0.274101
    23  C   -0.376759
    24  C    0.127147
    25  N   -0.561889
    26  O    0.183425
    27  H    0.154630
    28  H    0.158006
    29  H    0.159478
    30  H    0.157421
    31  H    0.156226
    32  H    0.145640
    33  H    0.179946
    34  H    0.177090
    35  H    0.140805
    36  H    0.185949
    37  H    0.175914
    38  H    0.157186
    39  H    0.146898
    40  H    0.174541
    41  H    0.163466
    42  H    0.184909
    43  H    0.187031
    44  H    0.183914
    45  H    0.158951
    46  H    0.192349
 Sum of Mulliken charges =  -0.00000
 Mulliken charges with hydrogens summed into heavy atoms:
               1
     1  C   -0.113594
     2  C    0.442271
     3  O   -0.224212
     4  C    0.548559
     5  O   -0.443715
     6  N   -0.063605
     7  C   -0.144723
     8  C    0.138514
     9  C    0.027338
    10  C    0.102873
    11  C   -0.388828
    12  O   -0.261691
    13  C    0.876330
    14  C    0.084405
    15  C   -0.169950
    16  N   -0.342722
    17  O    0.080853
    18  C    0.178195
    19  C   -0.570659
    20  C    0.162035
    21  C    0.243954
    22  Cl   0.274101
    23  C   -0.184410
    24  C    0.127147
    25  N   -0.561889
    26  O    0.183425
 Electronic spatial extent (au):  <R**2>=          10052.9718
 Charge=             -0.0000 electrons
 Dipole moment (field-independent basis, Debye):
    X=              1.1194    Y=              1.0842    Z=              1.5415  Tot=              2.1920
 Quadrupole moment (field-independent basis, Debye-Ang):
   XX=           -156.5927   YY=           -165.7468   ZZ=           -164.3589
   XY=             -2.3342   XZ=              4.0353   YZ=              8.4963
 Traceless Quadrupole moment (field-independent basis, Debye-Ang):
   XX=              5.6401   YY=             -3.5140   ZZ=             -2.1261
   XY=             -2.3342   XZ=              4.0353   YZ=              8.4963
 Octapole moment (field-independent basis, Debye-Ang**2):
  XXX=             42.4220  YYY=            -19.0404  ZZZ=             31.1841  XYY=            -52.3817
  XXY=             -3.9704  XXZ=            -16.6008  XZZ=             11.0898  YZZ=             15.0430
  YYZ=             21.3086  XYZ=             -2.9517
 Hexadecapole moment (field-independent basis, Debye-Ang**3):
 XXXX=          -8245.4049 YYYY=          -3185.9067 ZZZZ=          -1784.1027 XXXY=            139.0781
 XXXZ=             84.3144 YYYX=           -149.7628 YYYZ=             39.5525 ZZZX=            -17.4436
 ZZZY=             48.7608 XXYY=          -1949.6238 XXZZ=          -1853.0509 YYZZ=           -788.5348
 XXYZ=             51.3859 YYXZ=             38.5767 ZZXY=            -43.1656
 N-N= 2.679168736223D+03 E-N=-9.245110842646D+03  KE= 1.647922790815D+03
 Unable to Open any file for archive entry.
 1\1\GINC-N2\SP\RB3LYP TD-FC\6-31+G(d,p)\C17H20Cl1N3O5\HPCMGAC13\19-Sep
 -2025\0\\# td=(50-50,nstates=3) b3lyp/6-31+g(d,p) geom=connectivity\\T
 itle Card Required\\0,1\C,0,-0.310105,2.641715,2.730764\C,0,-1.457673,
 1.650895,2.728895\O,0,-1.536075,1.066216,1.398248\C,0,-2.498475,0.1265
 13,1.233469\O,0,-3.263487,-0.191791,2.12246\N,0,-2.53842,-0.372245,-0.
 070009\C,0,-3.568586,-1.462558,-0.411514\C,0,-3.281527,-2.061456,-1.80
 2007\C,0,-3.411039,-2.61396,0.606852\C,0,-4.979102,-0.854485,-0.37992\
 C,0,-1.749677,0.201317,-1.084492\O,0,-2.189064,0.450321,-2.192883\C,0,
 -0.283578,0.482325,-0.833861\C,0,0.262273,1.755815,-1.093176\C,0,-0.53
 1783,2.956887,-1.489507\N,0,1.595909,1.963692,-0.946121\O,0,2.116459,3
 .12038,-1.158263\C,0,2.415945,0.900488,-0.55221\C,0,3.800301,1.099691,
 -0.396593\C,0,4.604077,0.043858,-0.015514\C,0,4.032609,-1.22833,0.2115
 \Cl,0,5.078265,-2.547458,0.691021\C,0,2.678726,-1.451994,0.061678\C,0,
 1.861301,-0.372652,-0.319191\N,0,0.484423,-0.574585,-0.475768\O,0,-0.0
 0354,-1.75233,-0.298441\H,0,-0.233575,3.101261,3.721501\H,0,0.642328,2
 .149942,2.511466\H,0,-0.468452,3.438796,1.998457\H,0,-2.415372,2.12999
 2,2.950071\H,0,-1.307007,0.844597,3.451326\H,0,-3.937792,-2.928381,-1.
 919786\H,0,-3.483321,-1.366972,-2.616248\H,0,-2.24779,-2.410661,-1.877
 218\H,0,-4.059864,-3.437378,0.292587\H,0,-3.691357,-2.320966,1.616344\
 H,0,-2.377991,-2.973598,0.609175\H,0,-5.068847,-0.055355,-1.122308\H,0
 ,-5.713367,-1.629578,-0.624072\H,0,-5.21904,-0.457003,0.608458\H,0,-1.
 598797,2.750795,-1.500325\H,0,-0.305855,3.780512,-0.804792\H,0,-0.2229
 5,3.292676,-2.485425\H,0,4.19694,2.089249,-0.58606\H,0,5.672121,0.1821
 82,0.108366\H,0,2.219634,-2.418146,0.224398\\Version=ES64L-G16RevC.02\
 State=1-A\HF=-1660.4070008\RMSD=4.546e-09\PG=C01 [X(C17H20Cl1N3O5)]\\@
 The archive entry for this job was punched.


 In the beginning there was nothing, which exploded.
 Job cpu time:       0 days  2 hours 28 minutes 11.0 seconds.
 Elapsed time:       0 days  0 hours 18 minutes 46.2 seconds.
 File lengths (MBytes):  RWF=   1997 Int=      0 D2E=      0 Chk=     93 Scr=      2
 Normal termination of Gaussian 16 at Fri Sep 19 15:16:14 2025.
