 Entering Gaussian System, Link 0=g16
 Input=M2030e.gjf
 Output=M2030e.log
 Initial command:
 /hpc/softwares/Gaussian/g16/l1.exe "/hpc/home/hpcmgac13/pbs.14229.admin1.x8z/Gau-8922.inp" -scrdir="/hpc/home/hpcmgac13/pbs.14229.admin1.x8z/"
 Default linda workers: n2
 Default is to use   8 SMP processors on each worker.
 Entering Link 1 = /hpc/softwares/Gaussian/g16/l1.exe PID=      8923.
  
 Copyright (c) 1988-2021, Gaussian, Inc.  All Rights Reserved.
  
 This is part of the Gaussian(R) 16 program.  It is based on
 the Gaussian(R) 09 system (copyright 2009, Gaussian, Inc.),
 the Gaussian(R) 03 system (copyright 2003, Gaussian, Inc.),
 the Gaussian(R) 98 system (copyright 1998, Gaussian, Inc.),
 the Gaussian(R) 94 system (copyright 1995, Gaussian, Inc.),
 the Gaussian 92(TM) system (copyright 1992, Gaussian, Inc.),
 the Gaussian 90(TM) system (copyright 1990, Gaussian, Inc.),
 the Gaussian 88(TM) system (copyright 1988, Gaussian, Inc.),
 the Gaussian 86(TM) system (copyright 1986, Carnegie Mellon
 University), and the Gaussian 82(TM) system (copyright 1983,
 Carnegie Mellon University). Gaussian is a federally registered
 trademark of Gaussian, Inc.
  
 This software contains proprietary and confidential information,
 including trade secrets, belonging to Gaussian, Inc.
  
 This software is provided under written license and may be
 used, copied, transmitted, or stored only in accord with that
 written license.
  
 The following legend is applicable only to US Government
 contracts under FAR:
  
                    RESTRICTED RIGHTS LEGEND
  
 Use, reproduction and disclosure by the US Government is
 subject to restrictions as set forth in subparagraphs (a)
 and (c) of the Commercial Computer Software - Restricted
 Rights clause in FAR 52.227-19.
  
 Gaussian, Inc.
 340 Quinnipiac St., Bldg. 40, Wallingford CT 06492
  
  
 ---------------------------------------------------------------
 Warning -- This program may not be used in any manner that
 competes with the business of Gaussian, Inc. or will provide
 assistance to any competitor of Gaussian, Inc.  The licensee
 of this program is prohibited from giving any competitor of
 Gaussian, Inc. access to this program.  By using this program,
 the user acknowledges that Gaussian, Inc. is engaged in the
 business of creating and licensing software in the field of
 computational chemistry and represents and warrants to the
 licensee that it is not a competitor of Gaussian, Inc. and that
 it will not use this program in any manner prohibited above.
 ---------------------------------------------------------------
  

 Cite this work as:
 Gaussian 16, Revision C.02,
 M. J. Frisch, G. W. Trucks, H. B. Schlegel, G. E. Scuseria, 
 M. A. Robb, J. R. Cheeseman, G. Scalmani, V. Barone, 
 G. A. Petersson, H. Nakatsuji, X. Li, M. Caricato, A. V. Marenich, 
 J. Bloino, B. G. Janesko, R. Gomperts, B. Mennucci, H. P. Hratchian, 
 J. V. Ortiz, A. F. Izmaylov, J. L. Sonnenberg, D. Williams-Young, 
 F. Ding, F. Lipparini, F. Egidi, J. Goings, B. Peng, A. Petrone, 
 T. Henderson, D. Ranasinghe, V. G. Zakrzewski, J. Gao, N. Rega, 
 G. Zheng, W. Liang, M. Hada, M. Ehara, K. Toyota, R. Fukuda, 
 J. Hasegawa, M. Ishida, T. Nakajima, Y. Honda, O. Kitao, H. Nakai, 
 T. Vreven, K. Throssell, J. A. Montgomery, Jr., J. E. Peralta, 
 F. Ogliaro, M. J. Bearpark, J. J. Heyd, E. N. Brothers, K. N. Kudin, 
 V. N. Staroverov, T. A. Keith, R. Kobayashi, J. Normand, 
 K. Raghavachari, A. P. Rendell, J. C. Burant, S. S. Iyengar, 
 J. Tomasi, M. Cossi, J. M. Millam, M. Klene, C. Adamo, R. Cammi, 
 J. W. Ochterski, R. L. Martin, K. Morokuma, O. Farkas, 
 J. B. Foresman, and D. J. Fox, Gaussian, Inc., Wallingford CT, 2019.
 
 ******************************************
 Gaussian 16:  ES64L-G16RevC.02  7-Dec-2021
                22-Sep-2025 
 ******************************************
 SetLPE:    new flags="-opt 'Tsnet.Node.lindarsharg: ssh'  -nodelist 'n2.head.cm.mguif.local' -env GAUSS_MDEF=2147483648 -env GAUSS_EXEDIR="/hpc/softwares/Gaussian/g16/bsd:/hpc/softwares/Gaussian/g16""
 Will use up to    1 processors via Linda.
 ----------------------------------------------------------
 # td=(50-50,nstates=3) b3lyp/6-31+g(d,p) geom=connectivity
 ----------------------------------------------------------
 1/38=1,57=2,172=1/1;
 2/12=2,17=6,18=5,40=1/2;
 3/5=1,6=6,7=111,11=9,25=1,30=1,74=-5/1,2,3,8;
 4//1;
 5/5=2,38=5/2;
 8/6=1,10=2,108=3/1;
 9/41=3,42=1,48=2,70=2/14;
 6/7=2,8=2,9=2,10=2/1;
 99/5=1,9=1/99;
 -------------------
 Title Card Required
 -------------------
 Symbolic Z-matrix:
 Charge =  0 Multiplicity = 1
 C                     5.13631   1.40993   0.68654 
 C                     4.79663   0.23535   1.53927 
 N                     4.00434  -0.74319   1.19713 
 O                     3.68523  -1.73767   1.95689 
 C                     3.43843  -0.86721  -0.14497 
 C                     4.12901  -1.69922  -1.02388 
 C                     3.60984  -1.96782  -2.29019 
 C                     2.37978  -1.42378  -2.66889 
 C                     1.68012  -0.61747  -1.77615 
 C                     2.19386  -0.3126   -0.50312 
 C                     1.43918   0.61275   0.38541 
 O                     1.95962   1.27714   1.26685 
 C                    -0.04886   0.81494   0.13451 
 C                    -0.57812   2.07977  -0.18698 
 C                     0.23922   3.30836  -0.42245 
 N                    -1.92123   2.23626  -0.33312 
 O                    -2.42633   3.37708  -0.64528 
 C                    -2.76277   1.13493  -0.14272 
 C                    -4.15565   1.28097  -0.2829 
 C                    -4.97955   0.19046  -0.08927 
 C                    -4.42201  -1.06339   0.25009 
 Cl                   -5.49535  -2.42354   0.49166 
 C                    -3.06012  -1.23446   0.39602 
 C                    -2.22321  -0.12295   0.19212 
 N                    -0.83726  -0.27076   0.33164 
 O                    -0.34361  -1.40812   0.65604 
 H                     6.21629   1.5959    0.71208 
 H                     4.83645   1.27463  -0.3547 
 H                     4.6384    2.31058   1.06917 
 H                     5.16138   0.16132   2.5586 
 H                     5.06462  -2.14117  -0.69782 
 H                     4.15994  -2.60816  -2.97278 
 H                     1.96453  -1.63377  -3.6493 
 H                     0.72015  -0.20489  -2.07002 
 H                     1.30449   3.10412  -0.34405 
 H                    -0.00058   3.72387  -1.40668 
 H                    -0.03161   4.0774    0.3089 
 H                    -4.54234   2.2591   -0.54011 
 H                    -6.05421   0.28843  -0.19296 
 H                    -2.60939  -2.18209   0.66114 
 
                          Input orientation:                          
 ---------------------------------------------------------------------
 Center     Atomic      Atomic             Coordinates (Angstroms)
 Number     Number       Type             X           Y           Z
 ---------------------------------------------------------------------
      1          6           0        5.136310    1.409927    0.686538
      2          6           0        4.796628    0.235352    1.539265
      3          7           0        4.004336   -0.743194    1.197130
      4          8           0        3.685229   -1.737668    1.956894
      5          6           0        3.438428   -0.867206   -0.144969
      6          6           0        4.129015   -1.699222   -1.023882
      7          6           0        3.609835   -1.967818   -2.290185
      8          6           0        2.379784   -1.423775   -2.668889
      9          6           0        1.680118   -0.617468   -1.776146
     10          6           0        2.193858   -0.312595   -0.503119
     11          6           0        1.439184    0.612746    0.385414
     12          8           0        1.959620    1.277144    1.266845
     13          6           0       -0.048858    0.814935    0.134505
     14          6           0       -0.578119    2.079772   -0.186980
     15          6           0        0.239218    3.308355   -0.422446
     16          7           0       -1.921228    2.236257   -0.333115
     17          8           0       -2.426330    3.377078   -0.645279
     18          6           0       -2.762771    1.134934   -0.142716
     19          6           0       -4.155647    1.280965   -0.282896
     20          6           0       -4.979551    0.190459   -0.089270
     21          6           0       -4.422006   -1.063390    0.250093
     22         17           0       -5.495350   -2.423544    0.491661
     23          6           0       -3.060122   -1.234456    0.396017
     24          6           0       -2.223205   -0.122952    0.192115
     25          7           0       -0.837262   -0.270758    0.331641
     26          8           0       -0.343605   -1.408121    0.656040
     27          1           0        6.216286    1.595900    0.712078
     28          1           0        4.836448    1.274632   -0.354702
     29          1           0        4.638398    2.310583    1.069175
     30          1           0        5.161378    0.161324    2.558600
     31          1           0        5.064623   -2.141167   -0.697815
     32          1           0        4.159939   -2.608159   -2.972779
     33          1           0        1.964530   -1.633765   -3.649301
     34          1           0        0.720153   -0.204892   -2.070020
     35          1           0        1.304491    3.104123   -0.344053
     36          1           0       -0.000576    3.723870   -1.406683
     37          1           0       -0.031609    4.077396    0.308902
     38          1           0       -4.542337    2.259100   -0.540108
     39          1           0       -6.054208    0.288428   -0.192960
     40          1           0       -2.609394   -2.182094    0.661139
 ---------------------------------------------------------------------
                    Distance matrix (angstroms):
                    1          2          3          4          5
     1  C    0.000000
     2  C    1.490689   0.000000
     3  N    2.485558   1.304736   0.000000
     4  O    3.691449   2.302701   1.291530   0.000000
     5  C    2.959652   2.428371   1.461800   2.288328   0.000000
     6  C    3.688765   3.279940   2.421245   3.013876   1.393431
     7  C    4.753963   4.574617   3.717082   4.253979   2.417163
     8  C    5.185286   5.128586   4.248348   4.816698   2.792968
     9  C    4.703234   4.629459   3.775999   4.383025   2.411382
    10  C    3.611148   3.353504   2.520733   3.210403   1.408836
    11  C    3.794063   3.570186   3.012882   3.610916   2.543333
    12  O    3.231988   3.034495   2.875324   3.541608   2.962824
    13  C    5.248307   5.078189   4.470494   4.876504   3.881864
    14  C    5.819487   5.938831   5.557319   6.111070   4.981877
    15  C    5.367996   5.836235   5.763175   6.557332   5.267566
    16  N    7.178534   7.255275   6.806694   7.243520   6.196192
    17  O    7.926976   8.173971   7.856499   8.383501   7.256696
    18  C    7.947249   7.796334   7.149566   7.364571   6.516398
    19  C    9.343281   9.195477   8.536570   8.695294   7.893265
    20  C   10.218592   9.910995   9.123418   9.109494   8.484346
    21  C    9.882772   9.398506   8.485437   8.312345   7.872800
    22  Cl  11.303348  10.681386   9.672916   9.322036   9.090648
    23  C    8.617347   8.074396   7.126688   6.941853   6.531362
    24  C    7.533700   7.156902   6.338535   6.374272   5.720282
    25  N    6.215643   5.784049   4.940986   5.024559   4.343320
    26  O    6.162126   5.468371   4.431647   4.246449   3.903585
    27  H    1.096169   2.133251   3.255666   4.366748   3.810238
    28  H    1.091972   2.160741   2.678099   3.967711   2.566304
    29  H    1.097957   2.133683   3.121532   4.252636   3.607273
    30  H    2.250390   1.085157   2.002623   2.479362   3.366856
    31  H    3.812065   3.274781   2.582509   3.018778   2.138487
    32  H    5.521677   5.371170   4.570607   5.028397   3.398236
    33  H    6.174443   6.199645   5.333087   5.865239   3.878187
    34  H    5.450568   5.462454   4.663678   5.230403   3.396101
    35  H    4.314540   4.896096   4.946338   5.865596   4.512735
    36  H    6.010283   6.622804   6.540170   7.397784   5.873385
    37  H    5.827983   6.291818   6.349479   7.095473   6.057743
    38  H    9.792955   9.779346   9.223740   9.481667   8.580357
    39  H   11.280912  10.988360  10.206415  10.177601   9.562841
    40  H    8.538102   7.839918   6.789635   6.441954   6.241385
                    6          7          8          9         10
     6  C    0.000000
     7  C    1.394710   0.000000
     8  C    2.416967   1.397292   0.000000
     9  C    2.780861   2.410703   1.391637   0.000000
    10  C    2.436957   2.817509   2.441280   1.406227   0.000000
    11  C    3.816609   4.304633   3.789580   2.498763   1.488382
    12  O    4.337333   5.089740   4.791816   3.595479   2.390588
    13  C    5.011733   5.197006   4.332337   2.948173   2.589916
    14  C    6.094121   6.192367   5.213819   3.860076   3.675217
    15  C    6.369307   6.533568   5.658762   4.395541   4.115629
    16  N    7.250558   7.217827   6.111496   4.816200   4.843499
    17  O    8.299681   8.228543   7.088153   5.839364   5.914392
    18  C    7.503706   7.405998   6.274903   5.047600   5.176234
    19  C    8.835508   8.653699   7.464612   6.315853   6.550126
    20  C    9.349351   9.125773   7.963667   6.917332   7.202925
    21  C    8.668752   8.472395   7.410444   6.445185   6.700797
    22  Cl   9.769847   9.531566   8.544375   7.739005   8.035522
    23  C    7.342739   7.227851   6.246765   5.250604   5.409490
    24  C    6.656874   6.602250   5.573598   4.399378   4.475462
    25  N    5.342458   5.434212   4.547748   3.301541   3.144243
    26  O    4.786565   4.962176   4.297935   3.261306   2.997089
    27  H    4.269436   5.339219   5.938697   5.627351   4.615082
    28  H    3.129228   3.970410   4.321118   3.944992   3.086195
    29  H    4.551801   5.536060   5.746294   5.041900   3.915220
    30  H    4.166723   5.518265   6.129963   5.613886   4.290093
    31  H    1.084895   2.163816   3.407073   3.865143   3.409234
    32  H    2.150656   1.085627   2.159645   3.397689   3.903115
    33  H    3.403249   2.160050   1.085237   2.149991   3.420021
    34  H    3.866234   3.392144   2.144457   1.085409   2.153737
    35  H    5.613575   5.901409   5.202209   4.005275   3.534153
    36  H    6.827151   6.797864   5.810123   4.669952   4.682416
    37  H    7.242680   7.520637   6.704099   5.414719   4.988397
    38  H    9.544354   9.348129   8.124718   6.965729   7.210500
    39  H   10.408613  10.143112   8.955115   7.946504   8.275749
    40  H    6.962659   6.887310   6.046158   5.175744   5.284104
                   11         12         13         14         15
    11  C    0.000000
    12  O    1.220327   0.000000
    13  C    1.522532   2.351556   0.000000
    14  C    2.559162   3.032810   1.408291   0.000000
    15  C    3.059226   3.152666   2.571055   1.494289   0.000000
    16  N    3.800584   4.305897   2.396788   1.360068   2.413483
    17  O    4.862721   5.225179   3.581203   2.304110   2.675729
    18  C    4.267087   4.930321   2.746739   2.380626   3.716712
    19  C    5.674089   6.308582   4.154169   3.666879   4.841965
    20  C    6.450102   7.153463   4.975116   4.790789   6.088336
    21  C    6.097646   6.872920   4.760871   4.984573   6.425844
    22  Cl   7.570872   8.358982   6.346620   6.702206   8.159383
    23  C    4.863746   5.680166   3.651863   4.181427   5.673857
    24  C    3.740549   4.539971   2.368699   2.775250   4.267913
    25  N    2.442474   3.330639   1.356161   2.420974   3.812808
    26  O    2.708409   3.590066   2.302358   3.595981   4.873188
    27  H    4.888149   4.304483   6.339994   6.870690   6.320205
    28  H    3.539388   3.302357   4.931213   5.476670   5.027439
    29  H    3.685804   2.878006   5.008087   5.370591   4.751133
    30  H    4.333734   3.628352   5.783598   6.645335   6.558818
    31  H    4.679875   5.018544   5.964812   7.065254   7.284068
    32  H    5.390195   6.157223   6.251940   7.224027   7.541975
    33  H    4.647766   5.713310   4.936299   5.678300   6.149296
    34  H    2.686018   3.855824   2.547814   3.232807   3.910077
    35  H    2.599466   2.522308   2.702028   2.148997   1.087503
    36  H    3.868283   4.120266   3.292339   2.127038   1.094932
    37  H    3.764689   3.567080   3.267164   2.129571   1.095281
    38  H    6.272612   6.819440   4.767816   3.983953   4.896739
    39  H    7.522674   8.205488   6.037274   5.761640   6.984256
    40  H    4.927285   5.762733   3.976917   4.796758   6.279632
                   16         17         18         19         20
    16  N    0.000000
    17  O    1.286098   0.000000
    18  C    1.399056   2.322277   0.000000
    19  C    2.430583   2.741450   1.407508   0.000000
    20  C    3.687559   4.120998   2.410187   1.380403   0.000000
    21  C    4.181111   4.949967   2.782083   2.418889   1.413563
    22  Cl   5.930291   6.660235   4.531246   4.014739   2.727002
    23  C    3.724857   4.769930   2.447991   2.826383   2.439281
    24  C    2.435759   3.604539   1.409085   2.435354   2.788341
    25  N    2.811051   4.097099   2.430755   3.714455   4.189086
    26  O    4.092531   5.378597   3.599653   4.758618   4.960135
    27  H    8.229315   8.928036   9.031424  10.424306  11.312126
    28  H    6.825787   7.566549   7.603459   8.992384   9.879257
    29  H    6.708251   7.347595   7.591320   8.956754   9.916747
    30  H    7.926580   8.841902   8.428355   9.804828  10.480959
    31  H    8.252088   9.304201   8.503474   9.843603  10.329193
    32  H    8.210772   9.198873   8.363248   9.566072   9.983845
    33  H    6.408844   7.308375   6.504553   7.568679   8.013855
    34  H    3.994113   4.976018   4.200047   5.401390   6.047007
    35  H    3.340445   3.752901   4.523368   5.756801   6.931344
    36  H    2.656020   2.565986   3.991231   4.949272   6.245860
    37  H    2.715260   2.671254   4.039961   5.017763   6.304677
    38  H    2.629369   2.395500   2.142084   1.082790   2.161871
    39  H    4.571127   4.786006   3.398920   2.144237   1.084084
    40  H    4.580823   5.713548   3.416487   3.908309   3.436534
                   21         22         23         24         25
    21  C    0.000000
    22  Cl   1.749412   0.000000
    23  C    1.380321   2.711718   0.000000
    24  C    2.392177   4.011157   1.406217   0.000000
    25  N    3.672234   5.133992   2.423626   1.400768   0.000000
    26  O    4.113027   5.253435   2.734454   2.323743   1.281611
    27  H   10.975359  12.384140   9.703739   8.628431   7.306277
    28  H    9.568234  11.006311   8.319550   7.217406   5.920328
    29  H    9.702861  11.199925   8.502215   7.333002   6.098371
    30  H    9.933296  11.158836   8.614989   7.759712   6.413246
    31  H    9.594595  10.630504   8.248035   7.614303   6.276182
    32  H    9.296397  10.259680   8.084870   7.545683   6.430758
    33  H    7.504561   8.568613   6.463062   5.880149   5.055267
    34  H    5.706290   7.079343   4.629451   3.713129   2.863190
    35  H    7.107316   8.802918   6.198453   4.811042   4.053824
    36  H    6.723973   8.460907   6.098815   4.721681   4.436087
    37  H    6.760675   8.494003   6.115166   4.739162   4.422221
    38  H    3.417285   4.888756   3.908737   3.404217   4.570307
    39  H    2.165131   2.852336   3.410370   3.872222   5.272990
    40  H    2.169336   2.900993   1.082342   2.146903   2.627209
                   26         27         28         29         30
    26  O    0.000000
    27  H    7.215224   0.000000
    28  H    5.920449   1.773467   0.000000
    29  H    6.230553   1.768621   1.771960   0.000000
    30  H    6.032224   2.565245   3.135660   2.666685   0.000000
    31  H    5.623096   4.156897   3.440563   4.808534   3.989369
    32  H    5.906803   5.956580   4.731602   6.384382   6.266504
    33  H    4.890231   6.894185   5.249864   6.706077   7.209731
    34  H    3.163976   6.417975   4.698424   5.615586   6.425163
    35  H    4.906807   5.245558   3.977672   3.707001   5.653409
    36  H    5.541645   6.904113   5.522883   5.444936   7.420308
    37  H    5.505338   6.734728   5.656309   5.050605   6.882142
    38  H    5.701634  10.851533   9.432134   9.320855  10.400228
    39  H    6.017480  12.373100  10.936414  10.955086  11.548879
    40  H    2.394339   9.600441   8.271726   8.537045   8.335278
                   31         32         33         34         35
    31  H    0.000000
    32  H    2.492388   0.000000
    33  H    4.310372   2.495385   0.000000
    34  H    4.950407   4.292178   2.466633   0.000000
    35  H    6.463498   6.906081   5.814456   3.777564   0.000000
    36  H    7.781863   7.736739   6.131495   4.049029   1.793452
    37  H    8.102813   8.546061   7.229751   4.956047   1.777294
    38  H   10.567919  10.263416   8.195169   6.008801   5.910829
    39  H   11.392375  10.974808   8.940989   7.046892   7.880445
    40  H    7.793521   7.694853   6.308830   4.738612   6.653796
                   36         37         38         39         40
    36  H    0.000000
    37  H    1.751906   0.000000
    38  H    4.850165   4.936971   0.000000
    39  H    7.065539   7.133011   2.507950   0.000000
    40  H    6.779545   6.778662   4.990337   4.324316   0.000000
 Stoichiometry    C18H14ClN3O4
 Framework group  C1[X(C18H14ClN3O4)]
 Deg. of freedom   114
 Full point group                 C1      NOp   1
 Largest Abelian subgroup         C1      NOp   1
 Largest concise Abelian subgroup C1      NOp   1
                         Standard orientation:                         
 ---------------------------------------------------------------------
 Center     Atomic      Atomic             Coordinates (Angstroms)
 Number     Number       Type             X           Y           Z
 ---------------------------------------------------------------------
      1          6           0       -5.136310    1.409927   -0.686538
      2          6           0       -4.796628    0.235352   -1.539265
      3          7           0       -4.004336   -0.743194   -1.197130
      4          8           0       -3.685229   -1.737668   -1.956894
      5          6           0       -3.438428   -0.867206    0.144969
      6          6           0       -4.129015   -1.699222    1.023882
      7          6           0       -3.609835   -1.967818    2.290185
      8          6           0       -2.379784   -1.423775    2.668889
      9          6           0       -1.680118   -0.617468    1.776146
     10          6           0       -2.193858   -0.312595    0.503119
     11          6           0       -1.439184    0.612746   -0.385414
     12          8           0       -1.959620    1.277144   -1.266845
     13          6           0        0.048858    0.814935   -0.134505
     14          6           0        0.578119    2.079772    0.186980
     15          6           0       -0.239218    3.308355    0.422446
     16          7           0        1.921228    2.236257    0.333115
     17          8           0        2.426330    3.377078    0.645279
     18          6           0        2.762771    1.134934    0.142716
     19          6           0        4.155647    1.280965    0.282896
     20          6           0        4.979551    0.190459    0.089270
     21          6           0        4.422006   -1.063390   -0.250093
     22         17           0        5.495350   -2.423544   -0.491661
     23          6           0        3.060122   -1.234456   -0.396017
     24          6           0        2.223205   -0.122952   -0.192115
     25          7           0        0.837262   -0.270758   -0.331641
     26          8           0        0.343605   -1.408121   -0.656040
     27          1           0       -6.216286    1.595900   -0.712078
     28          1           0       -4.836448    1.274632    0.354702
     29          1           0       -4.638398    2.310583   -1.069175
     30          1           0       -5.161378    0.161324   -2.558600
     31          1           0       -5.064623   -2.141167    0.697815
     32          1           0       -4.159939   -2.608159    2.972779
     33          1           0       -1.964530   -1.633765    3.649301
     34          1           0       -0.720153   -0.204892    2.070020
     35          1           0       -1.304491    3.104123    0.344053
     36          1           0        0.000576    3.723870    1.406683
     37          1           0        0.031609    4.077396   -0.308902
     38          1           0        4.542337    2.259100    0.540108
     39          1           0        6.054208    0.288428    0.192960
     40          1           0        2.609394   -2.182094   -0.661139
 ---------------------------------------------------------------------
 Rotational constants (GHZ):           0.3437444           0.1088520           0.0956745
 Standard basis: 6-31+G(d,p) (6D, 7F)
 There are   568 symmetry adapted cartesian basis functions of A   symmetry.
 There are   568 symmetry adapted basis functions of A   symmetry.
   568 basis functions,   954 primitive gaussians,   568 cartesian basis functions
    96 alpha electrons       96 beta electrons
       nuclear repulsion energy      2415.2398231242 Hartrees.
 NAtoms=   40 NActive=   40 NUniq=   40 SFac= 1.00D+00 NAtFMM=   60 NAOKFM=F Big=F
 Integral buffers will be    131072 words long.
 Regular integral format.
 Two-electron integral symmetry is turned on.
 One-electron integrals computed using PRISM.
 NBasis=   568 RedAO= T EigKep=  1.08D-06  NBF=   568
 NBsUse=   564 1.00D-06 EigRej=  9.03D-07 NBFU=   564
 ExpMin= 4.38D-02 ExpMax= 2.52D+04 ExpMxC= 3.78D+03 IAcc=3 IRadAn=         5 AccDes= 0.00D+00
 Harris functional with IExCor=  402 and IRadAn=       5 diagonalized for initial guess.
 HarFok:  IExCor=  402 AccDes= 0.00D+00 IRadAn=         5 IDoV= 1 UseB2=F ITyADJ=14
 ICtDFT=  3500011 ScaDFX=  1.000000  1.000000  1.000000  1.000000
 FoFCou: FMM=F IPFlag=           0 FMFlag=      100000 FMFlg1=           0
         NFxFlg=           0 DoJE=T BraDBF=F KetDBF=T FulRan=T
         wScrn=  0.000000 ICntrl=       500 IOpCl=  0 I1Cent=   200000004 NGrid=           0
         NMat0=    1 NMatS0=      1 NMatT0=    0 NMatD0=    1 NMtDS0=    0 NMtDT0=    0
 Petite list used in FoFCou.
 Requested convergence on RMS density matrix=1.00D-08 within 128 cycles.
 Requested convergence on MAX density matrix=1.00D-06.
 Requested convergence on             energy=1.00D-06.
 No special actions if energy rises.
 SCF Done:  E(RB3LYP) =  -1619.55777192     A.U. after   18 cycles
            NFock= 18  Conv=0.49D-08     -V/T= 2.0075
 DoSCS=F DFT=T ScalE2(SS,OS)=  1.000000  1.000000
 ExpMin= 4.38D-02 ExpMax= 2.52D+04 ExpMxC= 3.78D+03 IAcc=3 IRadAn=         5 AccDes= 0.00D+00
 HarFok:  IExCor=  205 AccDes= 0.00D+00 IRadAn=         5 IDoV=-2 UseB2=F ITyADJ=14
 ICtDFT= 12500011 ScaDFX=  1.000000  1.000000  1.000000  1.000000
 GSVD:  LWork=       -1140 too small for GESVD, short by        4950 words or        4950 for optimal perf.
 Range of M.O.s used for correlation:    31   564
 NBasis=   568 NAE=    96 NBE=    96 NFC=    30 NFV=     0
 NROrb=    534 NOA=    66 NOB=    66 NVA=   468 NVB=   468

 **** Warning!!: The largest alpha MO coefficient is  0.23895674D+03

 Orbital symmetries:
       Occupied  (A) (A) (A) (A) (A) (A) (A) (A) (A) (A) (A) (A)
                 (A) (A) (A) (A) (A) (A) (A) (A) (A) (A) (A) (A)
                 (A) (A) (A) (A) (A) (A) (A) (A) (A) (A) (A) (A)
                 (A) (A) (A) (A) (A) (A) (A) (A) (A) (A) (A) (A)
                 (A) (A) (A) (A) (A) (A) (A) (A) (A) (A) (A) (A)
                 (A) (A) (A) (A) (A) (A) (A) (A) (A) (A) (A) (A)
                 (A) (A) (A) (A) (A) (A) (A) (A) (A) (A) (A) (A)
                 (A) (A) (A) (A) (A) (A) (A) (A) (A) (A) (A) (A)
       Virtual   (A) (A) (A) (A) (A) (A) (A) (A) (A) (A) (A) (A)
                 (A) (A) (A) (A) (A) (A) (A) (A) (A) (A) (A) (A)
                 (A) (A) (A) (A) (A) (A) (A) (A) (A) (A) (A) (A)
                 (A) (A) (A) (A) (A) (A) (A) (A) (A) (A) (A) (A)
                 (A) (A) (A) (A) (A) (A) (A) (A) (A) (A) (A) (A)
                 (A) (A) (A) (A) (A) (A) (A) (A) (A) (A) (A) (A)
                 (A) (A) (A) (A) (A) (A) (A) (A) (A) (A) (A) (A)
                 (A) (A) (A) (A) (A) (A) (A) (A) (A) (A) (A) (A)
                 (A) (A) (A) (A) (A) (A) (A) (A) (A) (A) (A) (A)
                 (A) (A) (A) (A) (A) (A) (A) (A) (A) (A) (A) (A)
                 (A) (A) (A) (A) (A) (A) (A) (A) (A) (A) (A) (A)
                 (A) (A) (A) (A) (A) (A) (A) (A) (A) (A) (A) (A)
                 (A) (A) (A) (A) (A) (A) (A) (A) (A) (A) (A) (A)
                 (A) (A) (A) (A) (A) (A) (A) (A) (A) (A) (A) (A)
                 (A) (A) (A) (A) (A) (A) (A) (A) (A) (A) (A) (A)
                 (A) (A) (A) (A) (A) (A) (A) (A) (A) (A) (A) (A)
                 (A) (A) (A) (A) (A) (A) (A) (A) (A) (A) (A) (A)
                 (A) (A) (A) (A) (A) (A) (A) (A) (A) (A) (A) (A)
                 (A) (A) (A) (A) (A) (A) (A) (A) (A) (A) (A) (A)
                 (A) (A) (A) (A) (A) (A) (A) (A) (A) (A) (A) (A)
                 (A) (A) (A) (A) (A) (A) (A) (A) (A) (A) (A) (A)
                 (A) (A) (A) (A) (A) (A) (A) (A) (A) (A) (A) (A)
                 (A) (A) (A) (A) (A) (A) (A) (A) (A) (A) (A) (A)
                 (A) (A) (A) (A) (A) (A) (A) (A) (A) (A) (A) (A)
                 (A) (A) (A) (A) (A) (A) (A) (A) (A) (A) (A) (A)
                 (A) (A) (A) (A) (A) (A) (A) (A) (A) (A) (A) (A)
                 (A) (A) (A) (A) (A) (A) (A) (A) (A) (A) (A) (A)
                 (A) (A) (A) (A) (A) (A) (A) (A) (A) (A) (A) (A)
                 (A) (A) (A) (A) (A) (A) (A) (A) (A) (A) (A) (A)
                 (A) (A) (A) (A) (A) (A) (A) (A) (A) (A) (A) (A)
                 (A) (A) (A) (A) (A) (A) (A) (A) (A) (A) (A) (A)
                 (A) (A) (A) (A) (A) (A) (A) (A) (A) (A) (A) (A)
                 (A) (A) (A) (A) (A) (A) (A) (A) (A) (A) (A) (A)
                 (A) (A) (A) (A) (A) (A) (A) (A) (A) (A) (A) (A)
                 (A) (A) (A) (A) (A) (A) (A) (A) (A) (A) (A) (A)
                 (A) (A) (A) (A) (A) (A) (A) (A) (A) (A) (A) (A)
                 (A) (A) (A) (A) (A) (A) (A) (A) (A) (A) (A) (A)
                 (A) (A) (A) (A) (A) (A) (A) (A) (A) (A) (A) (A)
                 (A) (A) (A) (A) (A) (A) (A) (A) (A) (A) (A) (A)
    24 initial guesses have been made.
 Convergence on wavefunction:    0.001000000000000
 Iteration     1 Dimension    24 NMult     0 NNew     24
 CISAX will form    24 AO SS matrices at one time.
 New state      1 was old state      4
 New state      3 was old state      1
 New state      4 was old state      6
 New state      6 was old state     10
 New state      7 was old state      8
 New state      8 was old state      9
 New state      9 was old state      7
 New state     10 was old state     12
 New state     11 was old state     16
 New state     12 was old state     18
 Vector   6 SDiff=1.59D+01 TDiff=1.90D+01 assumed to be singlet.
 Vector  12 SDiff=1.50D+01 TDiff=1.54D+01 assumed to be singlet.
 Iteration     2 Dimension    36 NMult    24 NNew     12
 New state      6 was old state      8
 Iteration     3 Dimension    48 NMult    36 NNew     12
 Iteration     4 Dimension    60 NMult    48 NNew     12
 Iteration     5 Dimension    72 NMult    60 NNew     12
 Iteration     6 Dimension    82 NMult    72 NNew     10
 New state      2 was old state      4
 New state      3 was old state      2
 New state      4 was old state      3
 Iteration     7 Dimension    90 NMult    82 NNew      8
 Iteration     8 Dimension    94 NMult    90 NNew      4
 Iteration     9 Dimension    98 NMult    94 NNew      4
 Iteration    10 Dimension   102 NMult    98 NNew      4
 ***********************************************************************
 Excited states from <AA,BB:AA,BB> singles matrix:
 ***********************************************************************
 
 Ground to excited state transition densities written to RWF  633
 Ground to excited state transition electric dipole moments (Au):
       state          X           Y           Z        Dip. S.      Osc.
         1         0.0000      0.0000      0.0000      0.0000      0.0000
         2        -0.0000     -0.0000      0.0000      0.0000      0.0000
         3        -0.0000     -0.0000     -0.0000      0.0000      0.0000
         4        -0.0784     -0.0023     -0.1235      0.0214      0.0012
         5         0.0553     -0.4095     -0.2269      0.2222      0.0148
         6        -0.2092      0.4196      0.0015      0.2199      0.0148
 Ground to excited state transition velocity dipole moments (Au):
       state          X           Y           Z        Dip. S.      Osc.
         1         0.0000      0.0000     -0.0000      0.0000      0.0000
         2        -0.0000     -0.0000     -0.0000      0.0000      0.0000
         3        -0.0000     -0.0000     -0.0000      0.0000      0.0000
         4         0.0046      0.0006      0.0090      0.0001      0.0008
         5        -0.0080      0.0423      0.0226      0.0024      0.0158
         6         0.0175     -0.0448     -0.0034      0.0023      0.0154
 Ground to excited state transition magnetic dipole moments (Au):
       state          X           Y           Z
         1        -0.0000     -0.0000      0.0000
         2        -0.0000      0.0000     -0.0000
         3         0.0000      0.0000      0.0000
         4        -0.0136      0.0399     -0.0240
         5         0.0315      0.0504      0.1572
         6        -0.0446     -0.0540     -0.3159
 Ground to excited state transition velocity quadrupole moments (Au):
       state          XX          YY          ZZ          XY          XZ          YZ
         1         0.0000      0.0000      0.0000      0.0000      0.0000      0.0000
         2        -0.0000     -0.0000     -0.0000     -0.0000     -0.0000     -0.0000
         3         0.0000      0.0000      0.0000      0.0000      0.0000     -0.0000
         4        -0.0608      0.0184      0.0040      0.0284     -0.0668     -0.0247
         5        -0.0280      0.1656      0.0257      0.1922     -0.0191     -0.0196
         6        -0.0767     -0.1229     -0.0204     -0.1332     -0.1124     -0.0286
 <0|del|b> * <b|rxdel|0> + <0|del|b> * <b|delr+rdel|0>
 Rotatory Strengths (R) in cgs (10**-40 erg-esu-cm/Gauss)
       state          XX          YY          ZZ    R(velocity)    E-M Angle
         1        -0.0000      0.0000      0.0000     -0.0000       90.00
         2         0.0000      0.0000     -0.0000      0.0000       90.00
         3         0.0000      0.0000     -0.0000     -0.0000       90.00
         4         0.4267     -2.7922      0.1563     -0.7364      121.51
         5        38.4361     -3.1491      3.2408     12.8426       48.32
         6        -3.7391     -2.2928     25.1543      6.3741       79.93
 1/2[<0|r|b>*<b|rxdel|0> + (<0|rxdel|b>*<b|r|0>)*]
 Rotatory Strengths (R) in cgs (10**-40 erg-esu-cm/Gauss)
       state          XX          YY          ZZ     R(length)
         1         0.0000      0.0000     -0.0000     -0.0000
         2        -0.0000      0.0000      0.0000      0.0000
         3         0.0000      0.0000      0.0000      0.0000
         4        -0.7525      0.0656     -2.1004     -0.9291
         5        -1.2316     14.5915     25.2154     12.8584
         6        -6.6051     16.0366      0.3249      3.2521
  1/2[<0|del|b>*<b|r|0> + (<0|r|b>*<b|del|0>)*] (Au)
       state          X           Y           Z        Dip. S.   Osc.(frdel)
         1         0.0000      0.0000     -0.0000      0.0000      0.0000
         2         0.0000      0.0000     -0.0000     -0.0000     -0.0000
         3         0.0000      0.0000      0.0000     -0.0000     -0.0000
         4        -0.0004     -0.0000     -0.0011      0.0015      0.0010
         5        -0.0004     -0.0173     -0.0051      0.0229      0.0153
         6        -0.0037     -0.0188     -0.0000      0.0225      0.0150

 Excitation energies and oscillator strengths:
 
 Excited State   1:      Triplet-A      0.9369 eV 1323.38 nm  f=0.0000  <S**2>=2.000
      95 -> 97         0.71468
      95 -> 98        -0.20552
      95 ->101        -0.16139
      95 <- 97         0.27888
 This state for optimization and/or second-order correction.
 Total Energy, E(TD-HF/TD-DFT) =  -1619.52334242    
 Copying the excited state density for this state as the 1-particle RhoCI density.
 
 Excited State   2:      Triplet-A      2.1603 eV  573.91 nm  f=0.0000  <S**2>=2.000
      96 -> 97         0.31277
      96 -> 98         0.11895
      96 ->100         0.21971
      96 ->102         0.58678
      96 <-102         0.15716
 
 Excited State   3:      Triplet-A      2.2025 eV  562.92 nm  f=0.0000  <S**2>=2.000
      96 -> 97         0.57069
      96 -> 98         0.22021
      96 ->102        -0.32701
 
 Excited State   4:      Singlet-A      2.2328 eV  555.30 nm  f=0.0012  <S**2>=0.000
      96 -> 97         0.67611
      96 -> 98         0.19776
 
 Excited State   5:      Singlet-A      2.7165 eV  456.41 nm  f=0.0148  <S**2>=0.000
      95 -> 97         0.42298
      95 -> 98         0.30413
      96 -> 97        -0.12111
      96 -> 98         0.44628
 
 Excited State   6:      Singlet-A      2.7440 eV  451.84 nm  f=0.0148  <S**2>=0.000
      95 -> 97        -0.36073
      95 -> 98        -0.29519
      96 -> 97        -0.16316
      96 -> 98         0.49305
 SavETr:  write IOETrn=   770 NScale= 10 NData=  16 NLR=1 NState=    6 LETran=     118.

 **********************************************************************

            Population analysis using the SCF Density.

 **********************************************************************

 Orbital symmetries:
       Occupied  (A) (A) (A) (A) (A) (A) (A) (A) (A) (A) (A) (A)
                 (A) (A) (A) (A) (A) (A) (A) (A) (A) (A) (A) (A)
                 (A) (A) (A) (A) (A) (A) (A) (A) (A) (A) (A) (A)
                 (A) (A) (A) (A) (A) (A) (A) (A) (A) (A) (A) (A)
                 (A) (A) (A) (A) (A) (A) (A) (A) (A) (A) (A) (A)
                 (A) (A) (A) (A) (A) (A) (A) (A) (A) (A) (A) (A)
                 (A) (A) (A) (A) (A) (A) (A) (A) (A) (A) (A) (A)
                 (A) (A) (A) (A) (A) (A) (A) (A) (A) (A) (A) (A)
       Virtual   (A) (A) (A) (A) (A) (A) (A) (A) (A) (A) (A) (A)
                 (A) (A) (A) (A) (A) (A) (A) (A) (A) (A) (A) (A)
                 (A) (A) (A) (A) (A) (A) (A) (A) (A) (A) (A) (A)
                 (A) (A) (A) (A) (A) (A) (A) (A) (A) (A) (A) (A)
                 (A) (A) (A) (A) (A) (A) (A) (A) (A) (A) (A) (A)
                 (A) (A) (A) (A) (A) (A) (A) (A) (A) (A) (A) (A)
                 (A) (A) (A) (A) (A) (A) (A) (A) (A) (A) (A) (A)
                 (A) (A) (A) (A) (A) (A) (A) (A) (A) (A) (A) (A)
                 (A) (A) (A) (A) (A) (A) (A) (A) (A) (A) (A) (A)
                 (A) (A) (A) (A) (A) (A) (A) (A) (A) (A) (A) (A)
                 (A) (A) (A) (A) (A) (A) (A) (A) (A) (A) (A) (A)
                 (A) (A) (A) (A) (A) (A) (A) (A) (A) (A) (A) (A)
                 (A) (A) (A) (A) (A) (A) (A) (A) (A) (A) (A) (A)
                 (A) (A) (A) (A) (A) (A) (A) (A) (A) (A) (A) (A)
                 (A) (A) (A) (A) (A) (A) (A) (A) (A) (A) (A) (A)
                 (A) (A) (A) (A) (A) (A) (A) (A) (A) (A) (A) (A)
                 (A) (A) (A) (A) (A) (A) (A) (A) (A) (A) (A) (A)
                 (A) (A) (A) (A) (A) (A) (A) (A) (A) (A) (A) (A)
                 (A) (A) (A) (A) (A) (A) (A) (A) (A) (A) (A) (A)
                 (A) (A) (A) (A) (A) (A) (A) (A) (A) (A) (A) (A)
                 (A) (A) (A) (A) (A) (A) (A) (A) (A) (A) (A) (A)
                 (A) (A) (A) (A) (A) (A) (A) (A) (A) (A) (A) (A)
                 (A) (A) (A) (A) (A) (A) (A) (A) (A) (A) (A) (A)
                 (A) (A) (A) (A) (A) (A) (A) (A) (A) (A) (A) (A)
                 (A) (A) (A) (A) (A) (A) (A) (A) (A) (A) (A) (A)
                 (A) (A) (A) (A) (A) (A) (A) (A) (A) (A) (A) (A)
                 (A) (A) (A) (A) (A) (A) (A) (A) (A) (A) (A) (A)
                 (A) (A) (A) (A) (A) (A) (A) (A) (A) (A) (A) (A)
                 (A) (A) (A) (A) (A) (A) (A) (A) (A) (A) (A) (A)
                 (A) (A) (A) (A) (A) (A) (A) (A) (A) (A) (A) (A)
                 (A) (A) (A) (A) (A) (A) (A) (A) (A) (A) (A) (A)
                 (A) (A) (A) (A) (A) (A) (A) (A) (A) (A) (A) (A)
                 (A) (A) (A) (A) (A) (A) (A) (A) (A) (A) (A) (A)
                 (A) (A) (A) (A) (A) (A) (A) (A) (A) (A) (A) (A)
                 (A) (A) (A) (A) (A) (A) (A) (A) (A) (A) (A) (A)
                 (A) (A) (A) (A) (A) (A) (A) (A) (A) (A) (A) (A)
                 (A) (A) (A) (A) (A) (A) (A) (A) (A) (A) (A) (A)
                 (A) (A) (A) (A) (A) (A) (A) (A) (A) (A) (A) (A)
                 (A) (A) (A) (A) (A) (A) (A) (A) (A) (A) (A) (A)
 The electronic state is 1-A.
 Alpha  occ. eigenvalues -- -101.57863 -19.18269 -19.16258 -19.15810 -19.12386
 Alpha  occ. eigenvalues --  -14.51689 -14.50874 -14.47764 -10.32473 -10.29362
 Alpha  occ. eigenvalues --  -10.28776 -10.28655 -10.28438 -10.28415 -10.26768
 Alpha  occ. eigenvalues --  -10.24550 -10.24212 -10.24161 -10.24098 -10.24015
 Alpha  occ. eigenvalues --  -10.23228 -10.22984 -10.22657 -10.22541 -10.21426
 Alpha  occ. eigenvalues --  -10.20845  -9.49358  -7.25781  -7.24794  -7.24746
 Alpha  occ. eigenvalues --   -1.14901  -1.13475  -1.10060  -1.08145  -0.95650
 Alpha  occ. eigenvalues --   -0.92398  -0.90210  -0.88029  -0.87035  -0.86485
 Alpha  occ. eigenvalues --   -0.82265  -0.80997  -0.79730  -0.79214  -0.74736
 Alpha  occ. eigenvalues --   -0.73625  -0.73080  -0.68257  -0.66969  -0.65786
 Alpha  occ. eigenvalues --   -0.64697  -0.62844  -0.61998  -0.58715  -0.56644
 Alpha  occ. eigenvalues --   -0.54983  -0.53297  -0.52627  -0.51785  -0.50695
 Alpha  occ. eigenvalues --   -0.50423  -0.49417  -0.49291  -0.48632  -0.48589
 Alpha  occ. eigenvalues --   -0.48057  -0.47844  -0.47024  -0.46351  -0.45104
 Alpha  occ. eigenvalues --   -0.44054  -0.43609  -0.43221  -0.42591  -0.41857
 Alpha  occ. eigenvalues --   -0.41797  -0.41737  -0.41118  -0.40673  -0.40365
 Alpha  occ. eigenvalues --   -0.38971  -0.38773  -0.38224  -0.36034  -0.33999
 Alpha  occ. eigenvalues --   -0.31488  -0.30518  -0.29963  -0.29422  -0.29264
 Alpha  occ. eigenvalues --   -0.28546  -0.28305  -0.28002  -0.24243  -0.22740
 Alpha  occ. eigenvalues --   -0.21854
 Alpha virt. eigenvalues --   -0.11569  -0.09282  -0.06817  -0.04432  -0.03534
 Alpha virt. eigenvalues --   -0.03107  -0.01402  -0.00979  -0.00545  -0.00056
 Alpha virt. eigenvalues --    0.00256   0.00777   0.01962   0.02153   0.02390
 Alpha virt. eigenvalues --    0.02590   0.03108   0.03628   0.04405   0.04470
 Alpha virt. eigenvalues --    0.04823   0.05162   0.05704   0.05832   0.06225
 Alpha virt. eigenvalues --    0.06875   0.07179   0.07641   0.08133   0.08349
 Alpha virt. eigenvalues --    0.08568   0.08905   0.09405   0.09451   0.09948
 Alpha virt. eigenvalues --    0.10543   0.10721   0.10966   0.11229   0.11512
 Alpha virt. eigenvalues --    0.11862   0.12072   0.12241   0.12499   0.12762
 Alpha virt. eigenvalues --    0.12906   0.13211   0.13468   0.13937   0.14183
 Alpha virt. eigenvalues --    0.14346   0.14755   0.15078   0.15725   0.16118
 Alpha virt. eigenvalues --    0.16534   0.16628   0.16882   0.16958   0.17530
 Alpha virt. eigenvalues --    0.17582   0.17801   0.18490   0.18708   0.18905
 Alpha virt. eigenvalues --    0.19199   0.19349   0.19702   0.19789   0.20270
 Alpha virt. eigenvalues --    0.20440   0.20573   0.20853   0.20900   0.21494
 Alpha virt. eigenvalues --    0.21576   0.21988   0.22387   0.22591   0.22778
 Alpha virt. eigenvalues --    0.22911   0.23294   0.23618   0.23800   0.24162
 Alpha virt. eigenvalues --    0.24551   0.24950   0.25198   0.25504   0.25905
 Alpha virt. eigenvalues --    0.25958   0.26417   0.26768   0.26950   0.27075
 Alpha virt. eigenvalues --    0.27757   0.27918   0.28088   0.28519   0.28884
 Alpha virt. eigenvalues --    0.29278   0.29359   0.29530   0.30256   0.30588
 Alpha virt. eigenvalues --    0.30819   0.30956   0.31189   0.31701   0.32229
 Alpha virt. eigenvalues --    0.32633   0.33025   0.33259   0.33794   0.34184
 Alpha virt. eigenvalues --    0.34862   0.35081   0.35684   0.36011   0.36155
 Alpha virt. eigenvalues --    0.36462   0.36710   0.37374   0.37833   0.38445
 Alpha virt. eigenvalues --    0.38685   0.39186   0.39583   0.40307   0.41098
 Alpha virt. eigenvalues --    0.41327   0.41754   0.42688   0.42899   0.43540
 Alpha virt. eigenvalues --    0.43721   0.43874   0.44985   0.46043   0.46491
 Alpha virt. eigenvalues --    0.47415   0.48703   0.50554   0.51030   0.52326
 Alpha virt. eigenvalues --    0.53036   0.55029   0.55683   0.56075   0.57709
 Alpha virt. eigenvalues --    0.58607   0.60315   0.60401   0.62066   0.62101
 Alpha virt. eigenvalues --    0.64395   0.65400   0.65674   0.65886   0.67006
 Alpha virt. eigenvalues --    0.67558   0.67673   0.68804   0.69075   0.69594
 Alpha virt. eigenvalues --    0.69843   0.70707   0.72124   0.72625   0.72834
 Alpha virt. eigenvalues --    0.73509   0.73778   0.74057   0.74475   0.74813
 Alpha virt. eigenvalues --    0.76292   0.76598   0.76969   0.78539   0.78741
 Alpha virt. eigenvalues --    0.79303   0.80386   0.80807   0.81719   0.82646
 Alpha virt. eigenvalues --    0.82858   0.83738   0.84629   0.84876   0.85186
 Alpha virt. eigenvalues --    0.85850   0.86365   0.87946   0.88104   0.88729
 Alpha virt. eigenvalues --    0.89464   0.89786   0.90795   0.91485   0.92263
 Alpha virt. eigenvalues --    0.92957   0.93291   0.94089   0.94640   0.95482
 Alpha virt. eigenvalues --    0.96268   0.96650   0.96936   0.98033   0.98981
 Alpha virt. eigenvalues --    1.00198   1.00677   1.02277   1.03754   1.04029
 Alpha virt. eigenvalues --    1.04816   1.05773   1.06972   1.07308   1.07706
 Alpha virt. eigenvalues --    1.09523   1.10527   1.12772   1.13064   1.13537
 Alpha virt. eigenvalues --    1.14017   1.15273   1.16493   1.17428   1.18307
 Alpha virt. eigenvalues --    1.18781   1.19232   1.20322   1.20932   1.21561
 Alpha virt. eigenvalues --    1.22155   1.23257   1.23720   1.25325   1.25386
 Alpha virt. eigenvalues --    1.26438   1.26677   1.27273   1.27633   1.29972
 Alpha virt. eigenvalues --    1.30264   1.30903   1.31556   1.33076   1.33245
 Alpha virt. eigenvalues --    1.33811   1.34214   1.34735   1.35100   1.35973
 Alpha virt. eigenvalues --    1.36164   1.36362   1.37575   1.37827   1.38606
 Alpha virt. eigenvalues --    1.38693   1.39715   1.40271   1.40870   1.41290
 Alpha virt. eigenvalues --    1.41760   1.42420   1.44008   1.45159   1.45280
 Alpha virt. eigenvalues --    1.46335   1.46964   1.48040   1.48600   1.49387
 Alpha virt. eigenvalues --    1.50515   1.50821   1.52104   1.54079   1.56275
 Alpha virt. eigenvalues --    1.57732   1.59929   1.61975   1.63347   1.64730
 Alpha virt. eigenvalues --    1.69418   1.70076   1.71307   1.71595   1.72980
 Alpha virt. eigenvalues --    1.73757   1.76210   1.77278   1.78009   1.79277
 Alpha virt. eigenvalues --    1.79559   1.80132   1.80455   1.81768   1.82253
 Alpha virt. eigenvalues --    1.82646   1.83357   1.85240   1.86134   1.86385
 Alpha virt. eigenvalues --    1.87353   1.88077   1.89141   1.89742   1.90360
 Alpha virt. eigenvalues --    1.91530   1.92929   1.93241   1.94336   1.94536
 Alpha virt. eigenvalues --    1.95637   1.96722   1.97406   1.98263   1.98409
 Alpha virt. eigenvalues --    1.98689   1.99794   2.00934   2.01365   2.02281
 Alpha virt. eigenvalues --    2.02915   2.03239   2.03688   2.03885   2.04813
 Alpha virt. eigenvalues --    2.05720   2.06224   2.07274   2.08822   2.10175
 Alpha virt. eigenvalues --    2.10678   2.10831   2.11645   2.12522   2.13757
 Alpha virt. eigenvalues --    2.14430   2.16274   2.18576   2.18992   2.20637
 Alpha virt. eigenvalues --    2.22017   2.22889   2.23492   2.24413   2.24735
 Alpha virt. eigenvalues --    2.26050   2.27421   2.29041   2.30029   2.32303
 Alpha virt. eigenvalues --    2.33760   2.33856   2.35532   2.35970   2.37279
 Alpha virt. eigenvalues --    2.38072   2.38327   2.38599   2.39376   2.40335
 Alpha virt. eigenvalues --    2.42419   2.43651   2.44583   2.46177   2.46892
 Alpha virt. eigenvalues --    2.47839   2.49100   2.50476   2.50920   2.51556
 Alpha virt. eigenvalues --    2.52066   2.52933   2.53032   2.54386   2.54940
 Alpha virt. eigenvalues --    2.56169   2.56580   2.57571   2.58921   2.59811
 Alpha virt. eigenvalues --    2.60735   2.61201   2.63333   2.64855   2.66018
 Alpha virt. eigenvalues --    2.67046   2.67491   2.68456   2.68958   2.70084
 Alpha virt. eigenvalues --    2.70574   2.70976   2.71546   2.72466   2.73942
 Alpha virt. eigenvalues --    2.76458   2.77708   2.80444   2.80765   2.85081
 Alpha virt. eigenvalues --    2.85860   2.86586   2.86947   2.89383   2.93715
 Alpha virt. eigenvalues --    2.94843   2.99123   2.99749   3.00261   3.02079
 Alpha virt. eigenvalues --    3.03935   3.08259   3.10099   3.13107   3.14235
 Alpha virt. eigenvalues --    3.15377   3.17657   3.20373   3.22121   3.24137
 Alpha virt. eigenvalues --    3.25315   3.26325   3.28759   3.29605   3.32384
 Alpha virt. eigenvalues --    3.34503   3.35995   3.44135   3.44789   3.46375
 Alpha virt. eigenvalues --    3.46633   3.47013   3.48519   3.49546   3.54120
 Alpha virt. eigenvalues --    3.73306   3.83192   4.18609   4.25968   4.26975
 Alpha virt. eigenvalues --    4.31001   4.32564   4.35618   4.36886   4.38529
 Alpha virt. eigenvalues --    4.40912   4.42553   4.46460   4.49604   4.49931
 Alpha virt. eigenvalues --    4.50626   4.53109   4.55354   4.57092   4.61428
 Alpha virt. eigenvalues --    4.64245   4.69504   4.72464   4.77557   4.78500
 Alpha virt. eigenvalues --    4.86331   4.86659   5.06699
          Condensed to atoms (all electrons):
               1          2          3          4          5          6
     1  C    6.049099  -1.052570   0.240742   0.075416  -0.363307   0.175421
     2  C   -1.052570   7.237902  -0.133508  -0.239449   0.414547  -0.265443
     3  N    0.240742  -0.133508   6.982571   0.412485   0.163728  -0.508345
     4  O    0.075416  -0.239449   0.412485   7.874991  -0.344995   0.234944
     5  C   -0.363307   0.414547   0.163728  -0.344995  16.317068  -7.034974
     6  C    0.175421  -0.265443  -0.508345   0.234944  -7.034974  13.093589
     7  C    0.124045  -0.157537  -0.093254   0.065289  -3.052172   2.317429
     8  C   -0.015291  -0.011951   0.149470  -0.031884   4.832270  -3.635675
     9  C   -0.119377   0.352546  -0.197093   0.019794  -6.485218   5.136059
    10  C   -0.139344  -0.134938  -0.119627   0.049440   0.693033  -1.621196
    11  C    0.196675  -0.363679   0.266468   0.071424   0.674664  -2.329060
    12  O   -0.019086   0.017792  -0.026969  -0.011564  -0.007996  -0.012070
    13  C    0.039828   0.071360  -0.065194  -0.007621   0.214163   0.416758
    14  C   -0.042190   0.014579   0.010205   0.000139  -0.469341  -0.380801
    15  C    0.007877   0.010818   0.021509  -0.002101   0.169856  -0.001142
    16  N    0.000331  -0.000510  -0.001025  -0.000027   0.023500  -0.000414
    17  O   -0.000018   0.000058  -0.000011  -0.000001   0.001772   0.000396
    18  C   -0.006192   0.007921   0.017770  -0.002372  -0.078908  -0.086135
    19  C   -0.000708   0.000578   0.003358   0.000070  -0.074597  -0.024262
    20  C   -0.000061   0.000250  -0.000250  -0.000085   0.012833   0.003226
    21  C   -0.000083   0.000410  -0.002489  -0.000131   0.028228   0.013832
    22  Cl   0.000000  -0.000002  -0.000006   0.000004  -0.000432  -0.000132
    23  C   -0.000506   0.000783  -0.019503   0.000975  -0.062722   0.074250
    24  C    0.017434  -0.022794   0.001782   0.002589   0.285689   0.023500
    25  N    0.004848  -0.009157   0.035114  -0.002343   0.129231  -0.143889
    26  O   -0.002447   0.006741  -0.025878   0.000365   0.037350   0.069906
    27  H    0.402072  -0.048876  -0.004211  -0.000026  -0.006701   0.018748
    28  H    0.393340  -0.032844  -0.009642  -0.000542  -0.011078  -0.000843
    29  H    0.417650  -0.074423   0.018375  -0.000946  -0.016230  -0.015196
    30  H   -0.066117   0.432009  -0.080618   0.005592   0.037890  -0.007758
    31  H    0.012465  -0.018610  -0.011415   0.003751  -0.021442   0.300000
    32  H   -0.000754   0.000767   0.000050  -0.000197   0.018967   0.040133
    33  H    0.000016  -0.000048   0.000252  -0.000015  -0.005510   0.011821
    34  H   -0.000063   0.000290  -0.000216  -0.000058   0.050893  -0.031902
    35  H    0.001692  -0.000755   0.000033   0.000008   0.007281   0.001481
    36  H   -0.000039   0.000006  -0.000004  -0.000000   0.000931  -0.000190
    37  H   -0.000237   0.000060  -0.000019   0.000000   0.000932   0.000150
    38  H   -0.000000   0.000000  -0.000000  -0.000000   0.000024   0.000002
    39  H   -0.000000  -0.000000   0.000000   0.000000  -0.000002  -0.000000
    40  H   -0.000001   0.000000  -0.000000  -0.000001   0.001160   0.000259
               7          8          9         10         11         12
     1  C    0.124045  -0.015291  -0.119377  -0.139344   0.196675  -0.019086
     2  C   -0.157537  -0.011951   0.352546  -0.134938  -0.363679   0.017792
     3  N   -0.093254   0.149470  -0.197093  -0.119627   0.266468  -0.026969
     4  O    0.065289  -0.031884   0.019794   0.049440   0.071424  -0.011564
     5  C   -3.052172   4.832270  -6.485218   0.693033   0.674664  -0.007996
     6  C    2.317429  -3.635675   5.136059  -1.621196  -2.329060  -0.012070
     7  C    6.926022  -0.628849   1.571194  -0.777926  -0.523590   0.008007
     8  C   -0.628849  15.069803  -9.277353  -1.468509   0.956951   0.072183
     9  C    1.571194  -9.277353  25.509148  -9.055765  -1.225667  -0.030575
    10  C   -0.777926  -1.468509  -9.055765  22.506411  -1.594954  -0.112552
    11  C   -0.523590   0.956951  -1.225667  -1.594954  11.190477   0.427497
    12  O    0.008007   0.072183  -0.030575  -0.112552   0.427497   8.115734
    13  C    0.099610  -0.487996   0.483982  -3.712230  -0.796728  -0.217822
    14  C    0.013637   0.059130  -1.043320   2.154853   0.075629   0.202208
    15  C   -0.001640   0.050002  -0.051731  -0.527329  -0.493137  -0.128960
    16  N   -0.002801   0.057116   0.057783  -0.052584  -0.082857   0.006902
    17  O   -0.000003  -0.000474   0.003779  -0.008723   0.023758  -0.000969
    18  C    0.027074  -0.124942  -0.026660   0.565666  -0.381329   0.032082
    19  C    0.004289   0.007072   0.126435  -0.085685   0.495232  -0.002320
    20  C    0.000497   0.001069  -0.034060   0.012907  -0.056420   0.000315
    21  C    0.001510   0.013312   0.112368  -0.250116  -0.064886  -0.001176
    22  Cl  -0.000019  -0.000326   0.000564   0.000733   0.000465   0.000016
    23  C    0.005998  -0.060323   0.472123  -0.638816   0.579261  -0.004009
    24  C   -0.026005   0.175228   0.068970  -0.619116  -0.457110  -0.033726
    25  N   -0.033902   0.301941  -0.158693   0.122714   0.086181   0.034911
    26  O    0.022836  -0.028956   0.231872  -0.129915  -0.248073   0.006507
    27  H    0.002279   0.000931  -0.000818   0.001739  -0.018010   0.002273
    28  H    0.003194  -0.000454  -0.012986  -0.036593   0.053256  -0.003067
    29  H   -0.003435   0.002885  -0.004979   0.022026   0.027422  -0.009870
    30  H   -0.000462  -0.000763  -0.006839  -0.009467   0.016082   0.000650
    31  H    0.014916  -0.008740  -0.015902   0.048140   0.008763  -0.000055
    32  H    0.251975  -0.023812   0.025492   0.001108  -0.001160   0.000002
    33  H    0.007624   0.327279  -0.020932  -0.000820  -0.007311   0.000014
    34  H    0.000892   0.008990   0.256215  -0.046684  -0.026592  -0.001692
    35  H   -0.000402   0.004524  -0.000648   0.062095  -0.020768   0.001044
    36  H   -0.000115   0.003078   0.006006  -0.012086  -0.032591   0.001116
    37  H    0.000089  -0.000699  -0.000582  -0.008971   0.038599  -0.002006
    38  H   -0.000001   0.000015  -0.000024   0.000029  -0.001416   0.000001
    39  H    0.000000  -0.000001  -0.000001  -0.000005   0.000124  -0.000000
    40  H    0.000007  -0.000269  -0.000374  -0.001680  -0.011008   0.000020
              13         14         15         16         17         18
     1  C    0.039828  -0.042190   0.007877   0.000331  -0.000018  -0.006192
     2  C    0.071360   0.014579   0.010818  -0.000510   0.000058   0.007921
     3  N   -0.065194   0.010205   0.021509  -0.001025  -0.000011   0.017770
     4  O   -0.007621   0.000139  -0.002101  -0.000027  -0.000001  -0.002372
     5  C    0.214163  -0.469341   0.169856   0.023500   0.001772  -0.078908
     6  C    0.416758  -0.380801  -0.001142  -0.000414   0.000396  -0.086135
     7  C    0.099610   0.013637  -0.001640  -0.002801  -0.000003   0.027074
     8  C   -0.487996   0.059130   0.050002   0.057116  -0.000474  -0.124942
     9  C    0.483982  -1.043320  -0.051731   0.057783   0.003779  -0.026660
    10  C   -3.712230   2.154853  -0.527329  -0.052584  -0.008723   0.565666
    11  C   -0.796728   0.075629  -0.493137  -0.082857   0.023758  -0.381329
    12  O   -0.217822   0.202208  -0.128960   0.006902  -0.000969   0.032082
    13  C   23.032887 -10.736604   1.154100   0.279549   0.216454  -6.821277
    14  C  -10.736604  22.342203  -3.547836  -0.422741  -0.487321   6.439076
    15  C    1.154100  -3.547836   9.038621  -0.276591   0.136901  -0.464951
    16  N    0.279549  -0.422741  -0.276591   7.650016   0.367553  -0.617033
    17  O    0.216454  -0.487321   0.136901   0.367553   7.840752  -0.582702
    18  C   -6.821277   6.439076  -0.464951  -0.617033  -0.582702  25.370014
    19  C   -2.310645   1.725524  -0.037728  -0.112814   0.038611  -4.129802
    20  C   -0.002799   0.249974   0.050066   0.041073   0.070348  -0.512976
    21  C    0.038514  -0.329240   0.043028   0.072883   0.010733  -2.796551
    22  Cl  -0.001549  -0.004889  -0.001324  -0.000418  -0.000239  -0.029976
    23  C    3.350320  -2.759929  -0.428272   0.042681  -0.110372   0.205959
    24  C    3.231969  -6.872485   0.421124   0.518235   0.444808 -11.094092
    25  N   -1.718692  -0.607592   0.148942   0.036339  -0.044085   0.366750
    26  O   -0.176743   0.449273  -0.052167  -0.056179  -0.008192   0.413616
    27  H    0.000841  -0.000628   0.000291   0.000001  -0.000000  -0.000007
    28  H    0.006511   0.002550  -0.001277  -0.000008   0.000000  -0.000127
    29  H   -0.017123   0.008015  -0.003858  -0.000012  -0.000000   0.000112
    30  H   -0.001160   0.000374  -0.000139  -0.000001   0.000000  -0.000042
    31  H   -0.000197  -0.000289   0.000009   0.000000   0.000000   0.000002
    32  H    0.000403   0.000117  -0.000035  -0.000001   0.000000  -0.000017
    33  H    0.000825   0.001944   0.000468  -0.000024  -0.000000   0.000857
    34  H   -0.079073   0.045777   0.014740   0.000371   0.000121   0.041593
    35  H   -0.015117  -0.152594   0.448584   0.011176   0.003393  -0.009487
    36  H    0.032920  -0.114622   0.476232  -0.017626   0.003976   0.001315
    37  H   -0.046404  -0.085558   0.517633  -0.030765   0.004383  -0.013653
    38  H    0.004230  -0.027881  -0.001297  -0.041439   0.010377   0.078510
    39  H    0.001696   0.000064  -0.000183  -0.000168  -0.000051   0.013911
    40  H   -0.041871   0.026442   0.000737  -0.001654   0.000022   0.120742
              19         20         21         22         23         24
     1  C   -0.000708  -0.000061  -0.000083   0.000000  -0.000506   0.017434
     2  C    0.000578   0.000250   0.000410  -0.000002   0.000783  -0.022794
     3  N    0.003358  -0.000250  -0.002489  -0.000006  -0.019503   0.001782
     4  O    0.000070  -0.000085  -0.000131   0.000004   0.000975   0.002589
     5  C   -0.074597   0.012833   0.028228  -0.000432  -0.062722   0.285689
     6  C   -0.024262   0.003226   0.013832  -0.000132   0.074250   0.023500
     7  C    0.004289   0.000497   0.001510  -0.000019   0.005998  -0.026005
     8  C    0.007072   0.001069   0.013312  -0.000326  -0.060323   0.175228
     9  C    0.126435  -0.034060   0.112368   0.000564   0.472123   0.068970
    10  C   -0.085685   0.012907  -0.250116   0.000733  -0.638816  -0.619116
    11  C    0.495232  -0.056420  -0.064886   0.000465   0.579261  -0.457110
    12  O   -0.002320   0.000315  -0.001176   0.000016  -0.004009  -0.033726
    13  C   -2.310645  -0.002799   0.038514  -0.001549   3.350320   3.231969
    14  C    1.725524   0.249974  -0.329240  -0.004889  -2.759929  -6.872485
    15  C   -0.037728   0.050066   0.043028  -0.001324  -0.428272   0.421124
    16  N   -0.112814   0.041073   0.072883  -0.000418   0.042681   0.518235
    17  O    0.038611   0.070348   0.010733  -0.000239  -0.110372   0.444808
    18  C   -4.129802  -0.512976  -2.796551  -0.029976   0.205959 -11.094092
    19  C   13.221984  -0.964420   0.554001   0.100079  -1.083106  -1.073960
    20  C   -0.964420   9.405512   0.418416  -0.110440  -3.169372   0.385880
    21  C    0.554001   0.418416  10.219668  -0.110461  -2.579374   0.208285
    22  Cl   0.100079  -0.110440  -0.110461  16.957927  -0.085411   0.018694
    23  C   -1.083106  -3.169372  -2.579374  -0.085411  21.564009  -8.979789
    24  C   -1.073960   0.385880   0.208285   0.018694  -8.979789  29.698821
    25  N    0.114955   0.015417  -0.092231  -0.006052   0.096375  -0.182089
    26  O   -0.032384  -0.005925   0.157192   0.000435   0.062458  -0.760308
    27  H   -0.000001   0.000000   0.000000  -0.000000   0.000002   0.000006
    28  H   -0.000009   0.000000   0.000000  -0.000000   0.000021  -0.000079
    29  H    0.000017  -0.000001  -0.000001   0.000000  -0.000035  -0.000125
    30  H   -0.000002   0.000000   0.000001  -0.000000   0.000015  -0.000037
    31  H    0.000001  -0.000000  -0.000001   0.000000  -0.000023   0.000191
    32  H   -0.000000   0.000000  -0.000000   0.000000   0.000079  -0.000291
    33  H   -0.000025   0.000018  -0.000027  -0.000000  -0.000920  -0.000403
    34  H    0.003201   0.000054   0.000741  -0.000000  -0.048008   0.066439
    35  H   -0.001558  -0.000310   0.000162   0.000000  -0.001073   0.006963
    36  H   -0.007417  -0.001300   0.000473   0.000000  -0.003268   0.012727
    37  H    0.002958   0.000353  -0.000223  -0.000000  -0.002584  -0.015690
    38  H    0.298054  -0.092711  -0.009039   0.001393  -0.056685   0.157416
    39  H   -0.065508   0.241030   0.058918  -0.009001   0.123881  -0.045715
    40  H   -0.023172   0.031206   0.007119   0.002632   0.075268   0.166008
              25         26         27         28         29         30
     1  C    0.004848  -0.002447   0.402072   0.393340   0.417650  -0.066117
     2  C   -0.009157   0.006741  -0.048876  -0.032844  -0.074423   0.432009
     3  N    0.035114  -0.025878  -0.004211  -0.009642   0.018375  -0.080618
     4  O   -0.002343   0.000365  -0.000026  -0.000542  -0.000946   0.005592
     5  C    0.129231   0.037350  -0.006701  -0.011078  -0.016230   0.037890
     6  C   -0.143889   0.069906   0.018748  -0.000843  -0.015196  -0.007758
     7  C   -0.033902   0.022836   0.002279   0.003194  -0.003435  -0.000462
     8  C    0.301941  -0.028956   0.000931  -0.000454   0.002885  -0.000763
     9  C   -0.158693   0.231872  -0.000818  -0.012986  -0.004979  -0.006839
    10  C    0.122714  -0.129915   0.001739  -0.036593   0.022026  -0.009467
    11  C    0.086181  -0.248073  -0.018010   0.053256   0.027422   0.016082
    12  O    0.034911   0.006507   0.002273  -0.003067  -0.009870   0.000650
    13  C   -1.718692  -0.176743   0.000841   0.006511  -0.017123  -0.001160
    14  C   -0.607592   0.449273  -0.000628   0.002550   0.008015   0.000374
    15  C    0.148942  -0.052167   0.000291  -0.001277  -0.003858  -0.000139
    16  N    0.036339  -0.056179   0.000001  -0.000008  -0.000012  -0.000001
    17  O   -0.044085  -0.008192  -0.000000   0.000000  -0.000000   0.000000
    18  C    0.366750   0.413616  -0.000007  -0.000127   0.000112  -0.000042
    19  C    0.114955  -0.032384  -0.000001  -0.000009   0.000017  -0.000002
    20  C    0.015417  -0.005925   0.000000   0.000000  -0.000001   0.000000
    21  C   -0.092231   0.157192   0.000000   0.000000  -0.000001   0.000001
    22  Cl  -0.006052   0.000435  -0.000000  -0.000000   0.000000  -0.000000
    23  C    0.096375   0.062458   0.000002   0.000021  -0.000035   0.000015
    24  C   -0.182089  -0.760308   0.000006  -0.000079  -0.000125  -0.000037
    25  N    9.033147   0.022399   0.000003  -0.000035   0.000044   0.000011
    26  O    0.022399   7.851484   0.000001  -0.000001  -0.000023   0.000006
    27  H    0.000003   0.000001   0.547538  -0.022770  -0.032160  -0.002191
    28  H   -0.000035  -0.000001  -0.022770   0.535152  -0.024982   0.003582
    29  H    0.000044  -0.000023  -0.032160  -0.024982   0.524411  -0.000725
    30  H    0.000011   0.000006  -0.002191   0.003582  -0.000725   0.523065
    31  H    0.000086  -0.000030  -0.000019  -0.000123  -0.000002  -0.000084
    32  H   -0.000105   0.000006   0.000000  -0.000003  -0.000000  -0.000000
    33  H   -0.000272  -0.000042   0.000000   0.000001  -0.000000   0.000000
    34  H    0.036104  -0.003637  -0.000000  -0.000008   0.000000  -0.000000
    35  H    0.004163  -0.000254   0.000000  -0.000014   0.000079  -0.000000
    36  H    0.000637  -0.000033  -0.000000  -0.000000  -0.000000  -0.000000
    37  H   -0.005209   0.000041  -0.000000  -0.000000  -0.000000  -0.000000
    38  H   -0.001673   0.000034   0.000000  -0.000000  -0.000000   0.000000
    39  H    0.000416   0.000020  -0.000000  -0.000000   0.000000  -0.000000
    40  H   -0.049880   0.014230   0.000000  -0.000000  -0.000000   0.000000
              31         32         33         34         35         36
     1  C    0.012465  -0.000754   0.000016  -0.000063   0.001692  -0.000039
     2  C   -0.018610   0.000767  -0.000048   0.000290  -0.000755   0.000006
     3  N   -0.011415   0.000050   0.000252  -0.000216   0.000033  -0.000004
     4  O    0.003751  -0.000197  -0.000015  -0.000058   0.000008  -0.000000
     5  C   -0.021442   0.018967  -0.005510   0.050893   0.007281   0.000931
     6  C    0.300000   0.040133   0.011821  -0.031902   0.001481  -0.000190
     7  C    0.014916   0.251975   0.007624   0.000892  -0.000402  -0.000115
     8  C   -0.008740  -0.023812   0.327279   0.008990   0.004524   0.003078
     9  C   -0.015902   0.025492  -0.020932   0.256215  -0.000648   0.006006
    10  C    0.048140   0.001108  -0.000820  -0.046684   0.062095  -0.012086
    11  C    0.008763  -0.001160  -0.007311  -0.026592  -0.020768  -0.032591
    12  O   -0.000055   0.000002   0.000014  -0.001692   0.001044   0.001116
    13  C   -0.000197   0.000403   0.000825  -0.079073  -0.015117   0.032920
    14  C   -0.000289   0.000117   0.001944   0.045777  -0.152594  -0.114622
    15  C    0.000009  -0.000035   0.000468   0.014740   0.448584   0.476232
    16  N    0.000000  -0.000001  -0.000024   0.000371   0.011176  -0.017626
    17  O    0.000000   0.000000  -0.000000   0.000121   0.003393   0.003976
    18  C    0.000002  -0.000017   0.000857   0.041593  -0.009487   0.001315
    19  C    0.000001  -0.000000  -0.000025   0.003201  -0.001558  -0.007417
    20  C   -0.000000   0.000000   0.000018   0.000054  -0.000310  -0.001300
    21  C   -0.000001  -0.000000  -0.000027   0.000741   0.000162   0.000473
    22  Cl   0.000000   0.000000  -0.000000  -0.000000   0.000000   0.000000
    23  C   -0.000023   0.000079  -0.000920  -0.048008  -0.001073  -0.003268
    24  C    0.000191  -0.000291  -0.000403   0.066439   0.006963   0.012727
    25  N    0.000086  -0.000105  -0.000272   0.036104   0.004163   0.000637
    26  O   -0.000030   0.000006  -0.000042  -0.003637  -0.000254  -0.000033
    27  H   -0.000019   0.000000   0.000000  -0.000000   0.000000  -0.000000
    28  H   -0.000123  -0.000003   0.000001  -0.000008  -0.000014  -0.000000
    29  H   -0.000002  -0.000000  -0.000000   0.000000   0.000079  -0.000000
    30  H   -0.000084  -0.000000   0.000000  -0.000000  -0.000000  -0.000000
    31  H    0.543390  -0.005043  -0.000151   0.000014   0.000000  -0.000000
    32  H   -0.005043   0.556235  -0.004804  -0.000188  -0.000000  -0.000000
    33  H   -0.000151  -0.004804   0.558932  -0.005936   0.000000  -0.000000
    34  H    0.000014  -0.000188  -0.005936   0.594885  -0.000033   0.000033
    35  H    0.000000  -0.000000   0.000000  -0.000033   0.545416  -0.026842
    36  H   -0.000000  -0.000000  -0.000000   0.000033  -0.026842   0.512645
    37  H    0.000000   0.000000   0.000000  -0.000004  -0.024651  -0.021916
    38  H   -0.000000  -0.000000   0.000000   0.000000  -0.000000   0.000001
    39  H    0.000000  -0.000000  -0.000000  -0.000000   0.000000  -0.000000
    40  H   -0.000000  -0.000000   0.000000   0.000003  -0.000000   0.000000
              37         38         39         40
     1  C   -0.000237  -0.000000  -0.000000  -0.000001
     2  C    0.000060   0.000000  -0.000000   0.000000
     3  N   -0.000019  -0.000000   0.000000  -0.000000
     4  O    0.000000  -0.000000   0.000000  -0.000001
     5  C    0.000932   0.000024  -0.000002   0.001160
     6  C    0.000150   0.000002  -0.000000   0.000259
     7  C    0.000089  -0.000001   0.000000   0.000007
     8  C   -0.000699   0.000015  -0.000001  -0.000269
     9  C   -0.000582  -0.000024  -0.000001  -0.000374
    10  C   -0.008971   0.000029  -0.000005  -0.001680
    11  C    0.038599  -0.001416   0.000124  -0.011008
    12  O   -0.002006   0.000001  -0.000000   0.000020
    13  C   -0.046404   0.004230   0.001696  -0.041871
    14  C   -0.085558  -0.027881   0.000064   0.026442
    15  C    0.517633  -0.001297  -0.000183   0.000737
    16  N   -0.030765  -0.041439  -0.000168  -0.001654
    17  O    0.004383   0.010377  -0.000051   0.000022
    18  C   -0.013653   0.078510   0.013911   0.120742
    19  C    0.002958   0.298054  -0.065508  -0.023172
    20  C    0.000353  -0.092711   0.241030   0.031206
    21  C   -0.000223  -0.009039   0.058918   0.007119
    22  Cl  -0.000000   0.001393  -0.009001   0.002632
    23  C   -0.002584  -0.056685   0.123881   0.075268
    24  C   -0.015690   0.157416  -0.045715   0.166008
    25  N   -0.005209  -0.001673   0.000416  -0.049880
    26  O    0.000041   0.000034   0.000020   0.014230
    27  H   -0.000000   0.000000  -0.000000   0.000000
    28  H   -0.000000  -0.000000  -0.000000  -0.000000
    29  H   -0.000000  -0.000000   0.000000  -0.000000
    30  H   -0.000000   0.000000  -0.000000   0.000000
    31  H    0.000000  -0.000000   0.000000  -0.000000
    32  H    0.000000  -0.000000  -0.000000  -0.000000
    33  H    0.000000   0.000000  -0.000000   0.000000
    34  H   -0.000004   0.000000  -0.000000   0.000003
    35  H   -0.024651  -0.000000   0.000000  -0.000000
    36  H   -0.021916   0.000001  -0.000000   0.000000
    37  H    0.503622   0.000000  -0.000000   0.000000
    38  H    0.000000   0.500872  -0.004646   0.000009
    39  H   -0.000000  -0.004646   0.525903  -0.000133
    40  H    0.000000   0.000009  -0.000133   0.488735
 Mulliken charges:
               1
     1  C   -0.330559
     2  C   -0.002323
     3  N   -0.024637
     4  O   -0.172918
     5  C   -0.080382
     6  C    0.167525
     7  C   -0.166296
     8  C   -0.285982
     9  C   -0.664735
    10  C    0.924734
    11  C   -0.452578
    12  O   -0.302793
    13  C    0.579926
    14  C    0.264149
    15  C   -0.689838
    16  N   -0.447815
    17  O    0.064967
    18  C    0.076260
    19  C   -0.666295
    20  C    0.010685
    21  C    0.276234
    22  Cl   0.277738
    23  C   -0.560356
    24  C    0.271055
    25  N   -0.534832
    26  O    0.184414
    27  H    0.159690
    28  H    0.159880
    29  H    0.183093
    30  H    0.157130
    31  H    0.150397
    32  H    0.141074
    33  H    0.137191
    34  H    0.122738
    35  H    0.156413
    36  H    0.185954
    37  H    0.190353
    38  H    0.185845
    39  H    0.159450
    40  H    0.195443
 Sum of Mulliken charges =  -0.00000
 Mulliken charges with hydrogens summed into heavy atoms:
               1
     1  C    0.172103
     2  C    0.154806
     3  N   -0.024637
     4  O   -0.172918
     5  C   -0.080382
     6  C    0.317923
     7  C   -0.025221
     8  C   -0.148791
     9  C   -0.541997
    10  C    0.924734
    11  C   -0.452578
    12  O   -0.302793
    13  C    0.579926
    14  C    0.264149
    15  C   -0.157119
    16  N   -0.447815
    17  O    0.064967
    18  C    0.076260
    19  C   -0.480451
    20  C    0.170135
    21  C    0.276234
    22  Cl   0.277738
    23  C   -0.364912
    24  C    0.271055
    25  N   -0.534832
    26  O    0.184414
 Electronic spatial extent (au):  <R**2>=          11053.1663
 Charge=             -0.0000 electrons
 Dipole moment (field-independent basis, Debye):
    X=             -0.6694    Y=              2.1090    Z=              5.0764  Tot=              5.5377
 Quadrupole moment (field-independent basis, Debye-Ang):
   XX=           -133.2664   YY=           -170.6254   ZZ=           -159.1138
   XY=            -10.2647   XZ=            -12.4055   YZ=            -12.9942
 Traceless Quadrupole moment (field-independent basis, Debye-Ang):
   XX=             21.0688   YY=            -16.2902   ZZ=             -4.7786
   XY=            -10.2647   XZ=            -12.4055   YZ=            -12.9942
 Octapole moment (field-independent basis, Debye-Ang**2):
  XXX=            -43.7834  YYY=            -24.0863  ZZZ=             16.0143  XYY=            -32.5945
  XXY=             26.1535  XXZ=             21.1058  XZZ=             -1.2421  YZZ=             -3.1416
  YYZ=             10.0846  XYZ=             36.0484
 Hexadecapole moment (field-independent basis, Debye-Ang**3):
 XXXX=          -9807.9316 YYYY=          -2927.0274 ZZZZ=          -1208.4448 XXXY=             17.5217
 XXXZ=             63.2445 YYYX=           -206.9762 YYYZ=            -52.1313 ZZZX=            -27.5699
 ZZZY=            -63.4489 XXYY=          -2342.3728 XXZZ=          -2046.1545 YYZZ=           -682.6122
 XXYZ=           -172.7033 YYXZ=           -112.0247 ZZXY=            -17.4456
 N-N= 2.415239823124D+03 E-N=-8.620246761222D+03  KE= 1.607429437442D+03
 Unable to Open any file for archive entry.
 1\1\GINC-N2\SP\RB3LYP TD-FC\6-31+G(d,p)\C18H14Cl1N3O4\HPCMGAC13\22-Sep
 -2025\0\\# td=(50-50,nstates=3) b3lyp/6-31+g(d,p) geom=connectivity\\T
 itle Card Required\\0,1\C,0,5.13631,1.409927,0.686538\C,0,4.796628,0.2
 35352,1.539265\N,0,4.004336,-0.743194,1.19713\O,0,3.685229,-1.737668,1
 .956894\C,0,3.438428,-0.867206,-0.144969\C,0,4.129015,-1.699222,-1.023
 882\C,0,3.609835,-1.967818,-2.290185\C,0,2.379784,-1.423775,-2.668889\
 C,0,1.680118,-0.617468,-1.776146\C,0,2.193858,-0.312595,-0.503119\C,0,
 1.439184,0.612746,0.385414\O,0,1.95962,1.277144,1.266845\C,0,-0.048858
 ,0.814935,0.134505\C,0,-0.578119,2.079772,-0.18698\C,0,0.239218,3.3083
 55,-0.422446\N,0,-1.921228,2.236257,-0.333115\O,0,-2.42633,3.377078,-0
 .645279\C,0,-2.762771,1.134934,-0.142716\C,0,-4.155647,1.280965,-0.282
 896\C,0,-4.979551,0.190459,-0.08927\C,0,-4.422006,-1.06339,0.250093\Cl
 ,0,-5.49535,-2.423544,0.491661\C,0,-3.060122,-1.234456,0.396017\C,0,-2
 .223205,-0.122952,0.192115\N,0,-0.837262,-0.270758,0.331641\O,0,-0.343
 605,-1.408121,0.65604\H,0,6.216286,1.5959,0.712078\H,0,4.836448,1.2746
 32,-0.354702\H,0,4.638398,2.310583,1.069175\H,0,5.161378,0.161324,2.55
 86\H,0,5.064623,-2.141167,-0.697815\H,0,4.159939,-2.608159,-2.972779\H
 ,0,1.96453,-1.633765,-3.649301\H,0,0.720153,-0.204892,-2.07002\H,0,1.3
 04491,3.104123,-0.344053\H,0,-0.000576,3.72387,-1.406683\H,0,-0.031609
 ,4.077396,0.308902\H,0,-4.542337,2.2591,-0.540108\H,0,-6.054208,0.2884
 28,-0.19296\H,0,-2.609394,-2.182094,0.661139\\Version=ES64L-G16RevC.02
 \State=1-A\HF=-1619.5577719\RMSD=4.905e-09\PG=C01 [X(C18H14Cl1N3O4)]\\
 @
 The archive entry for this job was punched.


 THE DIFFICULTY IN SCIENCE IS OFTEN NOT SO MUCH HOW
 TO MAKE A DISCOVERY BUT RATHER TO KNOW ONE HAS MADE IT.

                                                   -- J. D. BERNAL
 Job cpu time:       0 days  2 hours 26 minutes 55.1 seconds.
 Elapsed time:       0 days  0 hours 18 minutes 37.9 seconds.
 File lengths (MBytes):  RWF=   1797 Int=      0 D2E=      0 Chk=     83 Scr=      2
 Normal termination of Gaussian 16 at Mon Sep 22 01:19:07 2025.
