 Entering Gaussian System, Link 0=g16
 Input=M2062E.gjf
 Output=M2062E.log
 Initial command:
 /hpc/softwares/Gaussian/g16/l1.exe "/hpc/home/hpcmgac13/pbs.14149.admin1.x8z/Gau-4020186.inp" -scrdir="/hpc/home/hpcmgac13/pbs.14149.admin1.x8z/"
 Default linda workers: n2
 Default is to use   8 SMP processors on each worker.
 Entering Link 1 = /hpc/softwares/Gaussian/g16/l1.exe PID=   4020187.
  
 Copyright (c) 1988-2021, Gaussian, Inc.  All Rights Reserved.
  
 This is part of the Gaussian(R) 16 program.  It is based on
 the Gaussian(R) 09 system (copyright 2009, Gaussian, Inc.),
 the Gaussian(R) 03 system (copyright 2003, Gaussian, Inc.),
 the Gaussian(R) 98 system (copyright 1998, Gaussian, Inc.),
 the Gaussian(R) 94 system (copyright 1995, Gaussian, Inc.),
 the Gaussian 92(TM) system (copyright 1992, Gaussian, Inc.),
 the Gaussian 90(TM) system (copyright 1990, Gaussian, Inc.),
 the Gaussian 88(TM) system (copyright 1988, Gaussian, Inc.),
 the Gaussian 86(TM) system (copyright 1986, Carnegie Mellon
 University), and the Gaussian 82(TM) system (copyright 1983,
 Carnegie Mellon University). Gaussian is a federally registered
 trademark of Gaussian, Inc.
  
 This software contains proprietary and confidential information,
 including trade secrets, belonging to Gaussian, Inc.
  
 This software is provided under written license and may be
 used, copied, transmitted, or stored only in accord with that
 written license.
  
 The following legend is applicable only to US Government
 contracts under FAR:
  
                    RESTRICTED RIGHTS LEGEND
  
 Use, reproduction and disclosure by the US Government is
 subject to restrictions as set forth in subparagraphs (a)
 and (c) of the Commercial Computer Software - Restricted
 Rights clause in FAR 52.227-19.
  
 Gaussian, Inc.
 340 Quinnipiac St., Bldg. 40, Wallingford CT 06492
  
  
 ---------------------------------------------------------------
 Warning -- This program may not be used in any manner that
 competes with the business of Gaussian, Inc. or will provide
 assistance to any competitor of Gaussian, Inc.  The licensee
 of this program is prohibited from giving any competitor of
 Gaussian, Inc. access to this program.  By using this program,
 the user acknowledges that Gaussian, Inc. is engaged in the
 business of creating and licensing software in the field of
 computational chemistry and represents and warrants to the
 licensee that it is not a competitor of Gaussian, Inc. and that
 it will not use this program in any manner prohibited above.
 ---------------------------------------------------------------
  

 Cite this work as:
 Gaussian 16, Revision C.02,
 M. J. Frisch, G. W. Trucks, H. B. Schlegel, G. E. Scuseria, 
 M. A. Robb, J. R. Cheeseman, G. Scalmani, V. Barone, 
 G. A. Petersson, H. Nakatsuji, X. Li, M. Caricato, A. V. Marenich, 
 J. Bloino, B. G. Janesko, R. Gomperts, B. Mennucci, H. P. Hratchian, 
 J. V. Ortiz, A. F. Izmaylov, J. L. Sonnenberg, D. Williams-Young, 
 F. Ding, F. Lipparini, F. Egidi, J. Goings, B. Peng, A. Petrone, 
 T. Henderson, D. Ranasinghe, V. G. Zakrzewski, J. Gao, N. Rega, 
 G. Zheng, W. Liang, M. Hada, M. Ehara, K. Toyota, R. Fukuda, 
 J. Hasegawa, M. Ishida, T. Nakajima, Y. Honda, O. Kitao, H. Nakai, 
 T. Vreven, K. Throssell, J. A. Montgomery, Jr., J. E. Peralta, 
 F. Ogliaro, M. J. Bearpark, J. J. Heyd, E. N. Brothers, K. N. Kudin, 
 V. N. Staroverov, T. A. Keith, R. Kobayashi, J. Normand, 
 K. Raghavachari, A. P. Rendell, J. C. Burant, S. S. Iyengar, 
 J. Tomasi, M. Cossi, J. M. Millam, M. Klene, C. Adamo, R. Cammi, 
 J. W. Ochterski, R. L. Martin, K. Morokuma, O. Farkas, 
 J. B. Foresman, and D. J. Fox, Gaussian, Inc., Wallingford CT, 2019.
 
 ******************************************
 Gaussian 16:  ES64L-G16RevC.02  7-Dec-2021
                19-Sep-2025 
 ******************************************
 SetLPE:    new flags="-opt 'Tsnet.Node.lindarsharg: ssh'  -nodelist 'n2.head.cm.mguif.local' -env GAUSS_MDEF=2147483648 -env GAUSS_EXEDIR="/hpc/softwares/Gaussian/g16/bsd:/hpc/softwares/Gaussian/g16""
 Will use up to    1 processors via Linda.
 ----------------------------------------------------------
 # td=(50-50,nstates=3) b3lyp/6-31+g(d,p) geom=connectivity
 ----------------------------------------------------------
 1/38=1,57=2,172=1/1;
 2/12=2,17=6,18=5,40=1/2;
 3/5=1,6=6,7=111,11=9,25=1,30=1,74=-5/1,2,3,8;
 4//1;
 5/5=2,38=5/2;
 8/6=1,10=2,108=3/1;
 9/41=3,42=1,48=2,70=2/14;
 6/7=2,8=2,9=2,10=2/1;
 99/5=1,9=1/99;
 -------------------
 Title Card Required
 -------------------
 Symbolic Z-matrix:
 Charge =  0 Multiplicity = 1
 C                    -2.50127   3.86447   0.01264 
 C                    -2.60786   2.51927  -0.69298 
 C                    -3.97728   2.32351  -1.33181 
 O                    -1.5495    2.37445  -1.69817 
 C                    -1.10321   1.11828  -1.13269 
 C                     0.40453   1.08081  -0.92634 
 C                     0.87484  -0.26281  -0.32838 
 C                     2.36897  -0.31234  -0.10678 
 C                     3.2475   -0.78241  -1.08605 
 F                     2.7564   -1.22332  -2.26307 
 C                     4.6275   -0.82251  -0.90159 
 F                     5.43303  -1.28598  -1.86847 
 C                     5.17087  -0.37624   0.30098 
 F                     6.49578  -0.40661   0.4939 
 C                     4.32815   0.10232   1.30175 
 F                     4.84425   0.5325    2.46279 
 C                     2.95311   0.12783   1.08342 
 F                     2.16606   0.59792   2.07518 
 C                    -2.01521   1.2961    0.10415 
 C                    -2.89937   0.18659   0.61604 
 C                    -3.24475   0.15973   1.97763 
 C                    -4.07881  -0.83452   2.49032 
 C                    -4.58566  -1.83514   1.6583 
 C                    -4.23649  -1.81257   0.30884 
 Cl                   -4.8533   -3.06626  -0.76199 
 C                    -3.4079   -0.82189  -0.21766 
 H                    -3.23078   3.92969   0.82839 
 H                    -1.49902   4.01071   0.42571 
 H                    -2.70253   4.67872  -0.69176 
 H                    -4.16444   3.13798  -2.03922 
 H                    -4.03826   1.38087  -1.88077 
 H                    -4.76933   2.33115  -0.57524 
 H                    -1.40515   0.28312  -1.78137 
 H                     0.89023   1.2487   -1.89516 
 H                     0.69794   1.90939  -0.27124 
 H                     0.37267  -0.4377    0.62809 
 H                     0.59075  -1.0816   -0.99649 
 H                    -1.42785   1.67859   0.94603 
 H                    -2.8502    0.92391   2.64197 
 H                    -4.33269  -0.83769   3.54621 
 H                    -5.23011  -2.61631   2.04556 
 H                    -3.16474  -0.85019  -1.27339 
 
                          Input orientation:                          
 ---------------------------------------------------------------------
 Center     Atomic      Atomic             Coordinates (Angstroms)
 Number     Number       Type             X           Y           Z
 ---------------------------------------------------------------------
      1          6           0       -2.501274    3.864474    0.012638
      2          6           0       -2.607861    2.519268   -0.692977
      3          6           0       -3.977280    2.323508   -1.331809
      4          8           0       -1.549496    2.374451   -1.698172
      5          6           0       -1.103210    1.118276   -1.132691
      6          6           0        0.404529    1.080808   -0.926335
      7          6           0        0.874841   -0.262808   -0.328378
      8          6           0        2.368974   -0.312336   -0.106775
      9          6           0        3.247499   -0.782408   -1.086049
     10          9           0        2.756401   -1.223323   -2.263074
     11          6           0        4.627500   -0.822511   -0.901587
     12          9           0        5.433026   -1.285977   -1.868471
     13          6           0        5.170867   -0.376238    0.300978
     14          9           0        6.495782   -0.406610    0.493904
     15          6           0        4.328154    0.102315    1.301754
     16          9           0        4.844246    0.532504    2.462788
     17          6           0        2.953109    0.127827    1.083415
     18          9           0        2.166059    0.597918    2.075178
     19          6           0       -2.015212    1.296101    0.104151
     20          6           0       -2.899366    0.186591    0.616039
     21          6           0       -3.244751    0.159733    1.977634
     22          6           0       -4.078810   -0.834516    2.490318
     23          6           0       -4.585664   -1.835142    1.658302
     24          6           0       -4.236489   -1.812571    0.308844
     25         17           0       -4.853297   -3.066262   -0.761987
     26          6           0       -3.407904   -0.821892   -0.217656
     27          1           0       -3.230778    3.929693    0.828390
     28          1           0       -1.499020    4.010709    0.425707
     29          1           0       -2.702525    4.678723   -0.691759
     30          1           0       -4.164443    3.137978   -2.039217
     31          1           0       -4.038260    1.380874   -1.880771
     32          1           0       -4.769327    2.331145   -0.575236
     33          1           0       -1.405146    0.283121   -1.781372
     34          1           0        0.890233    1.248700   -1.895155
     35          1           0        0.697941    1.909388   -0.271236
     36          1           0        0.372666   -0.437702    0.628091
     37          1           0        0.590746   -1.081598   -0.996489
     38          1           0       -1.427848    1.678589    0.946026
     39          1           0       -2.850197    0.923911    2.641974
     40          1           0       -4.332690   -0.837686    3.546209
     41          1           0       -5.230114   -2.616311    2.045564
     42          1           0       -3.164740   -0.850191   -1.273390
 ---------------------------------------------------------------------
                    Distance matrix (angstroms):
                    1          2          3          4          5
     1  C    0.000000
     2  C    1.522771   0.000000
     3  C    2.522044   1.523725   0.000000
     4  O    2.460268   1.466808   2.455800   0.000000
     5  C    3.287547   2.102404   3.122901   1.448073   0.000000
     6  C    4.132089   3.346359   4.572632   2.467278   1.522256
     7  C    5.343117   4.472370   5.589184   3.835216   2.543029
     8  C    6.417111   5.755910   6.980209   5.010566   3.892970
     9  C    7.473220   6.733559   7.867944   5.775086   4.747994
    10  F    7.662094   6.726626   7.667446   5.639489   4.653756
    11  C    8.580388   7.972544   9.171955   7.000742   6.054841
    12  F    9.644627   8.973157  10.093079   7.885642   7.003155
    13  C    8.770891   8.359456   9.676942   7.531678   6.607043
    14  F    9.970998   9.635651  10.975965   8.790108   7.919329
    15  C    7.902958   7.611105   8.991640   6.979178   6.038080
    16  F    8.429823   8.333066   9.768622   7.847694   6.974441
    17  C    6.697715   6.308641   7.660588   5.749608   4.727139
    18  F    6.058750   5.843336   7.233660   5.585659   4.609698
    19  C    2.615563   1.575685   2.639556   2.151302   1.546980
    20  C    3.748252   2.690703   3.085843   3.458967   2.674373
    21  C    4.258999   3.620110   4.021310   4.614154   3.896040
    22  C    5.541482   4.852311   4.959040   5.851354   5.078758
    23  C    6.287966   5.329269   5.158029   6.181012   5.351617
    24  C    5.943698   4.735072   4.457138   5.364625   4.526072
    25  Cl   7.359834   6.020373   5.490148   6.433732   5.631246
    26  C    4.778812   3.468335   3.385124   3.982740   3.148516
    27  H    1.096303   2.166075   2.793484   3.410132   4.034408
    28  H    1.093857   2.169188   3.475238   2.681557   3.309296
    29  H    1.095298   2.161529   2.753489   2.766227   3.927978
    30  H    2.739350   2.148979   1.094905   2.745402   3.777848
    31  H    3.480746   2.180100   1.092537   2.685979   3.040247
    32  H    2.800135   2.172830   1.095354   3.410304   3.901566
    33  H    4.152837   2.762513   3.313783   2.097956   1.099744
    34  H    4.688738   3.911040   5.016498   2.694141   2.138265
    35  H    3.760043   3.387941   4.811861   2.702481   2.147582
    36  H    5.210281   4.401413   5.512488   4.124853   2.774821
    37  H    5.919675   4.825914   5.707368   4.125199   2.779835
    38  H    2.607978   2.187579   3.479088   2.736934   2.177247
    39  H    3.960059   3.704833   4.361208   4.757390   4.163873
    40  H    6.160399   5.675815   5.823618   6.750372   6.012274
    41  H    7.319831   6.383572   6.113759   7.243633   6.409351
    42  H    4.931746   3.464137   3.276583   3.631497   2.853868
                    6          7          8          9         10
     6  C    0.000000
     7  C    1.544037   0.000000
     8  C    2.543929   1.511289   0.000000
     9  C    3.402875   2.544318   1.397051   0.000000
    10  F    3.553476   2.864595   2.372683   1.349434   0.000000
    11  C    4.632140   3.837224   2.448049   1.392852   2.348469
    12  F    5.636938   4.918924   3.666056   2.375351   2.706281
    13  C    5.132958   4.343362   2.832128   2.405860   3.622370
    14  F    6.429063   5.682588   4.171360   3.631641   4.717088
    15  C    4.616997   3.836146   2.448321   2.766253   4.115303
    16  F    5.612297   4.917246   3.666522   4.107656   5.456720
    17  C    3.382681   2.542627   1.396964   2.371027   3.614317
    18  F    3.513581   2.860974   2.372900   3.614992   4.741925
    19  C    2.638825   3.312051   4.674681   5.782119   5.892329
    20  C    3.754233   3.916442   5.341048   6.451357   6.501142
    21  C    4.753805   4.739965   6.006789   7.240379   7.477317
    22  C    5.953345   5.728050   6.970759   8.152786   8.334628
    23  C    6.331283   6.019655   7.334945   8.366490   8.346103
    24  C    5.606813   5.378988   6.786427   7.682255   7.474121
    25  Cl   6.698502   6.392100   7.757230   8.422820   7.972276
    26  C    4.319391   4.320502   5.800367   6.711934   6.507191
    27  H    4.940715   5.980910   7.087070   8.236325   8.482749
    28  H    3.746443   4.946393   5.825258   6.912946   7.261766
    29  H    4.759601   6.111327   7.139536   8.085926   8.191645
    30  H    5.132832   6.315592   7.637050   8.438889   8.183467
    31  H    4.554049   5.408343   6.860515   7.641574   7.286660
    32  H    5.334360   6.216604   7.626453   8.615372   8.492327
    33  H    2.154604   2.758183   4.171669   4.823477   4.451953
    34  H    1.096681   2.177081   2.796750   3.215082   3.119110
    35  H    1.096262   2.180136   2.784862   3.796042   4.244827
    36  H    2.173276   1.094349   2.130960   3.364783   3.828607
    37  H    2.171543   1.094303   2.132006   2.675046   2.512844
    38  H    2.687133   3.270398   4.414525   5.660804   6.018916
    39  H    4.832255   4.909908   6.026912   7.347896   7.752680
    40  H    6.791577   6.516233   7.650659   8.883701   9.173423
    41  H    7.365465   6.960248   8.227211   9.221720   9.180915
    42  H    4.072946   4.190022   5.680869   6.415333   6.014866
                   11         12         13         14         15
    11  C    0.000000
    12  F    1.341096   0.000000
    13  C    1.393043   2.367036   0.000000
    14  F    2.368723   2.735608   1.339232   0.000000
    15  C    2.408241   3.632963   1.393101   2.368594   0.000000
    16  F    3.633464   4.734273   2.367682   2.736057   1.341422
    17  C    2.765314   4.106393   2.405149   3.630934   1.392505
    18  F    4.115512   5.456602   3.622932   4.717627   2.349141
    19  C    7.044547   8.126168   7.380731   8.688392   6.564882
    20  C    7.744365   8.818730   8.095968   9.414649   7.260465
    21  C    8.439612   9.601376   8.597736   9.869153   7.603223
    22  C    9.343714  10.472721   9.516289  10.769901   8.542095
    23  C    9.615656  10.635500   9.957943  11.233654   9.128911
    24  C    9.000870   9.925599   9.516379  10.825554   8.832087
    25  Cl   9.743686  10.497722  10.433120  11.724018   9.929650
    26  C    8.064458   9.005699   8.605981   9.937896   7.937843
    27  H    9.344988  10.466029   9.455519  10.654641   8.485891
    28  H    7.915553   9.020610   7.984250   9.134233   7.070994
    29  H    9.167163  10.156254   9.408956  10.577110   8.622532
    30  H    9.709683  10.569387  10.245694  11.516128   9.617772
    31  H    8.994949   9.839589   9.625772  10.945329   9.042127
    32  H    9.917278  10.901561  10.339494  11.642210   9.552745
    33  H    6.195907   7.016427   6.929277   8.250895   6.512226
    34  H    4.386828   5.202141   5.078115   6.314256   4.832569
    35  H    4.827220   5.931488   5.055550   6.290012   4.349512
    36  H    4.537797   5.706105   4.809731   6.124665   4.048620
    37  H    4.046173   4.924408   4.812324   6.127506   4.544424
    38  H    6.807086   7.986341   6.941285   8.205875   5.978523
    39  H    8.457113   9.687079   8.456247   9.681519   7.348465
    40  H   10.003406  11.175372  10.052962  11.258694   8.996188
    41  H   10.443944  11.436434  10.781554  12.032750   9.965173
    42  H    7.801154   8.629346   8.496212   9.830858   7.980106
                   16         17         18         19         20
    16  F    0.000000
    17  C    2.375465   0.000000
    18  F    2.706881   1.350565   0.000000
    19  C    7.293724   5.196926   4.674980   0.000000
    20  C    7.968291   5.871402   5.287420   1.508234   0.000000
    21  C    8.112102   6.262117   5.429400   2.512576   1.404974
    22  C    9.027205   7.235563   6.420483   3.806804   2.438579
    23  C    9.755826   7.811328   7.188834   4.339043   2.831487
    24  C    9.622817   7.487017   7.065622   3.826201   2.424647
    25  Cl  10.834788   8.634100   8.411128   5.275901   4.037060
    26  C    8.781637   6.561801   6.192093   2.555200   1.403815
    27  H    8.911687   7.263586   6.463827   2.989637   3.763740
    28  H    7.515626   5.943972   5.272637   2.781897   4.076895
    29  H    9.170390   7.473158   6.929071   3.542316   4.682770
    30  H   10.402549   8.334950   7.965890   3.550455   4.166712
    31  H    9.923968   7.696478   7.399738   2.835459   2.992900
    32  H   10.241361   8.200107   7.624195   3.019608   3.084640
    33  H    7.558438   5.217807   5.265509   2.225647   2.826586
    34  H    5.927801   3.792584   4.220757   3.527192   4.668536
    35  H    5.153886   3.177235   3.062839   2.806819   4.086062
    36  H    4.929751   2.680640   2.526426   2.997090   3.331078
    37  H    5.715259   3.371864   3.838948   3.695386   4.048386
    38  H    6.553872   4.649357   3.919056   1.095467   2.121395
    39  H    7.706475   6.061453   5.058691   2.697456   2.156495
    40  H    9.341701   7.751157   6.816057   4.665996   3.418985
    41  H   10.563231   8.684536   8.064460   5.423251   3.915634
    42  H    8.945095   6.628659   6.459671   2.797428   2.171470
                   21         22         23         24         25
    21  C    0.000000
    22  C    1.395360   0.000000
    23  C    2.424778   1.396569   0.000000
    24  C    2.767379   2.395889   1.394084   0.000000
    25  Cl   4.527691   4.019702   2.728568   1.760361   0.000000
    26  C    2.410291   2.789874   2.435778   1.394704   2.724455
    27  H    3.941263   5.116527   5.979782   5.852775   7.355627
    28  H    4.504006   5.864652   6.724629   6.435680   7.921194
    29  H    5.276451   6.512724   7.176311   6.744713   8.038379
    30  H    5.084375   6.025341   6.211360   5.479646   6.371690
    31  H    4.124092   4.900614   4.813257   3.877086   4.657572
    32  H    3.681916   4.460476   4.730790   4.270351   5.401290
    33  H    4.186824   5.161872   5.141409   4.096026   4.913986
    34  H    5.769093   6.947197   7.219597   6.364925   7.272627
    35  H    4.864517   6.162186   6.757300   6.207904   7.470888
    36  H    3.906904   4.841590   5.253495   4.820425   6.012681
    37  H    5.009725   5.832977   5.866086   5.053752   5.799266
    38  H    2.583075   3.965871   4.777598   4.525778   6.096279
    39  H    1.086733   2.150478   3.404678   3.854041   5.614342
    40  H    2.153807   1.085988   2.150141   3.382335   4.878333
    41  H    3.413605   2.167510   1.084211   2.156266   2.868238
    42  H    3.405217   3.873147   3.403523   2.139693   2.832619
                   26         27         28         29         30
    26  C    0.000000
    27  H    4.868588   0.000000
    28  H    5.235627   1.779804   0.000000
    29  H    5.565887   1.775092   1.772963   0.000000
    30  H    4.423913   3.117966   3.733897   2.515302   0.000000
    31  H    2.831162   3.806318   4.322454   3.751499   1.768740
    32  H    3.452967   2.625387   3.810214   3.129915   1.777668
    33  H    2.770794   4.841619   4.333004   4.710814   3.978745
    34  H    5.057206   5.620334   4.327080   5.110883   5.398136
    35  H    4.931605   4.552542   3.118961   4.405590   5.317703
    36  H    3.893019   5.665604   4.830376   6.113641   6.362812
    37  H    4.082062   6.561042   5.685187   6.642273   6.442354
    38  H    3.395171   2.886497   2.390519   3.648006   4.304700
    39  H    3.396520   3.531098   4.033093   5.023365   5.342554
    40  H    3.875843   5.597200   6.424496   7.144829   6.857929
    41  H    3.415048   6.951908   7.775757   8.191408   7.136731
    42  H    1.083745   5.221985   5.412015   5.578604   4.182271
                   31         32         33         34         35
    31  H    0.000000
    32  H    1.772539   0.000000
    33  H    2.854511   4.119087   0.000000
    34  H    4.930286   5.911387   2.492800   0.000000
    35  H    5.030063   5.491932   3.057488   1.763689   0.000000
    36  H    5.390536   5.962768   3.079889   3.078733   2.534448
    37  H    5.317276   6.368253   2.542063   2.515469   3.079526
    38  H    3.859231   3.729015   3.063747   3.691966   2.460482
    39  H    4.698461   4.001726   4.697316   5.889129   4.695449
    40  H    5.870333   5.217131   6.181411   7.825623   6.886694
    41  H    5.728360   5.617672   6.138609   8.241737   7.809696
    42  H    2.471760   3.630842   2.153744   4.608117   4.851793
                   36         37         38         39         40
    36  H    0.000000
    37  H    1.761085   0.000000
    38  H    2.796716   3.932775   0.000000
    39  H    4.036900   5.394494   2.338558   0.000000
    40  H    5.551196   6.703419   4.640118   2.473591   0.000000
    41  H    6.176302   6.744764   5.840580   4.307306   2.494156
    42  H    4.037204   3.772784   3.786467   4.310041   4.959113
                   41         42
    41  H    0.000000
    42  H    4.289569   0.000000
 Stoichiometry    C19H16ClF5O
 Framework group  C1[X(C19H16ClF5O)]
 Deg. of freedom   120
 Full point group                 C1      NOp   1
 Largest Abelian subgroup         C1      NOp   1
 Largest concise Abelian subgroup C1      NOp   1
                         Standard orientation:                         
 ---------------------------------------------------------------------
 Center     Atomic      Atomic             Coordinates (Angstroms)
 Number     Number       Type             X           Y           Z
 ---------------------------------------------------------------------
      1          6           0       -2.501274    3.864474    0.012638
      2          6           0       -2.607861    2.519268   -0.692977
      3          6           0       -3.977280    2.323508   -1.331809
      4          8           0       -1.549496    2.374451   -1.698172
      5          6           0       -1.103210    1.118276   -1.132691
      6          6           0        0.404529    1.080808   -0.926335
      7          6           0        0.874841   -0.262808   -0.328378
      8          6           0        2.368974   -0.312336   -0.106775
      9          6           0        3.247499   -0.782408   -1.086049
     10          9           0        2.756401   -1.223323   -2.263074
     11          6           0        4.627500   -0.822511   -0.901587
     12          9           0        5.433026   -1.285977   -1.868471
     13          6           0        5.170867   -0.376238    0.300978
     14          9           0        6.495782   -0.406610    0.493904
     15          6           0        4.328154    0.102315    1.301754
     16          9           0        4.844246    0.532504    2.462788
     17          6           0        2.953109    0.127827    1.083415
     18          9           0        2.166059    0.597918    2.075178
     19          6           0       -2.015212    1.296101    0.104151
     20          6           0       -2.899366    0.186591    0.616039
     21          6           0       -3.244751    0.159733    1.977634
     22          6           0       -4.078810   -0.834516    2.490318
     23          6           0       -4.585664   -1.835142    1.658302
     24          6           0       -4.236489   -1.812571    0.308844
     25         17           0       -4.853297   -3.066262   -0.761987
     26          6           0       -3.407904   -0.821892   -0.217656
     27          1           0       -3.230778    3.929693    0.828390
     28          1           0       -1.499020    4.010709    0.425707
     29          1           0       -2.702525    4.678723   -0.691759
     30          1           0       -4.164443    3.137978   -2.039217
     31          1           0       -4.038260    1.380874   -1.880771
     32          1           0       -4.769327    2.331145   -0.575236
     33          1           0       -1.405146    0.283121   -1.781372
     34          1           0        0.890233    1.248700   -1.895155
     35          1           0        0.697941    1.909388   -0.271236
     36          1           0        0.372666   -0.437702    0.628091
     37          1           0        0.590746   -1.081598   -0.996489
     38          1           0       -1.427848    1.678589    0.946026
     39          1           0       -2.850197    0.923911    2.641974
     40          1           0       -4.332690   -0.837686    3.546209
     41          1           0       -5.230114   -2.616311    2.045564
     42          1           0       -3.164740   -0.850191   -1.273390
 ---------------------------------------------------------------------
 Rotational constants (GHZ):           0.2779992           0.0795945           0.0757629
 Standard basis: 6-31+G(d,p) (6D, 7F)
 There are   578 symmetry adapted cartesian basis functions of A   symmetry.
 There are   578 symmetry adapted basis functions of A   symmetry.
   578 basis functions,   968 primitive gaussians,   578 cartesian basis functions
   100 alpha electrons      100 beta electrons
       nuclear repulsion energy      2449.3760245375 Hartrees.
 NAtoms=   42 NActive=   42 NUniq=   42 SFac= 1.00D+00 NAtFMM=   60 NAOKFM=F Big=F
 Integral buffers will be    131072 words long.
 Regular integral format.
 Two-electron integral symmetry is turned on.
 One-electron integrals computed using PRISM.
 NBasis=   578 RedAO= T EigKep=  1.17D-06  NBF=   578
 NBsUse=   577 1.00D-06 EigRej=  9.23D-07 NBFU=   577
 ExpMin= 4.38D-02 ExpMax= 2.52D+04 ExpMxC= 3.78D+03 IAcc=3 IRadAn=         5 AccDes= 0.00D+00
 Harris functional with IExCor=  402 and IRadAn=       5 diagonalized for initial guess.
 HarFok:  IExCor=  402 AccDes= 0.00D+00 IRadAn=         5 IDoV= 1 UseB2=F ITyADJ=14
 ICtDFT=  3500011 ScaDFX=  1.000000  1.000000  1.000000  1.000000
 FoFCou: FMM=F IPFlag=           0 FMFlag=      100000 FMFlg1=           0
         NFxFlg=           0 DoJE=T BraDBF=F KetDBF=T FulRan=T
         wScrn=  0.000000 ICntrl=       500 IOpCl=  0 I1Cent=   200000004 NGrid=           0
         NMat0=    1 NMatS0=      1 NMatT0=    0 NMatD0=    1 NMtDS0=    0 NMtDT0=    0
 Petite list used in FoFCou.
 Requested convergence on RMS density matrix=1.00D-08 within 128 cycles.
 Requested convergence on MAX density matrix=1.00D-06.
 Requested convergence on             energy=1.00D-06.
 No special actions if energy rises.
 SCF Done:  E(RB3LYP) =  -1768.30320710     A.U. after   16 cycles
            NFock= 16  Conv=0.22D-08     -V/T= 2.0073
 DoSCS=F DFT=T ScalE2(SS,OS)=  1.000000  1.000000
 ExpMin= 4.38D-02 ExpMax= 2.52D+04 ExpMxC= 3.78D+03 IAcc=3 IRadAn=         5 AccDes= 0.00D+00
 HarFok:  IExCor=  205 AccDes= 0.00D+00 IRadAn=         5 IDoV=-2 UseB2=F ITyADJ=14
 ICtDFT= 12500011 ScaDFX=  1.000000  1.000000  1.000000  1.000000
 GSVD:  LWork=       -1140 too small for GESVD, short by        4950 words or        4950 for optimal perf.
 Range of M.O.s used for correlation:    31   577
 NBasis=   578 NAE=   100 NBE=   100 NFC=    30 NFV=     0
 NROrb=    547 NOA=    70 NOB=    70 NVA=   477 NVB=   477

 **** Warning!!: The largest alpha MO coefficient is  0.16305373D+03

 Orbital symmetries:
       Occupied  (A) (A) (A) (A) (A) (A) (A) (A) (A) (A) (A) (A)
                 (A) (A) (A) (A) (A) (A) (A) (A) (A) (A) (A) (A)
                 (A) (A) (A) (A) (A) (A) (A) (A) (A) (A) (A) (A)
                 (A) (A) (A) (A) (A) (A) (A) (A) (A) (A) (A) (A)
                 (A) (A) (A) (A) (A) (A) (A) (A) (A) (A) (A) (A)
                 (A) (A) (A) (A) (A) (A) (A) (A) (A) (A) (A) (A)
                 (A) (A) (A) (A) (A) (A) (A) (A) (A) (A) (A) (A)
                 (A) (A) (A) (A) (A) (A) (A) (A) (A) (A) (A) (A)
                 (A) (A) (A) (A)
       Virtual   (A) (A) (A) (A) (A) (A) (A) (A) (A) (A) (A) (A)
                 (A) (A) (A) (A) (A) (A) (A) (A) (A) (A) (A) (A)
                 (A) (A) (A) (A) (A) (A) (A) (A) (A) (A) (A) (A)
                 (A) (A) (A) (A) (A) (A) (A) (A) (A) (A) (A) (A)
                 (A) (A) (A) (A) (A) (A) (A) (A) (A) (A) (A) (A)
                 (A) (A) (A) (A) (A) (A) (A) (A) (A) (A) (A) (A)
                 (A) (A) (A) (A) (A) (A) (A) (A) (A) (A) (A) (A)
                 (A) (A) (A) (A) (A) (A) (A) (A) (A) (A) (A) (A)
                 (A) (A) (A) (A) (A) (A) (A) (A) (A) (A) (A) (A)
                 (A) (A) (A) (A) (A) (A) (A) (A) (A) (A) (A) (A)
                 (A) (A) (A) (A) (A) (A) (A) (A) (A) (A) (A) (A)
                 (A) (A) (A) (A) (A) (A) (A) (A) (A) (A) (A) (A)
                 (A) (A) (A) (A) (A) (A) (A) (A) (A) (A) (A) (A)
                 (A) (A) (A) (A) (A) (A) (A) (A) (A) (A) (A) (A)
                 (A) (A) (A) (A) (A) (A) (A) (A) (A) (A) (A) (A)
                 (A) (A) (A) (A) (A) (A) (A) (A) (A) (A) (A) (A)
                 (A) (A) (A) (A) (A) (A) (A) (A) (A) (A) (A) (A)
                 (A) (A) (A) (A) (A) (A) (A) (A) (A) (A) (A) (A)
                 (A) (A) (A) (A) (A) (A) (A) (A) (A) (A) (A) (A)
                 (A) (A) (A) (A) (A) (A) (A) (A) (A) (A) (A) (A)
                 (A) (A) (A) (A) (A) (A) (A) (A) (A) (A) (A) (A)
                 (A) (A) (A) (A) (A) (A) (A) (A) (A) (A) (A) (A)
                 (A) (A) (A) (A) (A) (A) (A) (A) (A) (A) (A) (A)
                 (A) (A) (A) (A) (A) (A) (A) (A) (A) (A) (A) (A)
                 (A) (A) (A) (A) (A) (A) (A) (A) (A) (A) (A) (A)
                 (A) (A) (A) (A) (A) (A) (A) (A) (A) (A) (A) (A)
                 (A) (A) (A) (A) (A) (A) (A) (A) (A) (A) (A) (A)
                 (A) (A) (A) (A) (A) (A) (A) (A) (A) (A) (A) (A)
                 (A) (A) (A) (A) (A) (A) (A) (A) (A) (A) (A) (A)
                 (A) (A) (A) (A) (A) (A) (A) (A) (A) (A) (A) (A)
                 (A) (A) (A) (A) (A) (A) (A) (A) (A) (A) (A) (A)
                 (A) (A) (A) (A) (A) (A) (A) (A) (A) (A) (A) (A)
                 (A) (A) (A) (A) (A) (A) (A) (A) (A) (A) (A) (A)
                 (A) (A) (A) (A) (A) (A) (A) (A) (A) (A) (A) (A)
                 (A) (A) (A) (A) (A) (A) (A) (A) (A) (A) (A) (A)
                 (A) (A) (A) (A) (A) (A) (A) (A) (A) (A) (A) (A)
                 (A) (A) (A) (A) (A) (A) (A) (A) (A) (A) (A) (A)
                 (A) (A) (A) (A) (A) (A) (A) (A) (A) (A) (A) (A)
                 (A) (A) (A) (A) (A) (A) (A) (A) (A) (A) (A) (A)
                 (A) (A) (A) (A) (A) (A) (A) (A) (A)
    24 initial guesses have been made.
 Convergence on wavefunction:    0.001000000000000
 Iteration     1 Dimension    24 NMult     0 NNew     24
 CISAX will form    24 AO SS matrices at one time.
 New state      1 was old state     12
 New state      2 was old state      8
 New state      3 was old state      6
 New state      4 was old state     16
 New state      5 was old state      1
 New state      6 was old state      2
 New state      7 was old state     15
 New state      8 was old state     10
 New state      9 was old state      3
 New state     10 was old state     18
 New state     11 was old state      9
 New state     12 was old state      4
 Vector   4 SDiff=3.37D-01 TDiff=1.62D+01 assumed to be singlet.
 Vector   6 SDiff=1.82D+01 TDiff=1.43D+00 assumed to be triplet.
 Vector  10 SDiff=3.15D-01 TDiff=1.60D+01 assumed to be singlet.
 Vector  12 SDiff=1.81D+01 TDiff=1.44D+00 assumed to be triplet.
 Iteration     2 Dimension    36 NMult    24 NNew     12
 New state      2 was old state      3
 New state      3 was old state      2
 New state      4 was old state      7
 New state      6 was old state      9
 Iteration     3 Dimension    48 NMult    36 NNew     12
 New state      5 was old state      6
 New state      6 was old state      5
 Iteration     4 Dimension    60 NMult    48 NNew     12
 Iteration     5 Dimension    72 NMult    60 NNew     12
 Iteration     6 Dimension    84 NMult    72 NNew     12
 Iteration     7 Dimension    90 NMult    84 NNew      6
 Iteration     8 Dimension    94 NMult    90 NNew      4
 No map to state      6
 Iteration     9 Dimension    98 NMult    94 NNew      4
 Iteration    10 Dimension   102 NMult    98 NNew      4
 Iteration    11 Dimension   106 NMult   102 NNew      4
 Iteration    12 Dimension   110 NMult   106 NNew      4
 Iteration    13 Dimension   114 NMult   110 NNew      4
 Iteration    14 Dimension   118 NMult   114 NNew      4
 Iteration    15 Dimension   122 NMult   118 NNew      4
 Iteration    16 Dimension   124 NMult   122 NNew      2
 ***********************************************************************
 Excited states from <AA,BB:AA,BB> singles matrix:
 ***********************************************************************
 
 Ground to excited state transition densities written to RWF  633
 Ground to excited state transition electric dipole moments (Au):
       state          X           Y           Z        Dip. S.      Osc.
         1        -0.0000     -0.0000     -0.0000      0.0000      0.0000
         2        -0.0000     -0.0000      0.0000      0.0000      0.0000
         3        -0.0000     -0.0000      0.0000      0.0000      0.0000
         4        -0.1600     -0.1816      0.1020      0.0690      0.0085
         5        -0.0336      0.0553      0.1346      0.0223      0.0029
         6         0.0044     -0.0088     -0.0181      0.0004      0.0001
 Ground to excited state transition velocity dipole moments (Au):
       state          X           Y           Z        Dip. S.      Osc.
         1         0.0000      0.0000      0.0000      0.0000      0.0000
         2        -0.0000     -0.0000     -0.0000      0.0000      0.0000
         3         0.0000      0.0000     -0.0000      0.0000      0.0000
         4         0.0313      0.0352     -0.0212      0.0027      0.0096
         5         0.0065     -0.0111     -0.0266      0.0009      0.0030
         6        -0.0004      0.0017      0.0036      0.0000      0.0001
 Ground to excited state transition magnetic dipole moments (Au):
       state          X           Y           Z
         1        -0.0000      0.0000     -0.0000
         2         0.0000     -0.0000     -0.0000
         3        -0.0000     -0.0000     -0.0000
         4        -0.3834      0.1306     -0.2915
         5         0.0797      0.2412     -0.1018
         6         0.3027     -0.0457      0.0646
 Ground to excited state transition velocity quadrupole moments (Au):
       state          XX          YY          ZZ          XY          XZ          YZ
         1        -0.0000     -0.0000      0.0000     -0.0000     -0.0000     -0.0000
         2        -0.0000      0.0000      0.0000      0.0000      0.0000     -0.0000
         3        -0.0000     -0.0000     -0.0000     -0.0000      0.0000      0.0000
         4        -0.2408     -0.0211     -0.0802     -0.2711      0.1567      0.0085
         5         0.0600      0.0217     -0.0172     -0.0914     -0.2003      0.0331
         6        -0.0037      0.0724     -0.0671      0.0148      0.0376      0.0690
 <0|del|b> * <b|rxdel|0> + <0|del|b> * <b|delr+rdel|0>
 Rotatory Strengths (R) in cgs (10**-40 erg-esu-cm/Gauss)
       state          XX          YY          ZZ    R(velocity)    E-M Angle
         1        -0.0000     -0.0000      0.0000     -0.0000       90.00
         2         0.0000     -0.0000     -0.0000     -0.0000       90.00
         3         0.0000     -0.0000     -0.0000     -0.0000       90.00
         4        21.0128    -21.5940     -4.1548     -1.5786       92.76
         5         0.4354      1.8479     -0.2760      0.6691       86.11
         6         0.2665      0.0607     -0.1934      0.0446       90.00
 1/2[<0|r|b>*<b|rxdel|0> + (<0|rxdel|b>*<b|r|0>)*]
 Rotatory Strengths (R) in cgs (10**-40 erg-esu-cm/Gauss)
       state          XX          YY          ZZ     R(length)
         1        -0.0000      0.0000     -0.0000     -0.0000
         2         0.0000     -0.0000      0.0000      0.0000
         3        -0.0000     -0.0000      0.0000     -0.0000
         4       -43.3774     16.7707     21.0351     -1.8572
         5         1.8927     -9.4353      9.6820      0.7131
         6        -0.9391     -0.2857      0.8253     -0.1332
  1/2[<0|del|b>*<b|r|0> + (<0|r|b>*<b|del|0>)*] (Au)
       state          X           Y           Z        Dip. S.   Osc.(frdel)
         1        -0.0000     -0.0000     -0.0000      0.0000      0.0000
         2         0.0000      0.0000     -0.0000     -0.0000     -0.0000
         3        -0.0000     -0.0000     -0.0000      0.0000      0.0000
         4        -0.0050     -0.0064     -0.0022      0.0136      0.0090
         5        -0.0002     -0.0006     -0.0036      0.0044      0.0029
         6        -0.0000     -0.0000     -0.0001      0.0001      0.0001

 Excitation energies and oscillator strengths:
 
 Excited State   1:      Triplet-A      3.6088 eV  343.56 nm  f=0.0000  <S**2>=2.000
      98 ->103         0.38484
      98 ->104        -0.17492
      99 ->104         0.13911
     100 ->103         0.25386
     100 ->104         0.44508
     100 ->105         0.10851
 This state for optimization and/or second-order correction.
 Total Energy, E(TD-HF/TD-DFT) =  -1768.17058432    
 Copying the excited state density for this state as the 1-particle RhoCI density.
 
 Excited State   2:      Triplet-A      3.7089 eV  334.29 nm  f=0.0000  <S**2>=2.000
      96 ->101         0.45492
      96 ->102         0.12881
      97 ->105         0.47112
      99 ->101         0.18156
 
 Excited State   3:      Triplet-A      4.3972 eV  281.96 nm  f=0.0000  <S**2>=2.000
      98 ->104         0.24933
      99 ->104        -0.12038
     100 ->103         0.58023
     100 ->104        -0.24187
 
 Excited State   4:      Singlet-A      5.0395 eV  246.02 nm  f=0.0085  <S**2>=0.000
      98 ->103        -0.17421
      98 ->104        -0.33816
      99 ->103         0.14467
     100 ->103         0.50239
     100 ->104        -0.25040
 
 Excited State   5:      Singlet-A      5.2499 eV  236.17 nm  f=0.0029  <S**2>=0.000
      96 ->105         0.36158
      97 ->101        -0.53979
      99 ->105         0.23496
 
 Excited State   6:      Singlet-A      5.2964 eV  234.09 nm  f=0.0001  <S**2>=0.000
      97 ->102         0.68900
 SavETr:  write IOETrn=   770 NScale= 10 NData=  16 NLR=1 NState=    6 LETran=     118.

 **********************************************************************

            Population analysis using the SCF Density.

 **********************************************************************

 Orbital symmetries:
       Occupied  (A) (A) (A) (A) (A) (A) (A) (A) (A) (A) (A) (A)
                 (A) (A) (A) (A) (A) (A) (A) (A) (A) (A) (A) (A)
                 (A) (A) (A) (A) (A) (A) (A) (A) (A) (A) (A) (A)
                 (A) (A) (A) (A) (A) (A) (A) (A) (A) (A) (A) (A)
                 (A) (A) (A) (A) (A) (A) (A) (A) (A) (A) (A) (A)
                 (A) (A) (A) (A) (A) (A) (A) (A) (A) (A) (A) (A)
                 (A) (A) (A) (A) (A) (A) (A) (A) (A) (A) (A) (A)
                 (A) (A) (A) (A) (A) (A) (A) (A) (A) (A) (A) (A)
                 (A) (A) (A) (A)
       Virtual   (A) (A) (A) (A) (A) (A) (A) (A) (A) (A) (A) (A)
                 (A) (A) (A) (A) (A) (A) (A) (A) (A) (A) (A) (A)
                 (A) (A) (A) (A) (A) (A) (A) (A) (A) (A) (A) (A)
                 (A) (A) (A) (A) (A) (A) (A) (A) (A) (A) (A) (A)
                 (A) (A) (A) (A) (A) (A) (A) (A) (A) (A) (A) (A)
                 (A) (A) (A) (A) (A) (A) (A) (A) (A) (A) (A) (A)
                 (A) (A) (A) (A) (A) (A) (A) (A) (A) (A) (A) (A)
                 (A) (A) (A) (A) (A) (A) (A) (A) (A) (A) (A) (A)
                 (A) (A) (A) (A) (A) (A) (A) (A) (A) (A) (A) (A)
                 (A) (A) (A) (A) (A) (A) (A) (A) (A) (A) (A) (A)
                 (A) (A) (A) (A) (A) (A) (A) (A) (A) (A) (A) (A)
                 (A) (A) (A) (A) (A) (A) (A) (A) (A) (A) (A) (A)
                 (A) (A) (A) (A) (A) (A) (A) (A) (A) (A) (A) (A)
                 (A) (A) (A) (A) (A) (A) (A) (A) (A) (A) (A) (A)
                 (A) (A) (A) (A) (A) (A) (A) (A) (A) (A) (A) (A)
                 (A) (A) (A) (A) (A) (A) (A) (A) (A) (A) (A) (A)
                 (A) (A) (A) (A) (A) (A) (A) (A) (A) (A) (A) (A)
                 (A) (A) (A) (A) (A) (A) (A) (A) (A) (A) (A) (A)
                 (A) (A) (A) (A) (A) (A) (A) (A) (A) (A) (A) (A)
                 (A) (A) (A) (A) (A) (A) (A) (A) (A) (A) (A) (A)
                 (A) (A) (A) (A) (A) (A) (A) (A) (A) (A) (A) (A)
                 (A) (A) (A) (A) (A) (A) (A) (A) (A) (A) (A) (A)
                 (A) (A) (A) (A) (A) (A) (A) (A) (A) (A) (A) (A)
                 (A) (A) (A) (A) (A) (A) (A) (A) (A) (A) (A) (A)
                 (A) (A) (A) (A) (A) (A) (A) (A) (A) (A) (A) (A)
                 (A) (A) (A) (A) (A) (A) (A) (A) (A) (A) (A) (A)
                 (A) (A) (A) (A) (A) (A) (A) (A) (A) (A) (A) (A)
                 (A) (A) (A) (A) (A) (A) (A) (A) (A) (A) (A) (A)
                 (A) (A) (A) (A) (A) (A) (A) (A) (A) (A) (A) (A)
                 (A) (A) (A) (A) (A) (A) (A) (A) (A) (A) (A) (A)
                 (A) (A) (A) (A) (A) (A) (A) (A) (A) (A) (A) (A)
                 (A) (A) (A) (A) (A) (A) (A) (A) (A) (A) (A) (A)
                 (A) (A) (A) (A) (A) (A) (A) (A) (A) (A) (A) (A)
                 (A) (A) (A) (A) (A) (A) (A) (A) (A) (A) (A) (A)
                 (A) (A) (A) (A) (A) (A) (A) (A) (A) (A) (A) (A)
                 (A) (A) (A) (A) (A) (A) (A) (A) (A) (A) (A) (A)
                 (A) (A) (A) (A) (A) (A) (A) (A) (A) (A) (A) (A)
                 (A) (A) (A) (A) (A) (A) (A) (A) (A) (A) (A) (A)
                 (A) (A) (A) (A) (A) (A) (A) (A) (A) (A) (A) (A)
                 (A) (A) (A) (A) (A) (A) (A) (A) (A)
 The electronic state is 1-A.
 Alpha  occ. eigenvalues -- -101.56294 -24.76614 -24.76346 -24.76288 -24.76139
 Alpha  occ. eigenvalues --  -24.76014 -19.15702 -10.32831 -10.32410 -10.32386
 Alpha  occ. eigenvalues --  -10.32217 -10.32194 -10.27017 -10.26276 -10.25671
 Alpha  occ. eigenvalues --  -10.25306 -10.22802 -10.22723 -10.21985 -10.21927
 Alpha  occ. eigenvalues --  -10.21919 -10.21728 -10.21452 -10.20913 -10.19052
 Alpha  occ. eigenvalues --  -10.18796  -9.47799  -7.24204  -7.23235  -7.23205
 Alpha  occ. eigenvalues --   -1.28282  -1.27554  -1.26977  -1.26194  -1.25948
 Alpha  occ. eigenvalues --   -1.05307  -0.92283  -0.90622  -0.85619  -0.84069
 Alpha  occ. eigenvalues --   -0.80603  -0.79859  -0.79721  -0.77330  -0.75398
 Alpha  occ. eigenvalues --   -0.73067  -0.70533  -0.69960  -0.68178  -0.65787
 Alpha  occ. eigenvalues --   -0.63437  -0.61373  -0.61286  -0.61053  -0.60327
 Alpha  occ. eigenvalues --   -0.58933  -0.56482  -0.55759  -0.55165  -0.54189
 Alpha  occ. eigenvalues --   -0.54109  -0.53336  -0.51376  -0.50623  -0.50079
 Alpha  occ. eigenvalues --   -0.49679  -0.49239  -0.48581  -0.48172  -0.47404
 Alpha  occ. eigenvalues --   -0.46702  -0.46310  -0.46159  -0.45985  -0.45349
 Alpha  occ. eigenvalues --   -0.44532  -0.43476  -0.43083  -0.42388  -0.41734
 Alpha  occ. eigenvalues --   -0.41424  -0.40820  -0.40585  -0.39746  -0.39157
 Alpha  occ. eigenvalues --   -0.38898  -0.38085  -0.37454  -0.37038  -0.36747
 Alpha  occ. eigenvalues --   -0.36262  -0.35108  -0.32584  -0.32462  -0.31806
 Alpha  occ. eigenvalues --   -0.28301  -0.27717  -0.27310  -0.26375  -0.25928
 Alpha virt. eigenvalues --   -0.04561  -0.04323  -0.03940  -0.03667  -0.03615
 Alpha virt. eigenvalues --   -0.00852   0.00028   0.00254   0.00878   0.01294
 Alpha virt. eigenvalues --    0.01628   0.02065   0.02700   0.03381   0.03520
 Alpha virt. eigenvalues --    0.03765   0.04125   0.04642   0.04857   0.05369
 Alpha virt. eigenvalues --    0.05778   0.06083   0.06125   0.06428   0.06679
 Alpha virt. eigenvalues --    0.06849   0.07413   0.08050   0.08451   0.08914
 Alpha virt. eigenvalues --    0.08929   0.09012   0.09334   0.09654   0.10468
 Alpha virt. eigenvalues --    0.10622   0.10753   0.11013   0.11286   0.11509
 Alpha virt. eigenvalues --    0.11871   0.11935   0.12299   0.12404   0.12930
 Alpha virt. eigenvalues --    0.13134   0.13545   0.13615   0.14072   0.14150
 Alpha virt. eigenvalues --    0.14576   0.14836   0.15093   0.15260   0.15516
 Alpha virt. eigenvalues --    0.15895   0.16366   0.16424   0.16715   0.17239
 Alpha virt. eigenvalues --    0.17491   0.17656   0.17713   0.18135   0.18569
 Alpha virt. eigenvalues --    0.18717   0.18779   0.19362   0.19467   0.20057
 Alpha virt. eigenvalues --    0.20078   0.20347   0.20488   0.21067   0.21429
 Alpha virt. eigenvalues --    0.21607   0.21892   0.22022   0.22428   0.22574
 Alpha virt. eigenvalues --    0.23062   0.23512   0.23649   0.23821   0.24224
 Alpha virt. eigenvalues --    0.24781   0.25046   0.25417   0.25784   0.26214
 Alpha virt. eigenvalues --    0.26279   0.26582   0.26758   0.27214   0.27739
 Alpha virt. eigenvalues --    0.27930   0.28352   0.28660   0.28984   0.29283
 Alpha virt. eigenvalues --    0.29544   0.30050   0.30137   0.30652   0.30875
 Alpha virt. eigenvalues --    0.31280   0.31585   0.31823   0.31975   0.32389
 Alpha virt. eigenvalues --    0.32578   0.32782   0.33005   0.33840   0.34339
 Alpha virt. eigenvalues --    0.34695   0.35153   0.35752   0.35985   0.36760
 Alpha virt. eigenvalues --    0.36951   0.37213   0.37497   0.37885   0.38074
 Alpha virt. eigenvalues --    0.38322   0.38984   0.39326   0.39417   0.40221
 Alpha virt. eigenvalues --    0.40486   0.40634   0.41122   0.42159   0.42423
 Alpha virt. eigenvalues --    0.42588   0.42981   0.43468   0.44483   0.44869
 Alpha virt. eigenvalues --    0.45591   0.46639   0.47481   0.49331   0.51387
 Alpha virt. eigenvalues --    0.51915   0.52528   0.52846   0.53235   0.54589
 Alpha virt. eigenvalues --    0.55674   0.59957   0.61189   0.62037   0.62218
 Alpha virt. eigenvalues --    0.63143   0.64224   0.64927   0.66475   0.66591
 Alpha virt. eigenvalues --    0.67203   0.67821   0.68120   0.68475   0.69794
 Alpha virt. eigenvalues --    0.69971   0.70436   0.70724   0.70917   0.71323
 Alpha virt. eigenvalues --    0.71840   0.72227   0.72801   0.73290   0.74592
 Alpha virt. eigenvalues --    0.75084   0.75392   0.76465   0.76920   0.77500
 Alpha virt. eigenvalues --    0.78929   0.79380   0.80360   0.80649   0.81271
 Alpha virt. eigenvalues --    0.81874   0.83146   0.83732   0.84845   0.85376
 Alpha virt. eigenvalues --    0.86325   0.86901   0.87466   0.88547   0.88725
 Alpha virt. eigenvalues --    0.89646   0.90556   0.91092   0.91808   0.92734
 Alpha virt. eigenvalues --    0.93308   0.94823   0.95433   0.96163   0.96953
 Alpha virt. eigenvalues --    0.98003   0.98203   0.99329   0.99840   1.00535
 Alpha virt. eigenvalues --    1.01311   1.02239   1.03033   1.04289   1.05086
 Alpha virt. eigenvalues --    1.05413   1.07279   1.07835   1.08512   1.09950
 Alpha virt. eigenvalues --    1.10069   1.11703   1.12677   1.12946   1.13838
 Alpha virt. eigenvalues --    1.15376   1.15679   1.15886   1.17289   1.17805
 Alpha virt. eigenvalues --    1.18512   1.19455   1.20413   1.20874   1.21467
 Alpha virt. eigenvalues --    1.22722   1.23069   1.23868   1.25208   1.26053
 Alpha virt. eigenvalues --    1.26735   1.27532   1.27743   1.28469   1.29703
 Alpha virt. eigenvalues --    1.29799   1.30851   1.31466   1.33233   1.35271
 Alpha virt. eigenvalues --    1.35719   1.37034   1.37552   1.39217   1.39506
 Alpha virt. eigenvalues --    1.40515   1.40903   1.42306   1.43402   1.46500
 Alpha virt. eigenvalues --    1.47066   1.50857   1.52324   1.52493   1.53207
 Alpha virt. eigenvalues --    1.56851   1.57419   1.58052   1.58721   1.59216
 Alpha virt. eigenvalues --    1.60071   1.60458   1.60835   1.62715   1.63244
 Alpha virt. eigenvalues --    1.63496   1.64025   1.64709   1.65507   1.66223
 Alpha virt. eigenvalues --    1.69014   1.69156   1.70122   1.70315   1.70988
 Alpha virt. eigenvalues --    1.72819   1.73012   1.74228   1.74398   1.75430
 Alpha virt. eigenvalues --    1.75503   1.75609   1.75856   1.76642   1.77417
 Alpha virt. eigenvalues --    1.78698   1.79336   1.79554   1.80159   1.80981
 Alpha virt. eigenvalues --    1.81062   1.81307   1.81949   1.82551   1.83794
 Alpha virt. eigenvalues --    1.84394   1.85222   1.86297   1.86657   1.87092
 Alpha virt. eigenvalues --    1.87896   1.88645   1.90145   1.90291   1.90921
 Alpha virt. eigenvalues --    1.91681   1.92415   1.93097   1.94865   1.96428
 Alpha virt. eigenvalues --    1.96949   1.97299   1.97948   1.98243   1.99255
 Alpha virt. eigenvalues --    2.00621   2.01393   2.01771   2.02583   2.03587
 Alpha virt. eigenvalues --    2.03878   2.05756   2.06230   2.07289   2.08224
 Alpha virt. eigenvalues --    2.08454   2.10439   2.11296   2.12057   2.12325
 Alpha virt. eigenvalues --    2.12692   2.13660   2.15056   2.15272   2.15695
 Alpha virt. eigenvalues --    2.17085   2.17997   2.19571   2.20094   2.20789
 Alpha virt. eigenvalues --    2.22024   2.22687   2.23668   2.24518   2.25318
 Alpha virt. eigenvalues --    2.26583   2.27441   2.28895   2.29860   2.30440
 Alpha virt. eigenvalues --    2.30951   2.32016   2.32537   2.32740   2.33345
 Alpha virt. eigenvalues --    2.34809   2.35233   2.36374   2.37379   2.37909
 Alpha virt. eigenvalues --    2.38351   2.38863   2.40306   2.41816   2.43306
 Alpha virt. eigenvalues --    2.44955   2.45969   2.47848   2.48796   2.50015
 Alpha virt. eigenvalues --    2.50558   2.52924   2.53109   2.53429   2.54647
 Alpha virt. eigenvalues --    2.55298   2.57282   2.58624   2.59505   2.61147
 Alpha virt. eigenvalues --    2.61585   2.62422   2.63480   2.63571   2.67219
 Alpha virt. eigenvalues --    2.67456   2.69465   2.69872   2.71427   2.71814
 Alpha virt. eigenvalues --    2.72332   2.72998   2.73299   2.75601   2.76134
 Alpha virt. eigenvalues --    2.78582   2.79897   2.80350   2.82797   2.84028
 Alpha virt. eigenvalues --    2.85416   2.86786   2.87089   2.87496   2.90299
 Alpha virt. eigenvalues --    2.91068   2.92265   2.96624   2.98454   2.98685
 Alpha virt. eigenvalues --    3.04028   3.04616   3.05244   3.08289   3.13039
 Alpha virt. eigenvalues --    3.14531   3.16912   3.17267   3.19250   3.20853
 Alpha virt. eigenvalues --    3.25581   3.27063   3.28183   3.28708   3.28826
 Alpha virt. eigenvalues --    3.33428   3.34170   3.37452   3.38696   3.39895
 Alpha virt. eigenvalues --    3.44322   3.45010   3.45911   3.46241   3.49310
 Alpha virt. eigenvalues --    3.49896   3.50862   3.52813   3.57716   3.59665
 Alpha virt. eigenvalues --    3.79352   4.23195   4.26661   4.27691   4.30027
 Alpha virt. eigenvalues --    4.32224   4.36649   4.39145   4.41572   4.44585
 Alpha virt. eigenvalues --    4.47411   4.49711   4.50111   4.51960   4.55332
 Alpha virt. eigenvalues --    4.60361   4.63850   4.72731   4.77967   4.81923
 Alpha virt. eigenvalues --    4.89834   5.10554   5.41014   5.83332   6.48780
 Alpha virt. eigenvalues --    6.82737   8.03059
          Condensed to atoms (all electrons):
               1          2          3          4          5          6
     1  C    8.106771  -0.937965  -1.641269  -0.189117   0.269153  -0.222095
     2  C   -0.937965  11.645871  -1.836063   0.174121  -0.567005   0.460764
     3  C   -1.641269  -1.836063   7.947340  -0.025982  -0.352584   0.079884
     4  O   -0.189117   0.174121  -0.025982   8.282394  -0.010151  -0.092450
     5  C    0.269153  -0.567005  -0.352584  -0.010151  14.417577  -4.628938
     6  C   -0.222095   0.460764   0.079884  -0.092450  -4.628938  11.194114
     7  C   -0.092359  -0.465724   0.094197   0.033153   1.460966  -2.694498
     8  C    0.035426   0.241898  -0.044977   0.008316  -1.586268   2.204221
     9  C    0.002655   0.022956  -0.013219  -0.005165  -0.392854   0.594439
    10  F   -0.000073  -0.000715   0.000049  -0.000049   0.005854  -0.003234
    11  C   -0.002801   0.001982   0.000423   0.000175   0.085222   0.017135
    12  F   -0.000001  -0.000005   0.000000   0.000000  -0.000258  -0.000917
    13  C    0.000807   0.000858  -0.000481  -0.000309  -0.053667  -0.000988
    14  F   -0.000001  -0.000000   0.000000   0.000000   0.000113   0.000518
    15  C   -0.006768   0.000295   0.003897   0.001268   0.115450  -0.078061
    16  F   -0.000006  -0.000038   0.000000  -0.000000  -0.000504  -0.000518
    17  C   -0.011673  -0.028085   0.021538   0.005906   0.157810  -0.603476
    18  F    0.000408   0.001846  -0.000012   0.000136   0.018695  -0.012294
    19  C   -0.396258  -1.312121   0.966705  -0.044380  -3.210644  -1.518124
    20  C    0.455716  -1.356480  -0.245402   0.129312   0.496000   1.255015
    21  C   -0.719137   0.702321   0.560041   0.028503  -3.685645   1.019955
    22  C   -0.051619  -0.236430   0.033282  -0.004372  -0.330020  -0.109683
    23  C    0.001583   0.083502  -0.009314   0.002519  -0.054226   0.037132
    24  C   -0.017983  -0.177841   0.164407  -0.000440  -0.579767  -0.100769
    25  Cl  -0.001126  -0.015051   0.005476   0.000203  -0.009226   0.011806
    26  C    0.487234   0.167020  -0.748180  -0.009096   4.462711  -1.347270
    27  H    0.434991  -0.122278   0.012531   0.009492  -0.009080   0.002278
    28  H    0.499803  -0.142183  -0.001216   0.001437  -0.004048   0.000164
    29  H    0.531190  -0.172499  -0.035226  -0.005251  -0.008175  -0.003628
    30  H   -0.046978  -0.185090   0.529053  -0.002913   0.037296   0.000080
    31  H    0.004645  -0.089675   0.441225  -0.004798  -0.017123  -0.010748
    32  H   -0.029266  -0.030108   0.413415   0.008770   0.028095  -0.003579
    33  H   -0.016714  -0.062764   0.072111  -0.025601  -0.017688   0.140618
    34  H   -0.011687   0.013299  -0.000735  -0.003546  -0.168553   0.534430
    35  H   -0.007660   0.031299   0.002956   0.010883  -0.259290   0.560618
    36  H   -0.001830   0.001970  -0.000280  -0.000675  -0.034186   0.016109
    37  H    0.000061   0.010109  -0.000364   0.000711  -0.021434   0.049104
    38  H    0.020099  -0.009866   0.002704   0.021273  -0.194283   0.058213
    39  H   -0.000944   0.021630   0.001343  -0.000025   0.007820  -0.001616
    40  H    0.000168  -0.002283  -0.000018  -0.000000   0.000809   0.000292
    41  H    0.000001   0.000580  -0.000238  -0.000000   0.000887  -0.000078
    42  H   -0.001343  -0.069567   0.012595  -0.000660  -0.081466   0.034711
               7          8          9         10         11         12
     1  C   -0.092359   0.035426   0.002655  -0.000073  -0.002801  -0.000001
     2  C   -0.465724   0.241898   0.022956  -0.000715   0.001982  -0.000005
     3  C    0.094197  -0.044977  -0.013219   0.000049   0.000423   0.000000
     4  O    0.033153   0.008316  -0.005165  -0.000049   0.000175   0.000000
     5  C    1.460966  -1.586268  -0.392854   0.005854   0.085222  -0.000258
     6  C   -2.694498   2.204221   0.594439  -0.003234   0.017135  -0.000917
     7  C   17.337812 -11.288885  -0.766033  -0.024315  -0.251514  -0.007428
     8  C  -11.288885  22.476756  -2.285107  -0.082496   0.744479  -0.073453
     9  C   -0.766033  -2.285107  17.990320   0.105242  -5.481521   0.012466
    10  F   -0.024315  -0.082496   0.105242   9.403962   0.056249  -0.012713
    11  C   -0.251514   0.744479  -5.481521   0.056249  12.200665   0.027047
    12  F   -0.007428  -0.073453   0.012466  -0.012713   0.027047   9.422247
    13  C   -0.044925  -1.355113   0.501621  -0.035013  -1.635160   0.028847
    14  F    0.011832   0.013817  -0.078912  -0.000086   0.037817  -0.014224
    15  C    0.557454  -0.440192  -2.281340   0.016402   1.157524  -0.090704
    16  F   -0.006716  -0.088718   0.047287   0.000047  -0.090968   0.000012
    17  C    1.203963  -3.267856  -1.655319  -0.089628  -1.158553   0.049653
    18  F   -0.019294  -0.074236  -0.093941  -0.000528   0.026372   0.000051
    19  C    0.859310  -0.456874  -0.028442  -0.004641  -0.055762   0.000085
    20  C   -0.534089   0.634956   0.033305   0.000913   0.007649  -0.000026
    21  C   -0.142788   0.133325   0.022478  -0.000246   0.001150   0.000004
    22  C    0.057712   0.017902  -0.007968  -0.000058  -0.001209  -0.000000
    23  C    0.006031  -0.008405   0.000181   0.000013   0.000113   0.000000
    24  C   -0.048384   0.181487  -0.057700  -0.000320   0.004663  -0.000004
    25  Cl  -0.005814   0.007907  -0.000037   0.000001  -0.000096  -0.000000
    26  C    0.315814  -0.504239   0.008948   0.000088  -0.009246  -0.000005
    27  H    0.000580   0.000047  -0.000002  -0.000000  -0.000000  -0.000000
    28  H    0.001036  -0.001306  -0.000342  -0.000000   0.000026   0.000000
    29  H   -0.000234   0.000005   0.000002   0.000000  -0.000001  -0.000000
    30  H    0.000246  -0.000018   0.000002   0.000000  -0.000000   0.000000
    31  H    0.000274  -0.000667  -0.000032   0.000000   0.000001   0.000000
    32  H   -0.000497  -0.000054   0.000008   0.000000  -0.000000   0.000000
    33  H   -0.016079   0.059763  -0.000417  -0.000165   0.000336  -0.000000
    34  H   -0.115832   0.084566  -0.047808   0.000392  -0.013448   0.000005
    35  H   -0.178326   0.167085   0.048094  -0.000241   0.015043   0.000002
    36  H    0.284973   0.035237  -0.062189   0.000720  -0.002403   0.000004
    37  H    0.139600   0.185156   0.039338   0.003263   0.049247  -0.000011
    38  H    0.002793   0.005967  -0.001556  -0.000002   0.000122  -0.000000
    39  H    0.003886  -0.006443  -0.000424  -0.000000   0.000029  -0.000000
    40  H   -0.000054   0.000125  -0.000003   0.000000   0.000000  -0.000000
    41  H   -0.000203  -0.000063   0.000006  -0.000000  -0.000000   0.000000
    42  H    0.005240   0.015827  -0.000270   0.000001  -0.000059   0.000000
              13         14         15         16         17         18
     1  C    0.000807  -0.000001  -0.006768  -0.000006  -0.011673   0.000408
     2  C    0.000858  -0.000000   0.000295  -0.000038  -0.028085   0.001846
     3  C   -0.000481   0.000000   0.003897   0.000000   0.021538  -0.000012
     4  O   -0.000309   0.000000   0.001268  -0.000000   0.005906   0.000136
     5  C   -0.053667   0.000113   0.115450  -0.000504   0.157810   0.018695
     6  C   -0.000988   0.000518  -0.078061  -0.000518  -0.603476  -0.012294
     7  C   -0.044925   0.011832   0.557454  -0.006716   1.203963  -0.019294
     8  C   -1.355113   0.013817  -0.440192  -0.088718  -3.267856  -0.074236
     9  C    0.501621  -0.078912  -2.281340   0.047287  -1.655319  -0.093941
    10  F   -0.035013  -0.000086   0.016402   0.000047  -0.089628  -0.000528
    11  C   -1.635160   0.037817   1.157524  -0.090968  -1.158553   0.026372
    12  F    0.028847  -0.014224  -0.090704   0.000012   0.049653   0.000051
    13  C    9.458003   0.000516  -1.695268   0.037943   0.324155  -0.044454
    14  F    0.000516   9.415430   0.042525  -0.014163  -0.082419  -0.000061
    15  C   -1.695268   0.042525  12.235718   0.014403  -3.877962   0.053243
    16  F    0.037943  -0.014163   0.014403   9.424154   0.032882  -0.012725
    17  C    0.324155  -0.082419  -3.877962   0.032882  14.981684   0.094571
    18  F   -0.044454  -0.000061   0.053243  -0.012725   0.094571   9.408995
    19  C    0.017071  -0.000020   0.018842   0.000261   0.277683   0.007166
    20  C   -0.011574   0.000005  -0.048915  -0.000148  -0.272954  -0.010594
    21  C    0.002756   0.000000   0.024031   0.000070   0.031956  -0.009004
    22  C   -0.000178  -0.000000   0.000299  -0.000003   0.002602  -0.002228
    23  C    0.000253   0.000000  -0.000141   0.000001   0.006618  -0.000190
    24  C   -0.002633   0.000000   0.011389  -0.000010   0.026281   0.000948
    25  Cl  -0.000010  -0.000000  -0.000051  -0.000000  -0.001282   0.000001
    26  C    0.001192  -0.000001  -0.026908  -0.000019  -0.017359   0.004185
    27  H   -0.000000   0.000000  -0.000001  -0.000000   0.000006   0.000000
    28  H    0.000005   0.000000   0.000258  -0.000000   0.001839  -0.000001
    29  H   -0.000001   0.000000   0.000002   0.000000  -0.000065   0.000000
    30  H    0.000000  -0.000000  -0.000000   0.000000  -0.000002   0.000000
    31  H   -0.000000   0.000000  -0.000000   0.000000   0.000011   0.000000
    32  H    0.000000  -0.000000  -0.000001   0.000000  -0.000027  -0.000000
    33  H   -0.000327   0.000000   0.000928  -0.000000  -0.003133   0.000020
    34  H   -0.000299  -0.000000   0.006787   0.000003   0.034744  -0.000191
    35  H   -0.003419   0.000000  -0.010245  -0.000003  -0.084814   0.000528
    36  H   -0.000607   0.000000   0.021381   0.000007   0.030529   0.002836
    37  H   -0.006503   0.000001   0.008173   0.000002  -0.105200   0.000734
    38  H   -0.000044   0.000000   0.000726   0.000000   0.004173   0.000235
    39  H   -0.000008   0.000000   0.000581  -0.000000   0.003071  -0.000020
    40  H   -0.000000   0.000000   0.000004   0.000000  -0.000009   0.000000
    41  H    0.000000  -0.000000  -0.000001   0.000000  -0.000015   0.000000
    42  H    0.000002  -0.000000   0.000029   0.000000  -0.000230   0.000000
              19         20         21         22         23         24
     1  C   -0.396258   0.455716  -0.719137  -0.051619   0.001583  -0.017983
     2  C   -1.312121  -1.356480   0.702321  -0.236430   0.083502  -0.177841
     3  C    0.966705  -0.245402   0.560041   0.033282  -0.009314   0.164407
     4  O   -0.044380   0.129312   0.028503  -0.004372   0.002519  -0.000440
     5  C   -3.210644   0.496000  -3.685645  -0.330020  -0.054226  -0.579767
     6  C   -1.518124   1.255015   1.019955  -0.109683   0.037132  -0.100769
     7  C    0.859310  -0.534089  -0.142788   0.057712   0.006031  -0.048384
     8  C   -0.456874   0.634956   0.133325   0.017902  -0.008405   0.181487
     9  C   -0.028442   0.033305   0.022478  -0.007968   0.000181  -0.057700
    10  F   -0.004641   0.000913  -0.000246  -0.000058   0.000013  -0.000320
    11  C   -0.055762   0.007649   0.001150  -0.001209   0.000113   0.004663
    12  F    0.000085  -0.000026   0.000004  -0.000000   0.000000  -0.000004
    13  C    0.017071  -0.011574   0.002756  -0.000178   0.000253  -0.002633
    14  F   -0.000020   0.000005   0.000000  -0.000000   0.000000   0.000000
    15  C    0.018842  -0.048915   0.024031   0.000299  -0.000141   0.011389
    16  F    0.000261  -0.000148   0.000070  -0.000003   0.000001  -0.000010
    17  C    0.277683  -0.272954   0.031956   0.002602   0.006618   0.026281
    18  F    0.007166  -0.010594  -0.009004  -0.002228  -0.000190   0.000948
    19  C   19.344410  -9.910648   9.242249  -1.172693   0.701195   1.172635
    20  C   -9.910648  26.224688 -14.629215   1.278384  -0.921745  -1.212754
    21  C    9.242249 -14.629215  31.589619  -3.857629   1.300469  -0.345379
    22  C   -1.172693   1.278384  -3.857629   8.682575   0.045000   0.567857
    23  C    0.701195  -0.921745   1.300469   0.045000   7.243286   0.164620
    24  C    1.172635  -1.212754  -0.345379   0.567857   0.164620   9.642028
    25  Cl  -0.090339  -0.022992   0.003534   0.049224  -0.166215  -0.087020
    26  C   -8.408215   4.748385 -15.605027   0.827938  -2.334596  -3.114935
    27  H    0.019252   0.001491   0.002814  -0.004625   0.000355   0.000963
    28  H    0.031138  -0.038456   0.008289  -0.002627   0.000363   0.000970
    29  H    0.028404   0.021041   0.000513   0.002519  -0.000257  -0.000690
    30  H    0.032038  -0.006841  -0.013911  -0.000511  -0.000114   0.002675
    31  H   -0.001381   0.008902  -0.011484   0.004768  -0.001856  -0.004181
    32  H   -0.051493  -0.015178  -0.026609  -0.015587   0.001891  -0.003691
    33  H   -0.049714   0.180950   0.046312   0.009054  -0.004014   0.013638
    34  H   -0.001974   0.024098   0.011448   0.000225   0.000133  -0.001109
    35  H   -0.003605   0.017061   0.017597  -0.000352   0.000106   0.000732
    36  H    0.012821  -0.001794   0.024997   0.002010  -0.000344   0.009935
    37  H   -0.074038   0.044050  -0.003248  -0.001218  -0.000480  -0.003249
    38  H    0.389978  -0.213152   0.213848   0.039582   0.008769  -0.004278
    39  H    0.020230  -0.031721   0.221809   0.018744   0.007966   0.007939
    40  H   -0.018221   0.022885   0.045382   0.270031  -0.042992   0.017363
    41  H   -0.001768   0.002270  -0.011200  -0.026989   0.199360   0.043392
    42  H    0.065659   0.225084   0.091846   0.004842   0.013658  -0.010090
              25         26         27         28         29         30
     1  C   -0.001126   0.487234   0.434991   0.499803   0.531190  -0.046978
     2  C   -0.015051   0.167020  -0.122278  -0.142183  -0.172499  -0.185090
     3  C    0.005476  -0.748180   0.012531  -0.001216  -0.035226   0.529053
     4  O    0.000203  -0.009096   0.009492   0.001437  -0.005251  -0.002913
     5  C   -0.009226   4.462711  -0.009080  -0.004048  -0.008175   0.037296
     6  C    0.011806  -1.347270   0.002278   0.000164  -0.003628   0.000080
     7  C   -0.005814   0.315814   0.000580   0.001036  -0.000234   0.000246
     8  C    0.007907  -0.504239   0.000047  -0.001306   0.000005  -0.000018
     9  C   -0.000037   0.008948  -0.000002  -0.000342   0.000002   0.000002
    10  F    0.000001   0.000088  -0.000000  -0.000000   0.000000   0.000000
    11  C   -0.000096  -0.009246  -0.000000   0.000026  -0.000001  -0.000000
    12  F   -0.000000  -0.000005  -0.000000   0.000000  -0.000000   0.000000
    13  C   -0.000010   0.001192  -0.000000   0.000005  -0.000001   0.000000
    14  F   -0.000000  -0.000001   0.000000   0.000000   0.000000  -0.000000
    15  C   -0.000051  -0.026908  -0.000001   0.000258   0.000002  -0.000000
    16  F   -0.000000  -0.000019  -0.000000  -0.000000   0.000000   0.000000
    17  C   -0.001282  -0.017359   0.000006   0.001839  -0.000065  -0.000002
    18  F    0.000001   0.004185   0.000000  -0.000001   0.000000   0.000000
    19  C   -0.090339  -8.408215   0.019252   0.031138   0.028404   0.032038
    20  C   -0.022992   4.748385   0.001491  -0.038456   0.021041  -0.006841
    21  C    0.003534 -15.605027   0.002814   0.008289   0.000513  -0.013911
    22  C    0.049224   0.827938  -0.004625  -0.002627   0.002519  -0.000511
    23  C   -0.166215  -2.334596   0.000355   0.000363  -0.000257  -0.000114
    24  C   -0.087020  -3.114935   0.000963   0.000970  -0.000690   0.002675
    25  Cl  17.048234   0.049078  -0.000001  -0.000003   0.000002   0.000004
    26  C    0.049078  26.750088   0.000514  -0.004813  -0.002689   0.008816
    27  H   -0.000001   0.000514   0.554501  -0.027709  -0.027469   0.000148
    28  H   -0.000003  -0.004813  -0.027709   0.550466  -0.025672   0.000034
    29  H    0.000002  -0.002689  -0.027469  -0.025672   0.537524   0.002701
    30  H    0.000004   0.008816   0.000148   0.000034   0.002701   0.542966
    31  H    0.000741   0.034368   0.000080  -0.000160   0.000005  -0.024877
    32  H    0.000150   0.074716   0.000554   0.000040   0.000085  -0.028213
    33  H    0.000147  -0.126794   0.000029  -0.000010   0.000015   0.000044
    34  H    0.000011  -0.019672  -0.000000   0.000004  -0.000003  -0.000002
    35  H    0.000001  -0.018900   0.000017   0.000128   0.000009   0.000001
    36  H    0.000270  -0.024992   0.000000   0.000001  -0.000000  -0.000000
    37  H    0.000230  -0.004123   0.000000   0.000000   0.000000  -0.000000
    38  H   -0.000124  -0.108862   0.000699   0.002904   0.000312  -0.000108
    39  H   -0.000009   0.021745  -0.000057  -0.000000   0.000002   0.000000
    40  H    0.001554   0.017547   0.000000   0.000000   0.000000   0.000000
    41  H   -0.013438   0.120259   0.000000   0.000000  -0.000000  -0.000000
    42  H    0.012577  -0.030374   0.000001   0.000000   0.000000   0.000041
              31         32         33         34         35         36
     1  C    0.004645  -0.029266  -0.016714  -0.011687  -0.007660  -0.001830
     2  C   -0.089675  -0.030108  -0.062764   0.013299   0.031299   0.001970
     3  C    0.441225   0.413415   0.072111  -0.000735   0.002956  -0.000280
     4  O   -0.004798   0.008770  -0.025601  -0.003546   0.010883  -0.000675
     5  C   -0.017123   0.028095  -0.017688  -0.168553  -0.259290  -0.034186
     6  C   -0.010748  -0.003579   0.140618   0.534430   0.560618   0.016109
     7  C    0.000274  -0.000497  -0.016079  -0.115832  -0.178326   0.284973
     8  C   -0.000667  -0.000054   0.059763   0.084566   0.167085   0.035237
     9  C   -0.000032   0.000008  -0.000417  -0.047808   0.048094  -0.062189
    10  F    0.000000   0.000000  -0.000165   0.000392  -0.000241   0.000720
    11  C    0.000001  -0.000000   0.000336  -0.013448   0.015043  -0.002403
    12  F    0.000000   0.000000  -0.000000   0.000005   0.000002   0.000004
    13  C   -0.000000   0.000000  -0.000327  -0.000299  -0.003419  -0.000607
    14  F    0.000000  -0.000000   0.000000  -0.000000   0.000000   0.000000
    15  C   -0.000000  -0.000001   0.000928   0.006787  -0.010245   0.021381
    16  F    0.000000   0.000000  -0.000000   0.000003  -0.000003   0.000007
    17  C    0.000011  -0.000027  -0.003133   0.034744  -0.084814   0.030529
    18  F    0.000000  -0.000000   0.000020  -0.000191   0.000528   0.002836
    19  C   -0.001381  -0.051493  -0.049714  -0.001974  -0.003605   0.012821
    20  C    0.008902  -0.015178   0.180950   0.024098   0.017061  -0.001794
    21  C   -0.011484  -0.026609   0.046312   0.011448   0.017597   0.024997
    22  C    0.004768  -0.015587   0.009054   0.000225  -0.000352   0.002010
    23  C   -0.001856   0.001891  -0.004014   0.000133   0.000106  -0.000344
    24  C   -0.004181  -0.003691   0.013638  -0.001109   0.000732   0.009935
    25  Cl   0.000741   0.000150   0.000147   0.000011   0.000001   0.000270
    26  C    0.034368   0.074716  -0.126794  -0.019672  -0.018900  -0.024992
    27  H    0.000080   0.000554   0.000029  -0.000000   0.000017   0.000000
    28  H   -0.000160   0.000040  -0.000010   0.000004   0.000128   0.000001
    29  H    0.000005   0.000085   0.000015  -0.000003   0.000009  -0.000000
    30  H   -0.024877  -0.028213   0.000044  -0.000002   0.000001  -0.000000
    31  H    0.547718  -0.027434  -0.000459   0.000003  -0.000003  -0.000000
    32  H   -0.027434   0.551480  -0.000079   0.000000   0.000000   0.000000
    33  H   -0.000459  -0.000079   0.684981  -0.006046   0.005858  -0.000346
    34  H    0.000003   0.000000  -0.006046   0.548882  -0.030563   0.004807
    35  H   -0.000003   0.000000   0.005858  -0.030563   0.566766  -0.005134
    36  H   -0.000000   0.000000  -0.000346   0.004807  -0.005134   0.553148
    37  H    0.000001   0.000000   0.004330  -0.005380   0.005066  -0.030739
    38  H   -0.000068  -0.000030   0.005860   0.000179   0.003689   0.000624
    39  H   -0.000008  -0.000017   0.000003  -0.000000   0.000005  -0.000014
    40  H    0.000000   0.000000   0.000000   0.000000  -0.000000   0.000000
    41  H   -0.000000   0.000000   0.000000  -0.000000   0.000000  -0.000000
    42  H    0.000788  -0.000023   0.004970   0.000006   0.000003  -0.000012
              37         38         39         40         41         42
     1  C    0.000061   0.020099  -0.000944   0.000168   0.000001  -0.001343
     2  C    0.010109  -0.009866   0.021630  -0.002283   0.000580  -0.069567
     3  C   -0.000364   0.002704   0.001343  -0.000018  -0.000238   0.012595
     4  O    0.000711   0.021273  -0.000025  -0.000000  -0.000000  -0.000660
     5  C   -0.021434  -0.194283   0.007820   0.000809   0.000887  -0.081466
     6  C    0.049104   0.058213  -0.001616   0.000292  -0.000078   0.034711
     7  C    0.139600   0.002793   0.003886  -0.000054  -0.000203   0.005240
     8  C    0.185156   0.005967  -0.006443   0.000125  -0.000063   0.015827
     9  C    0.039338  -0.001556  -0.000424  -0.000003   0.000006  -0.000270
    10  F    0.003263  -0.000002  -0.000000   0.000000  -0.000000   0.000001
    11  C    0.049247   0.000122   0.000029   0.000000  -0.000000  -0.000059
    12  F   -0.000011  -0.000000  -0.000000  -0.000000   0.000000   0.000000
    13  C   -0.006503  -0.000044  -0.000008  -0.000000   0.000000   0.000002
    14  F    0.000001   0.000000   0.000000   0.000000  -0.000000  -0.000000
    15  C    0.008173   0.000726   0.000581   0.000004  -0.000001   0.000029
    16  F    0.000002   0.000000  -0.000000   0.000000   0.000000   0.000000
    17  C   -0.105200   0.004173   0.003071  -0.000009  -0.000015  -0.000230
    18  F    0.000734   0.000235  -0.000020   0.000000   0.000000   0.000000
    19  C   -0.074038   0.389978   0.020230  -0.018221  -0.001768   0.065659
    20  C    0.044050  -0.213152  -0.031721   0.022885   0.002270   0.225084
    21  C   -0.003248   0.213848   0.221809   0.045382  -0.011200   0.091846
    22  C   -0.001218   0.039582   0.018744   0.270031  -0.026989   0.004842
    23  C   -0.000480   0.008769   0.007966  -0.042992   0.199360   0.013658
    24  C   -0.003249  -0.004278   0.007939   0.017363   0.043392  -0.010090
    25  Cl   0.000230  -0.000124  -0.000009   0.001554  -0.013438   0.012577
    26  C   -0.004123  -0.108862   0.021745   0.017547   0.120259  -0.030374
    27  H    0.000000   0.000699  -0.000057   0.000000   0.000000   0.000001
    28  H    0.000000   0.002904  -0.000000   0.000000   0.000000   0.000000
    29  H    0.000000   0.000312   0.000002   0.000000  -0.000000   0.000000
    30  H   -0.000000  -0.000108   0.000000   0.000000  -0.000000   0.000041
    31  H    0.000001  -0.000068  -0.000008   0.000000  -0.000000   0.000788
    32  H    0.000000  -0.000030  -0.000017   0.000000   0.000000  -0.000023
    33  H    0.004330   0.005860   0.000003   0.000000   0.000000   0.004970
    34  H   -0.005380   0.000179  -0.000000   0.000000  -0.000000   0.000006
    35  H    0.005066   0.003689   0.000005  -0.000000   0.000000   0.000003
    36  H   -0.030739   0.000624  -0.000014   0.000000  -0.000000  -0.000012
    37  H    0.557876   0.000073   0.000001   0.000000   0.000000   0.000051
    38  H    0.000073   0.621606   0.004819  -0.000002  -0.000000   0.000057
    39  H    0.000001   0.004819   0.585767  -0.005521  -0.000145  -0.000154
    40  H    0.000000  -0.000002  -0.005521   0.562205  -0.005599   0.000015
    41  H    0.000000  -0.000000  -0.000145  -0.005599   0.547258  -0.000169
    42  H    0.000051   0.000057  -0.000154   0.000015  -0.000169   0.585560
 Mulliken charges:
               1
     1  C   -0.444037
     2  C    0.237514
     3  C   -0.409611
     4  O   -0.293594
     5  C    0.712624
     6  C   -0.838636
     7  C    0.327120
     8  C    0.311101
     9  C   -0.168744
    10  F   -0.338672
    11  C    0.269273
    12  F   -0.340673
    13  C    0.516952
    14  F   -0.332687
    15  C    0.264949
    16  F   -0.342535
    17  C   -0.031617
    18  F   -0.341198
    19  C   -0.395779
    20  C   -0.327481
    21  C   -0.286795
    22  C   -0.088554
    23  C   -0.280230
    24  C   -0.260692
    25  Cl   0.221683
    26  C    0.365669
    27  H    0.149879
    28  H    0.149640
    29  H    0.157529
    30  H    0.153433
    31  H    0.151421
    32  H    0.152683
    33  H    0.100384
    34  H    0.162828
    35  H    0.149006
    36  H    0.163166
    37  H    0.158811
    38  H    0.123071
    39  H    0.119734
    40  H    0.136321
    41  H    0.145894
    42  H    0.120851
 Sum of Mulliken charges =  -0.00000
 Mulliken charges with hydrogens summed into heavy atoms:
               1
     1  C    0.013011
     2  C    0.237514
     3  C    0.047925
     4  O   -0.293594
     5  C    0.813009
     6  C   -0.526803
     7  C    0.649096
     8  C    0.311101
     9  C   -0.168744
    10  F   -0.338672
    11  C    0.269273
    12  F   -0.340673
    13  C    0.516952
    14  F   -0.332687
    15  C    0.264949
    16  F   -0.342535
    17  C   -0.031617
    18  F   -0.341198
    19  C   -0.272707
    20  C   -0.327481
    21  C   -0.167061
    22  C    0.047768
    23  C   -0.134336
    24  C   -0.260692
    25  Cl   0.221683
    26  C    0.486520
 Electronic spatial extent (au):  <R**2>=          13833.4079
 Charge=             -0.0000 electrons
 Dipole moment (field-independent basis, Debye):
    X=             -2.4651    Y=              0.8582    Z=              2.1091  Tot=              3.3558
 Quadrupole moment (field-independent basis, Debye-Ang):
   XX=           -172.3340   YY=           -159.5279   ZZ=           -161.5525
   XY=             -3.8838   XZ=             -8.3899   YZ=             -0.6878
 Traceless Quadrupole moment (field-independent basis, Debye-Ang):
   XX=             -7.8625   YY=              4.9435   ZZ=              2.9190
   XY=             -3.8838   XZ=             -8.3899   YZ=             -0.6878
 Octapole moment (field-independent basis, Debye-Ang**2):
  XXX=             17.5628  YYY=              0.4628  ZZZ=             15.7691  XYY=             41.0390
  XXY=             29.9270  XXZ=             25.9485  XZZ=             -8.3308  YZZ=            -16.7899
  YYZ=             17.2149  XYZ=             -5.5516
 Hexadecapole moment (field-independent basis, Debye-Ang**3):
 XXXX=         -13762.9702 YYYY=          -2865.5232 ZZZZ=          -1795.5676 XXXY=            -19.0065
 XXXZ=           -108.5400 YYYX=            -90.6016 YYYZ=             64.8716 ZZZX=            -43.9927
 ZZZY=             49.6935 XXYY=          -2588.8558 XXZZ=          -2448.5926 YYZZ=           -796.1199
 XXYZ=           -128.2904 YYXZ=              0.2098 ZZXY=             44.1237
 N-N= 2.449376024537D+03 E-N=-9.053716909518D+03  KE= 1.755497962358D+03
 Unable to Open any file for archive entry.
 1\1\GINC-N2\SP\RB3LYP TD-FC\6-31+G(d,p)\C19H16Cl1F5O1\HPCMGAC13\19-Sep
 -2025\0\\# td=(50-50,nstates=3) b3lyp/6-31+g(d,p) geom=connectivity\\T
 itle Card Required\\0,1\C,0,-2.501274,3.864474,0.012638\C,0,-2.607861,
 2.519268,-0.692977\C,0,-3.97728,2.323508,-1.331809\O,0,-1.549496,2.374
 451,-1.698172\C,0,-1.10321,1.118276,-1.132691\C,0,0.404529,1.080808,-0
 .926335\C,0,0.874841,-0.262808,-0.328378\C,0,2.368974,-0.312336,-0.106
 775\C,0,3.247499,-0.782408,-1.086049\F,0,2.756401,-1.223323,-2.263074\
 C,0,4.6275,-0.822511,-0.901587\F,0,5.433026,-1.285977,-1.868471\C,0,5.
 170867,-0.376238,0.300978\F,0,6.495782,-0.40661,0.493904\C,0,4.328154,
 0.102315,1.301754\F,0,4.844246,0.532504,2.462788\C,0,2.953109,0.127827
 ,1.083415\F,0,2.166059,0.597918,2.075178\C,0,-2.015212,1.296101,0.1041
 51\C,0,-2.899366,0.186591,0.616039\C,0,-3.244751,0.159733,1.977634\C,0
 ,-4.07881,-0.834516,2.490318\C,0,-4.585664,-1.835142,1.658302\C,0,-4.2
 36489,-1.812571,0.308844\Cl,0,-4.853297,-3.066262,-0.761987\C,0,-3.407
 904,-0.821892,-0.217656\H,0,-3.230778,3.929693,0.82839\H,0,-1.49902,4.
 010709,0.425707\H,0,-2.702525,4.678723,-0.691759\H,0,-4.164443,3.13797
 8,-2.039217\H,0,-4.03826,1.380874,-1.880771\H,0,-4.769327,2.331145,-0.
 575236\H,0,-1.405146,0.283121,-1.781372\H,0,0.890233,1.2487,-1.895155\
 H,0,0.697941,1.909388,-0.271236\H,0,0.372666,-0.437702,0.628091\H,0,0.
 590746,-1.081598,-0.996489\H,0,-1.427848,1.678589,0.946026\H,0,-2.8501
 97,0.923911,2.641974\H,0,-4.33269,-0.837686,3.546209\H,0,-5.230114,-2.
 616311,2.045564\H,0,-3.16474,-0.850191,-1.27339\\Version=ES64L-G16RevC
 .02\State=1-A\HF=-1768.3032071\RMSD=2.152e-09\PG=C01 [X(C19H16Cl1F5O1)
 ]\\@
 The archive entry for this job was punched.


 CHRISTMAS IS ON TOP OF A STEEP HILL.
 THE CLOSER YOU GET, THE STEEPER THE HILL IS.
          -- LINUS, OF PEANUTS
 Job cpu time:       0 days  2 hours 51 minutes 38.5 seconds.
 Elapsed time:       0 days  0 hours 21 minutes 52.2 seconds.
 File lengths (MBytes):  RWF=   1925 Int=      0 D2E=      0 Chk=     87 Scr=      2
 Normal termination of Gaussian 16 at Fri Sep 19 15:40:02 2025.
