 Entering Gaussian System, Link 0=g16
 Input=M2128E.gjf
 Output=M2128E.log
 Initial command:
 /hpc/softwares/Gaussian/g16/l1.exe "/hpc/home/hpcmgac13/pbs.12619.admin1.x8z/Gau-1340350.inp" -scrdir="/hpc/home/hpcmgac13/pbs.12619.admin1.x8z/"
 Default linda workers: n2
 Default is to use  16 SMP processors on each worker.
 Entering Link 1 = /hpc/softwares/Gaussian/g16/l1.exe PID=   1340351.
  
 Copyright (c) 1988-2021, Gaussian, Inc.  All Rights Reserved.
  
 This is part of the Gaussian(R) 16 program.  It is based on
 the Gaussian(R) 09 system (copyright 2009, Gaussian, Inc.),
 the Gaussian(R) 03 system (copyright 2003, Gaussian, Inc.),
 the Gaussian(R) 98 system (copyright 1998, Gaussian, Inc.),
 the Gaussian(R) 94 system (copyright 1995, Gaussian, Inc.),
 the Gaussian 92(TM) system (copyright 1992, Gaussian, Inc.),
 the Gaussian 90(TM) system (copyright 1990, Gaussian, Inc.),
 the Gaussian 88(TM) system (copyright 1988, Gaussian, Inc.),
 the Gaussian 86(TM) system (copyright 1986, Carnegie Mellon
 University), and the Gaussian 82(TM) system (copyright 1983,
 Carnegie Mellon University). Gaussian is a federally registered
 trademark of Gaussian, Inc.
  
 This software contains proprietary and confidential information,
 including trade secrets, belonging to Gaussian, Inc.
  
 This software is provided under written license and may be
 used, copied, transmitted, or stored only in accord with that
 written license.
  
 The following legend is applicable only to US Government
 contracts under FAR:
  
                    RESTRICTED RIGHTS LEGEND
  
 Use, reproduction and disclosure by the US Government is
 subject to restrictions as set forth in subparagraphs (a)
 and (c) of the Commercial Computer Software - Restricted
 Rights clause in FAR 52.227-19.
  
 Gaussian, Inc.
 340 Quinnipiac St., Bldg. 40, Wallingford CT 06492
  
  
 ---------------------------------------------------------------
 Warning -- This program may not be used in any manner that
 competes with the business of Gaussian, Inc. or will provide
 assistance to any competitor of Gaussian, Inc.  The licensee
 of this program is prohibited from giving any competitor of
 Gaussian, Inc. access to this program.  By using this program,
 the user acknowledges that Gaussian, Inc. is engaged in the
 business of creating and licensing software in the field of
 computational chemistry and represents and warrants to the
 licensee that it is not a competitor of Gaussian, Inc. and that
 it will not use this program in any manner prohibited above.
 ---------------------------------------------------------------
  

 Cite this work as:
 Gaussian 16, Revision C.02,
 M. J. Frisch, G. W. Trucks, H. B. Schlegel, G. E. Scuseria, 
 M. A. Robb, J. R. Cheeseman, G. Scalmani, V. Barone, 
 G. A. Petersson, H. Nakatsuji, X. Li, M. Caricato, A. V. Marenich, 
 J. Bloino, B. G. Janesko, R. Gomperts, B. Mennucci, H. P. Hratchian, 
 J. V. Ortiz, A. F. Izmaylov, J. L. Sonnenberg, D. Williams-Young, 
 F. Ding, F. Lipparini, F. Egidi, J. Goings, B. Peng, A. Petrone, 
 T. Henderson, D. Ranasinghe, V. G. Zakrzewski, J. Gao, N. Rega, 
 G. Zheng, W. Liang, M. Hada, M. Ehara, K. Toyota, R. Fukuda, 
 J. Hasegawa, M. Ishida, T. Nakajima, Y. Honda, O. Kitao, H. Nakai, 
 T. Vreven, K. Throssell, J. A. Montgomery, Jr., J. E. Peralta, 
 F. Ogliaro, M. J. Bearpark, J. J. Heyd, E. N. Brothers, K. N. Kudin, 
 V. N. Staroverov, T. A. Keith, R. Kobayashi, J. Normand, 
 K. Raghavachari, A. P. Rendell, J. C. Burant, S. S. Iyengar, 
 J. Tomasi, M. Cossi, J. M. Millam, M. Klene, C. Adamo, R. Cammi, 
 J. W. Ochterski, R. L. Martin, K. Morokuma, O. Farkas, 
 J. B. Foresman, and D. J. Fox, Gaussian, Inc., Wallingford CT, 2019.
 
 ******************************************
 Gaussian 16:  ES64L-G16RevC.02  7-Dec-2021
                31-Jul-2025 
 ******************************************
 SetLPE:    new flags="-opt 'Tsnet.Node.lindarsharg: ssh'  -nodelist 'n2.head.cm.mguif.local' -env GAUSS_MDEF=2147483648 -env GAUSS_EXEDIR="/hpc/softwares/Gaussian/g16/bsd:/hpc/softwares/Gaussian/g16""
 Will use up to    1 processors via Linda.
 ----------------------------------------------------------
 # td=(50-50,nstates=3) b3lyp/6-31+g(d,p) geom=connectivity
 ----------------------------------------------------------
 1/38=1,57=2,172=1/1;
 2/12=2,17=6,18=5,40=1/2;
 3/5=1,6=6,7=111,11=9,25=1,30=1,74=-5/1,2,3,8;
 4//1;
 5/5=2,38=5/2;
 8/6=1,10=2,108=3/1;
 9/41=3,42=1,48=2,70=2/14;
 6/7=2,8=2,9=2,10=2/1;
 99/5=1,9=1/99;
 -------------------
 Title Card Required
 -------------------
 Symbolic Z-matrix:
 Charge =  0 Multiplicity = 1
 C                    -0.35742   2.32077   0.80823 
 N                    -0.13393   1.41043  -0.30264 
 C                     1.22482   0.99197  -0.60734 
 N                     1.88097   0.32058   0.51834 
 C                     1.4861   -1.0931    0.67436 
 C                     2.43751  -1.92455  -0.23318 
 C                     3.67793  -1.00944  -0.43438 
 C                     3.34705   0.25877   0.39994 
 N                    -1.09943   0.56936  -0.7204 
 C                    -2.31215   0.67347  -0.30269 
 C                    -3.34766  -0.26292  -0.88435 
 C                    -4.03302  -1.05664   0.14664 
 N                    -4.57454  -1.66872   0.97219 
 H                    -0.67236   1.78906   1.71794 
 H                     0.57611   2.84063   1.02364 
 H                    -1.12514   3.05983   0.54805 
 H                     1.14477   0.3794   -1.51686 
 H                     1.81505   1.88507  -0.84045 
 H                     1.62607  -1.37111   1.72609 
 H                     0.42929  -1.22573   0.43356 
 H                     1.96167  -2.15423  -1.19187 
 H                     2.69456  -2.88074   0.23275 
 H                     4.60741  -1.4806   -0.09971 
 H                     3.80905  -0.75652  -1.49194 
 H                     3.74236   1.18416  -0.03041 
 H                     3.7647    0.16223   1.41008 
 H                    -2.64982   1.40329   0.4338 
 H                    -4.11619   0.29365  -1.43882 
 H                    -2.85794  -0.93993  -1.5916 
 
                          Input orientation:                          
 ---------------------------------------------------------------------
 Center     Atomic      Atomic             Coordinates (Angstroms)
 Number     Number       Type             X           Y           Z
 ---------------------------------------------------------------------
      1          6           0       -0.357421    2.320768    0.808226
      2          7           0       -0.133932    1.410432   -0.302639
      3          6           0        1.224815    0.991969   -0.607343
      4          7           0        1.880969    0.320579    0.518339
      5          6           0        1.486104   -1.093097    0.674360
      6          6           0        2.437511   -1.924547   -0.233184
      7          6           0        3.677926   -1.009443   -0.434377
      8          6           0        3.347047    0.258769    0.399944
      9          7           0       -1.099430    0.569363   -0.720404
     10          6           0       -2.312151    0.673468   -0.302685
     11          6           0       -3.347659   -0.262922   -0.884348
     12          6           0       -4.033022   -1.056637    0.146636
     13          7           0       -4.574535   -1.668720    0.972186
     14          1           0       -0.672355    1.789056    1.717941
     15          1           0        0.576105    2.840628    1.023640
     16          1           0       -1.125137    3.059828    0.548054
     17          1           0        1.144774    0.379395   -1.516859
     18          1           0        1.815048    1.885066   -0.840451
     19          1           0        1.626071   -1.371113    1.726085
     20          1           0        0.429286   -1.225733    0.433557
     21          1           0        1.961668   -2.154225   -1.191869
     22          1           0        2.694563   -2.880742    0.232750
     23          1           0        4.607409   -1.480597   -0.099709
     24          1           0        3.809054   -0.756519   -1.491943
     25          1           0        3.742360    1.184160   -0.030405
     26          1           0        3.764702    0.162231    1.410084
     27          1           0       -2.649823    1.403285    0.433803
     28          1           0       -4.116193    0.293654   -1.438819
     29          1           0       -2.857941   -0.939929   -1.591603
 ---------------------------------------------------------------------
                    Distance matrix (angstroms):
                    1          2          3          4          5
     1  C    0.000000
     2  N    1.453506   0.000000
     3  C    2.504598   1.454011   0.000000
     4  N    3.015822   2.433436   1.465763   0.000000
     5  C    3.882136   3.137945   2.461409   1.476056   0.000000
     6  C    5.188341   4.211796   3.180675   2.432101   1.555674
     7  C    5.377582   4.517014   3.170697   2.430161   2.457718
     8  C    4.259298   3.733251   2.460910   1.472149   2.316453
     9  N    2.440227   1.346889   2.365057   3.237152   3.375519
    10  C    2.787237   2.299512   3.564322   4.287291   4.301408
    11  C    4.299045   3.669678   4.749632   5.444865   5.146263
    12  C    5.035336   4.635858   5.692989   6.083599   5.544418
    13  N    5.807491   5.552055   6.573176   6.770289   6.095194
    14  H    1.099765   2.125088   3.105084   3.180398   3.748975
    15  H    1.090013   2.075724   2.549210   2.882472   4.052689
    16  H    1.096944   2.103966   3.336654   4.067068   4.907272
    17  H    3.381056   2.042659   1.099488   2.165057   2.661988
    18  H    2.761810   2.076787   1.095599   2.073228   3.357426
    19  H    4.290302   3.866565   3.345153   2.094145   1.096818
    20  H    3.651979   2.794381   2.575760   2.122652   1.091990
    21  H    5.422556   4.229545   3.283772   3.009315   2.198855
    22  H    6.058175   5.167320   4.226560   3.315411   2.202514
    23  H    6.318565   5.556937   4.220571   3.325612   3.239118
    24  H    5.667450   4.653736   3.243149   2.986450   3.194096
    25  H    4.336287   3.892422   2.589947   2.124069   3.282268
    26  H    4.691845   4.437429   3.348060   2.090151   2.703543
    27  H    2.497414   2.621470   4.033111   4.659128   4.836908
    28  H    4.825637   4.289114   5.450263   6.308498   6.146083
    29  H    4.758563   3.821760   4.622758   5.338352   4.901916
                    6          7          8          9         10
     6  C    0.000000
     7  C    1.554517   0.000000
     8  C    2.448464   1.553684   0.000000
     9  N    4.355103   5.039600   4.595955   0.000000
    10  C    5.414222   6.223388   5.717708   1.286864   0.000000
    11  C    6.054189   7.079450   6.836714   2.402938   1.512427
    12  C    6.539520   7.732950   7.500658   3.464332   2.481240
    13  N    7.119491   8.397391   8.172768   4.466568   3.497073
    14  H    5.221973   5.602590   4.498276   2.759632   2.831324
    15  H    5.267953   5.154625   3.838374   3.317793   3.846783
    16  H    6.176309   6.371307   5.279043   2.795007   2.797762
    17  H    2.937199   3.085044   2.922104   2.388908   3.675735
    18  H    3.907606   3.466034   2.555473   3.199948   4.334851
    19  H    2.191680   3.001418   2.716049   4.144769   4.879120
    20  H    2.228419   3.369533   3.273867   2.625065   3.415332
    21  H    1.094649   2.197695   3.205571   4.124383   5.201156
    22  H    1.094294   2.216714   3.210953   5.215948   6.163301
    23  H    2.218866   1.094499   2.205348   6.095540   7.249931
    24  H    2.197702   1.095268   2.196246   5.142611   6.397527
    25  H    3.377545   2.231421   1.094450   4.929199   6.082109
    26  H    2.969244   2.186867   1.097332   5.325835   6.334278
    27  H    6.115579   6.827547   6.105204   2.105074   1.090445
    28  H    7.023176   7.965881   7.686496   3.113357   2.165555
    29  H    5.554871   6.637888   6.626086   2.475745   2.135942
                   11         12         13         14         15
    11  C    0.000000
    12  C    1.470590   0.000000
    13  N    2.632150   1.161643   0.000000
    14  H    4.259081   4.675580   5.266818   0.000000
    15  H    5.354285   6.099333   6.845872   1.773840   0.000000
    16  H    4.246416   5.055909   5.868339   1.785640   1.780015
    17  H    4.581986   5.624853   6.565106   3.969009   3.582623
    18  H    5.591898   6.620263   7.532717   3.569560   2.433704
    19  H    5.725420   5.883782   6.253355   3.907620   4.397115
    20  H    4.114510   4.474719   5.052186   3.457197   4.111575
    21  H    5.644515   6.239600   6.902231   5.563680   5.637093
    22  H    6.679022   6.971024   7.406453   5.945498   6.152028
    23  H    8.085883   8.654333   9.246212   6.470733   6.015506
    24  H    7.199399   8.017055   8.785705   6.071765   5.451567
    25  H    7.286401   8.093768   8.849568   4.786682   3.725596
    26  H    7.485376   7.992899   8.549094   4.735906   4.182141
    27  H    2.236234   2.836709   3.664913   2.389186   3.580569
    28  H    1.099027   2.084195   3.142282   4.905240   5.879493
    29  H    1.094702   2.101407   3.170307   4.814273   5.738012
                   16         17         18         19         20
    16  H    0.000000
    17  H    4.074443   0.000000
    18  H    3.457268   1.781527   0.000000
    19  H    5.346975   3.716532   4.150364   0.000000
    20  H    4.560194   2.625354   3.636001   1.767501   0.000000
    21  H    6.304129   2.681821   4.057199   3.039794   2.419153
    22  H    7.069646   4.011418   4.963691   2.377121   2.812625
    23  H    7.341467   4.178244   4.435501   3.497697   4.219720
    24  H    6.562952   2.896430   3.373199   3.936857   3.917977
    25  H    5.248359   3.099136   2.204989   3.754112   4.123021
    26  H    5.748886   3.934232   3.440090   2.650423   3.742332
    27  H    2.254297   4.387756   4.668073   5.258379   4.048784
    28  H    4.532747   5.262244   6.170110   6.764737   5.145455
    29  H    4.855800   4.215202   5.511955   5.594581   3.871540
                   21         22         23         24         25
    21  H    0.000000
    22  H    1.759119   0.000000
    23  H    2.940499   2.393724   0.000000
    24  H    2.335907   2.954485   1.760675   0.000000
    25  H    3.957863   4.206014   2.802507   2.430386   0.000000
    26  H    3.922634   3.433802   2.385061   3.044311   1.766309
    27  H    6.046862   6.852428   7.827441   7.077453   6.412761
    28  H    6.556942   7.697878   9.002356   7.994700   8.033274
    29  H    4.986274   6.158354   7.632137   6.670262   7.107255
                   26         27         28         29
    26  H    0.000000
    27  H    6.606018   0.000000
    28  H    8.381052   2.624545   0.000000
    29  H    7.354202   3.104228   1.768691   0.000000
 Stoichiometry    C9H16N4
 Framework group  C1[X(C9H16N4)]
 Deg. of freedom    81
 Full point group                 C1      NOp   1
 Largest Abelian subgroup         C1      NOp   1
 Largest concise Abelian subgroup C1      NOp   1
                         Standard orientation:                         
 ---------------------------------------------------------------------
 Center     Atomic      Atomic             Coordinates (Angstroms)
 Number     Number       Type             X           Y           Z
 ---------------------------------------------------------------------
      1          6           0       -0.357421    2.320768    0.808226
      2          7           0       -0.133932    1.410432   -0.302639
      3          6           0        1.224815    0.991969   -0.607343
      4          7           0        1.880969    0.320579    0.518339
      5          6           0        1.486104   -1.093097    0.674360
      6          6           0        2.437511   -1.924547   -0.233184
      7          6           0        3.677926   -1.009443   -0.434377
      8          6           0        3.347047    0.258769    0.399944
      9          7           0       -1.099430    0.569363   -0.720404
     10          6           0       -2.312151    0.673468   -0.302685
     11          6           0       -3.347659   -0.262922   -0.884348
     12          6           0       -4.033022   -1.056637    0.146636
     13          7           0       -4.574535   -1.668720    0.972186
     14          1           0       -0.672355    1.789056    1.717941
     15          1           0        0.576105    2.840628    1.023640
     16          1           0       -1.125137    3.059828    0.548054
     17          1           0        1.144774    0.379395   -1.516859
     18          1           0        1.815048    1.885066   -0.840451
     19          1           0        1.626071   -1.371113    1.726085
     20          1           0        0.429286   -1.225733    0.433557
     21          1           0        1.961668   -2.154225   -1.191869
     22          1           0        2.694563   -2.880742    0.232750
     23          1           0        4.607409   -1.480597   -0.099709
     24          1           0        3.809054   -0.756519   -1.491943
     25          1           0        3.742360    1.184160   -0.030405
     26          1           0        3.764702    0.162231    1.410084
     27          1           0       -2.649823    1.403285    0.433803
     28          1           0       -4.116193    0.293654   -1.438819
     29          1           0       -2.857941   -0.939929   -1.591603
 ---------------------------------------------------------------------
 Rotational constants (GHZ):           1.3717624           0.3704704           0.3212420
 Standard basis: 6-31+G(d,p) (6D, 7F)
 There are   327 symmetry adapted cartesian basis functions of A   symmetry.
 There are   327 symmetry adapted basis functions of A   symmetry.
   327 basis functions,   528 primitive gaussians,   327 cartesian basis functions
    49 alpha electrons       49 beta electrons
       nuclear repulsion energy       785.0806764004 Hartrees.
 NAtoms=   29 NActive=   29 NUniq=   29 SFac= 1.00D+00 NAtFMM=   60 NAOKFM=F Big=F
 Integral buffers will be    131072 words long.
 Regular integral format.
 Two-electron integral symmetry is turned on.
 One-electron integrals computed using PRISM.
 NBasis=   327 RedAO= T EigKep=  1.62D-05  NBF=   327
 NBsUse=   327 1.00D-06 EigRej= -1.00D+00 NBFU=   327
 ExpMin= 4.38D-02 ExpMax= 4.17D+03 ExpMxC= 6.27D+02 IAcc=3 IRadAn=         5 AccDes= 0.00D+00
 Harris functional with IExCor=  402 and IRadAn=       5 diagonalized for initial guess.
 HarFok:  IExCor=  402 AccDes= 0.00D+00 IRadAn=         5 IDoV= 1 UseB2=F ITyADJ=14
 ICtDFT=  3500011 ScaDFX=  1.000000  1.000000  1.000000  1.000000
 FoFCou: FMM=F IPFlag=           0 FMFlag=      100000 FMFlg1=           0
         NFxFlg=           0 DoJE=T BraDBF=F KetDBF=T FulRan=T
         wScrn=  0.000000 ICntrl=       500 IOpCl=  0 I1Cent=   200000004 NGrid=           0
         NMat0=    1 NMatS0=      1 NMatT0=    0 NMatD0=    1 NMtDS0=    0 NMtDT0=    0
 Petite list used in FoFCou.
 Requested convergence on RMS density matrix=1.00D-08 within 128 cycles.
 Requested convergence on MAX density matrix=1.00D-06.
 Requested convergence on             energy=1.00D-06.
 No special actions if energy rises.
 SCF Done:  E(RB3LYP) =  -571.562353284     A.U. after   14 cycles
            NFock= 14  Conv=0.69D-08     -V/T= 2.0098
 DoSCS=F DFT=T ScalE2(SS,OS)=  1.000000  1.000000
 ExpMin= 4.38D-02 ExpMax= 4.17D+03 ExpMxC= 6.27D+02 IAcc=3 IRadAn=         5 AccDes= 0.00D+00
 HarFok:  IExCor=  205 AccDes= 0.00D+00 IRadAn=         5 IDoV=-2 UseB2=F ITyADJ=14
 ICtDFT= 12500011 ScaDFX=  1.000000  1.000000  1.000000  1.000000
 Range of M.O.s used for correlation:    14   327
 NBasis=   327 NAE=    49 NBE=    49 NFC=    13 NFV=     0
 NROrb=    314 NOA=    36 NOB=    36 NVA=   278 NVB=   278

 **** Warning!!: The largest alpha MO coefficient is  0.68401333D+02

 Orbital symmetries:
       Occupied  (A) (A) (A) (A) (A) (A) (A) (A) (A) (A) (A) (A)
                 (A) (A) (A) (A) (A) (A) (A) (A) (A) (A) (A) (A)
                 (A) (A) (A) (A) (A) (A) (A) (A) (A) (A) (A) (A)
                 (A) (A) (A) (A) (A) (A) (A) (A) (A) (A) (A) (A)
                 (A)
       Virtual   (A) (A) (A) (A) (A) (A) (A) (A) (A) (A) (A) (A)
                 (A) (A) (A) (A) (A) (A) (A) (A) (A) (A) (A) (A)
                 (A) (A) (A) (A) (A) (A) (A) (A) (A) (A) (A) (A)
                 (A) (A) (A) (A) (A) (A) (A) (A) (A) (A) (A) (A)
                 (A) (A) (A) (A) (A) (A) (A) (A) (A) (A) (A) (A)
                 (A) (A) (A) (A) (A) (A) (A) (A) (A) (A) (A) (A)
                 (A) (A) (A) (A) (A) (A) (A) (A) (A) (A) (A) (A)
                 (A) (A) (A) (A) (A) (A) (A) (A) (A) (A) (A) (A)
                 (A) (A) (A) (A) (A) (A) (A) (A) (A) (A) (A) (A)
                 (A) (A) (A) (A) (A) (A) (A) (A) (A) (A) (A) (A)
                 (A) (A) (A) (A) (A) (A) (A) (A) (A) (A) (A) (A)
                 (A) (A) (A) (A) (A) (A) (A) (A) (A) (A) (A) (A)
                 (A) (A) (A) (A) (A) (A) (A) (A) (A) (A) (A) (A)
                 (A) (A) (A) (A) (A) (A) (A) (A) (A) (A) (A) (A)
                 (A) (A) (A) (A) (A) (A) (A) (A) (A) (A) (A) (A)
                 (A) (A) (A) (A) (A) (A) (A) (A) (A) (A) (A) (A)
                 (A) (A) (A) (A) (A) (A) (A) (A) (A) (A) (A) (A)
                 (A) (A) (A) (A) (A) (A) (A) (A) (A) (A) (A) (A)
                 (A) (A) (A) (A) (A) (A) (A) (A) (A) (A) (A) (A)
                 (A) (A) (A) (A) (A) (A) (A) (A) (A) (A) (A) (A)
                 (A) (A) (A) (A) (A) (A) (A) (A) (A) (A) (A) (A)
                 (A) (A) (A) (A) (A) (A) (A) (A) (A) (A) (A) (A)
                 (A) (A) (A) (A) (A) (A) (A) (A) (A) (A) (A) (A)
                 (A) (A)
    24 initial guesses have been made.
 Convergence on wavefunction:    0.001000000000000
 Iteration     1 Dimension    24 NMult     0 NNew     24
 CISAX will form    24 AO SS matrices at one time.
 New state      1 was old state      2
 New state      2 was old state      4
 New state      4 was old state      6
 New state      6 was old state      8
 New state      8 was old state     10
 New state     10 was old state     12
 New state     12 was old state     14
 Vector   6 SDiff=8.42D+00 TDiff=8.57D+00 assumed to be singlet.
 Vector  12 SDiff=8.45D+00 TDiff=8.48D+00 assumed to be singlet.
 Iteration     2 Dimension    36 NMult    24 NNew     12
 New state      3 was old state      4
 New state      4 was old state      3
 New state      6 was old state      7
 Iteration     3 Dimension    48 NMult    36 NNew     12
 Iteration     4 Dimension    60 NMult    48 NNew     12
 Iteration     5 Dimension    72 NMult    60 NNew     12
 Iteration     6 Dimension    82 NMult    72 NNew     10
 Iteration     7 Dimension    88 NMult    82 NNew      6
 Iteration     8 Dimension    92 NMult    88 NNew      4
 ***********************************************************************
 Excited states from <AA,BB:AA,BB> singles matrix:
 ***********************************************************************
 
 Ground to excited state transition densities written to RWF  633
 Ground to excited state transition electric dipole moments (Au):
       state          X           Y           Z        Dip. S.      Osc.
         1        -0.0000      0.0000      0.0000      0.0000      0.0000
         2        -0.0000     -0.0000     -0.0000      0.0000      0.0000
         3        -0.0000      0.0000     -0.0000      0.0000      0.0000
         4        -0.3552     -0.0108     -0.0425      0.1281      0.0162
         5        -0.1992     -0.1136      0.1149      0.0658      0.0084
         6        -0.3154      0.2933     -0.2098      0.2295      0.0301
 Ground to excited state transition velocity dipole moments (Au):
       state          X           Y           Z        Dip. S.      Osc.
         1         0.0000     -0.0000     -0.0000      0.0000      0.0000
         2         0.0000     -0.0000     -0.0000      0.0000      0.0000
         3         0.0000      0.0000      0.0000      0.0000      0.0000
         4         0.0632      0.0028      0.0054      0.0040      0.0142
         5         0.0385      0.0208     -0.0237      0.0025      0.0086
         6         0.0624     -0.0567      0.0376      0.0085      0.0289
 Ground to excited state transition magnetic dipole moments (Au):
       state          X           Y           Z
         1        -0.0000     -0.0000     -0.0000
         2        -0.0000     -0.0000     -0.0000
         3         0.0000     -0.0000     -0.0000
         4         0.1406     -0.1215     -0.1632
         5        -0.1387     -0.1085     -0.2168
         6         0.3283     -0.0509     -0.2355
 Ground to excited state transition velocity quadrupole moments (Au):
       state          XX          YY          ZZ          XY          XZ          YZ
         1         0.0000     -0.0000     -0.0000     -0.0000      0.0000     -0.0000
         2         0.0000     -0.0000     -0.0000     -0.0000      0.0000     -0.0000
         3        -0.0000      0.0000     -0.0000     -0.0000      0.0000      0.0000
         4        -0.2724     -0.0193      0.0222      0.0039     -0.0477      0.0686
         5         0.1637      0.3016     -0.1698     -0.2127      0.0019     -0.0661
         6         0.3181     -0.0499      0.0693     -0.1454      0.1102     -0.0129
 <0|del|b> * <b|rxdel|0> + <0|del|b> * <b|delr+rdel|0>
 Rotatory Strengths (R) in cgs (10**-40 erg-esu-cm/Gauss)
       state          XX          YY          ZZ    R(velocity)    E-M Angle
         1         0.0000     -0.0000     -0.0000      0.0000       90.00
         2         0.0000     -0.0000      0.0000      0.0000       90.00
         3        -0.0000      0.0000      0.0000      0.0000       90.00
         4        -1.9840     23.0058      7.6205      9.5475       60.76
         5        14.5360    -14.4140     -9.2804     -3.0528      100.26
         6        -9.3149     29.2868     32.2220     17.3979       67.28
 1/2[<0|r|b>*<b|rxdel|0> + (<0|rxdel|b>*<b|r|0>)*]
 Rotatory Strengths (R) in cgs (10**-40 erg-esu-cm/Gauss)
       state          XX          YY          ZZ     R(length)
         1        -0.0000      0.0000      0.0000     -0.0000
         2        -0.0000     -0.0000     -0.0000     -0.0000
         3         0.0000      0.0000     -0.0000      0.0000
         4        35.3245     -0.9242     -4.9078      9.8309
         5       -19.5389     -8.7151     17.6116     -3.5475
         6        73.2050     10.5635    -34.9264     16.2807
  1/2[<0|del|b>*<b|r|0> + (<0|r|b>*<b|del|0>)*] (Au)
       state          X           Y           Z        Dip. S.   Osc.(frdel)
         1        -0.0000     -0.0000     -0.0000      0.0000      0.0000
         2        -0.0000      0.0000      0.0000      0.0000      0.0000
         3        -0.0000      0.0000     -0.0000      0.0000      0.0000
         4        -0.0224     -0.0000     -0.0002      0.0227      0.0151
         5        -0.0077     -0.0024     -0.0027      0.0128      0.0085
         6        -0.0197     -0.0166     -0.0079      0.0442      0.0295

 Excitation energies and oscillator strengths:
 
 Excited State   1:      Triplet-A      3.3764 eV  367.21 nm  f=0.0000  <S**2>=2.000
      48 -> 50        -0.27262
      49 -> 50         0.62283
 This state for optimization and/or second-order correction.
 Total Energy, E(TD-HF/TD-DFT) =  -571.438272357    
 Copying the excited state density for this state as the 1-particle RhoCI density.
 
 Excited State   2:      Triplet-A      5.0813 eV  244.00 nm  f=0.0000  <S**2>=2.000
      47 -> 50         0.55125
      48 -> 50         0.36981
      49 -> 50         0.15230
      49 -> 51        -0.10138
 
 Excited State   3:      Triplet-A      5.1451 eV  240.97 nm  f=0.0000  <S**2>=2.000
      48 -> 50         0.25030
      48 -> 52        -0.10539
      49 -> 50         0.11285
      49 -> 51         0.61563
      49 -> 52         0.11487
 
 Excited State   4:      Singlet-A      5.1522 eV  240.65 nm  f=0.0162  <S**2>=0.000
      48 -> 50         0.54530
      49 -> 50         0.40155
      49 -> 51        -0.18878
 
 Excited State   5:      Singlet-A      5.2029 eV  238.30 nm  f=0.0084  <S**2>=0.000
      48 -> 50         0.17978
      48 -> 52        -0.11023
      49 -> 51         0.65662
 
 Excited State   6:      Singlet-A      5.3547 eV  231.54 nm  f=0.0301  <S**2>=0.000
      48 -> 51         0.63711
      48 -> 52        -0.13890
      49 -> 52        -0.24571
 SavETr:  write IOETrn=   770 NScale= 10 NData=  16 NLR=1 NState=    6 LETran=     118.

 **********************************************************************

            Population analysis using the SCF Density.

 **********************************************************************

 Orbital symmetries:
       Occupied  (A) (A) (A) (A) (A) (A) (A) (A) (A) (A) (A) (A)
                 (A) (A) (A) (A) (A) (A) (A) (A) (A) (A) (A) (A)
                 (A) (A) (A) (A) (A) (A) (A) (A) (A) (A) (A) (A)
                 (A) (A) (A) (A) (A) (A) (A) (A) (A) (A) (A) (A)
                 (A)
       Virtual   (A) (A) (A) (A) (A) (A) (A) (A) (A) (A) (A) (A)
                 (A) (A) (A) (A) (A) (A) (A) (A) (A) (A) (A) (A)
                 (A) (A) (A) (A) (A) (A) (A) (A) (A) (A) (A) (A)
                 (A) (A) (A) (A) (A) (A) (A) (A) (A) (A) (A) (A)
                 (A) (A) (A) (A) (A) (A) (A) (A) (A) (A) (A) (A)
                 (A) (A) (A) (A) (A) (A) (A) (A) (A) (A) (A) (A)
                 (A) (A) (A) (A) (A) (A) (A) (A) (A) (A) (A) (A)
                 (A) (A) (A) (A) (A) (A) (A) (A) (A) (A) (A) (A)
                 (A) (A) (A) (A) (A) (A) (A) (A) (A) (A) (A) (A)
                 (A) (A) (A) (A) (A) (A) (A) (A) (A) (A) (A) (A)
                 (A) (A) (A) (A) (A) (A) (A) (A) (A) (A) (A) (A)
                 (A) (A) (A) (A) (A) (A) (A) (A) (A) (A) (A) (A)
                 (A) (A) (A) (A) (A) (A) (A) (A) (A) (A) (A) (A)
                 (A) (A) (A) (A) (A) (A) (A) (A) (A) (A) (A) (A)
                 (A) (A) (A) (A) (A) (A) (A) (A) (A) (A) (A) (A)
                 (A) (A) (A) (A) (A) (A) (A) (A) (A) (A) (A) (A)
                 (A) (A) (A) (A) (A) (A) (A) (A) (A) (A) (A) (A)
                 (A) (A) (A) (A) (A) (A) (A) (A) (A) (A) (A) (A)
                 (A) (A) (A) (A) (A) (A) (A) (A) (A) (A) (A) (A)
                 (A) (A) (A) (A) (A) (A) (A) (A) (A) (A) (A) (A)
                 (A) (A) (A) (A) (A) (A) (A) (A) (A) (A) (A) (A)
                 (A) (A) (A) (A) (A) (A) (A) (A) (A) (A) (A) (A)
                 (A) (A) (A) (A) (A) (A) (A) (A) (A) (A) (A) (A)
                 (A) (A)
 The electronic state is 1-A.
 Alpha  occ. eigenvalues --  -14.39290 -14.38567 -14.34069 -14.33639 -10.25285
 Alpha  occ. eigenvalues --  -10.24389 -10.23491 -10.23348 -10.22723 -10.21694
 Alpha  occ. eigenvalues --  -10.21050 -10.19100 -10.18923  -1.03077  -0.94006
 Alpha  occ. eigenvalues --   -0.90895  -0.86291  -0.78760  -0.77022  -0.73083
 Alpha  occ. eigenvalues --   -0.72711  -0.67495  -0.59492  -0.58750  -0.56815
 Alpha  occ. eigenvalues --   -0.54493  -0.51883  -0.50613  -0.50175  -0.48203
 Alpha  occ. eigenvalues --   -0.46120  -0.45792  -0.44794  -0.43265  -0.42281
 Alpha  occ. eigenvalues --   -0.40731  -0.39845  -0.37872  -0.37430  -0.36624
 Alpha  occ. eigenvalues --   -0.35947  -0.34951  -0.34737  -0.33328  -0.32954
 Alpha  occ. eigenvalues --   -0.32799  -0.29101  -0.23291  -0.22632
 Alpha virt. eigenvalues --   -0.01449  -0.00675   0.00405   0.00987   0.01488
 Alpha virt. eigenvalues --    0.02254   0.02512   0.02675   0.03023   0.03785
 Alpha virt. eigenvalues --    0.04100   0.04470   0.05219   0.05568   0.06182
 Alpha virt. eigenvalues --    0.06518   0.07113   0.07565   0.08086   0.08841
 Alpha virt. eigenvalues --    0.08978   0.09552   0.10146   0.10280   0.10837
 Alpha virt. eigenvalues --    0.11227   0.11744   0.12119   0.13014   0.13227
 Alpha virt. eigenvalues --    0.13979   0.14758   0.15481   0.15843   0.16073
 Alpha virt. eigenvalues --    0.16726   0.17111   0.17517   0.17838   0.18343
 Alpha virt. eigenvalues --    0.19255   0.19383   0.19853   0.20501   0.21330
 Alpha virt. eigenvalues --    0.21474   0.21907   0.22691   0.23085   0.23453
 Alpha virt. eigenvalues --    0.24074   0.24488   0.24929   0.25200   0.25632
 Alpha virt. eigenvalues --    0.25895   0.26653   0.26979   0.27835   0.28163
 Alpha virt. eigenvalues --    0.28720   0.28993   0.29800   0.29967   0.30527
 Alpha virt. eigenvalues --    0.31340   0.31794   0.32849   0.33279   0.33901
 Alpha virt. eigenvalues --    0.34485   0.35377   0.36355   0.36630   0.36947
 Alpha virt. eigenvalues --    0.38384   0.40389   0.41064   0.41805   0.43369
 Alpha virt. eigenvalues --    0.44123   0.46274   0.47509   0.57234   0.61670
 Alpha virt. eigenvalues --    0.63775   0.65391   0.66147   0.66229   0.66953
 Alpha virt. eigenvalues --    0.67479   0.68924   0.70420   0.71585   0.72635
 Alpha virt. eigenvalues --    0.73776   0.74405   0.75033   0.76498   0.77613
 Alpha virt. eigenvalues --    0.77929   0.80137   0.81065   0.83831   0.84284
 Alpha virt. eigenvalues --    0.85465   0.87274   0.87817   0.88551   0.89324
 Alpha virt. eigenvalues --    0.91131   0.93100   0.93936   0.94494   0.94764
 Alpha virt. eigenvalues --    0.95283   0.96384   0.97278   0.97999   0.98739
 Alpha virt. eigenvalues --    0.98938   1.00737   1.01636   1.03046   1.04943
 Alpha virt. eigenvalues --    1.05320   1.06024   1.08072   1.09110   1.10357
 Alpha virt. eigenvalues --    1.10764   1.11582   1.12113   1.13432   1.15113
 Alpha virt. eigenvalues --    1.15620   1.16261   1.19311   1.24377   1.26553
 Alpha virt. eigenvalues --    1.27916   1.30783   1.31947   1.32684   1.36905
 Alpha virt. eigenvalues --    1.38957   1.39547   1.43885   1.45433   1.46554
 Alpha virt. eigenvalues --    1.48265   1.50559   1.52262   1.53373   1.53972
 Alpha virt. eigenvalues --    1.55193   1.57633   1.58636   1.61175   1.64267
 Alpha virt. eigenvalues --    1.66971   1.67490   1.69821   1.74595   1.75190
 Alpha virt. eigenvalues --    1.77885   1.79067   1.80123   1.83091   1.84519
 Alpha virt. eigenvalues --    1.86589   1.87341   1.88956   1.91226   1.92151
 Alpha virt. eigenvalues --    1.92952   1.95065   1.95538   1.95935   1.98167
 Alpha virt. eigenvalues --    1.99064   1.99497   2.01909   2.02835   2.04186
 Alpha virt. eigenvalues --    2.05168   2.08032   2.08316   2.09938   2.10387
 Alpha virt. eigenvalues --    2.12555   2.14150   2.15416   2.15948   2.16658
 Alpha virt. eigenvalues --    2.21103   2.22012   2.22505   2.24787   2.26904
 Alpha virt. eigenvalues --    2.27888   2.28817   2.30627   2.34329   2.35803
 Alpha virt. eigenvalues --    2.38175   2.38256   2.41296   2.42203   2.45352
 Alpha virt. eigenvalues --    2.46555   2.47544   2.48572   2.50842   2.52336
 Alpha virt. eigenvalues --    2.52654   2.52933   2.55828   2.57267   2.60374
 Alpha virt. eigenvalues --    2.60947   2.61771   2.63388   2.65780   2.67922
 Alpha virt. eigenvalues --    2.70397   2.70727   2.72146   2.72684   2.75397
 Alpha virt. eigenvalues --    2.76866   2.79437   2.79818   2.83256   2.83466
 Alpha virt. eigenvalues --    2.87345   2.87701   2.89028   2.91308   2.92387
 Alpha virt. eigenvalues --    2.93366   2.94593   2.96750   2.99546   3.01058
 Alpha virt. eigenvalues --    3.08935   3.12282   3.13893   3.21895   3.26946
 Alpha virt. eigenvalues --    3.27546   3.31203   3.32973   3.35091   3.36028
 Alpha virt. eigenvalues --    3.39889   3.43326   3.44721   3.45165   3.48293
 Alpha virt. eigenvalues --    3.50067   3.51096   3.53644   3.55461   3.61762
 Alpha virt. eigenvalues --    4.13486   4.20070   4.24804   4.29073   4.41058
 Alpha virt. eigenvalues --    4.48087   4.49159   4.50403   4.57806   4.66815
 Alpha virt. eigenvalues --    4.68181   4.77006   4.87371
          Condensed to atoms (all electrons):
               1          2          3          4          5          6
     1  C    5.210148   0.135654  -0.169510   0.022771   0.024040  -0.008803
     2  N    0.135654   8.189904   0.606620  -0.766191   0.315880  -0.073620
     3  C   -0.169510   0.606620   5.837857   0.014930   0.018410  -0.069749
     4  N    0.022771  -0.766191   0.014930   7.797371  -0.213887   0.056697
     5  C    0.024040   0.315880   0.018410  -0.213887   6.133342  -0.159716
     6  C   -0.008803  -0.073620  -0.069749   0.056697  -0.159716   5.630180
     7  C    0.008801   0.014830   0.050303  -0.140869   0.110695   0.044077
     8  C   -0.023742  -0.045598  -0.147191   0.132341  -0.344628   0.025576
     9  N   -0.102749  -1.155867  -0.581665   0.528277  -0.260740   0.082734
    10  C   -0.038644   0.177056  -0.032715  -0.005362   0.001876  -0.008255
    11  C   -0.035121  -0.394494  -0.086735   0.051545  -0.037096   0.016354
    12  C   -0.001579   0.026961   0.021980  -0.001432  -0.000288  -0.001370
    13  N    0.000023  -0.001267  -0.000461   0.000180  -0.000535   0.000033
    14  H    0.415323  -0.111226  -0.029497   0.016452  -0.001132  -0.002173
    15  H    0.418945  -0.051639  -0.004152  -0.003138  -0.000674   0.000817
    16  H    0.399856  -0.019271   0.019883  -0.006898   0.000918  -0.000071
    17  H    0.012511   0.046408   0.510036  -0.113215   0.028982  -0.022658
    18  H   -0.006675  -0.005088   0.447293  -0.120908   0.013925  -0.003669
    19  H    0.000222  -0.009012  -0.000918  -0.019320   0.374675  -0.033303
    20  H   -0.001364   0.048470   0.002214  -0.069375   0.428630  -0.049934
    21  H   -0.000769  -0.002534   0.013256   0.010440  -0.069192   0.424044
    22  H    0.000088   0.000703  -0.000598   0.009508  -0.078224   0.432978
    23  H   -0.000038  -0.000193  -0.000721   0.005152   0.036888  -0.055185
    24  H    0.000348   0.000927   0.008100   0.010801   0.006834  -0.049780
    25  H    0.000872   0.000142  -0.008827  -0.053758   0.002795   0.027500
    26  H   -0.000089  -0.002412  -0.003564  -0.039239  -0.037570   0.028634
    27  H    0.024676  -0.041392  -0.008523  -0.000213   0.000651  -0.000239
    28  H    0.000222  -0.001324   0.000037   0.000021  -0.000226   0.000006
    29  H    0.000076  -0.019464  -0.001374   0.000053   0.000969  -0.000620
               7          8          9         10         11         12
     1  C    0.008801  -0.023742  -0.102749  -0.038644  -0.035121  -0.001579
     2  N    0.014830  -0.045598  -1.155867   0.177056  -0.394494   0.026961
     3  C    0.050303  -0.147191  -0.581665  -0.032715  -0.086735   0.021980
     4  N   -0.140869   0.132341   0.528277  -0.005362   0.051545  -0.001432
     5  C    0.110695  -0.344628  -0.260740   0.001876  -0.037096  -0.000288
     6  C    0.044077   0.025576   0.082734  -0.008255   0.016354  -0.001370
     7  C    5.565417   0.064604  -0.031477  -0.000544  -0.006372   0.002388
     8  C    0.064604   5.665933   0.057240  -0.001199   0.013441  -0.002817
     9  N   -0.031477   0.057240   8.224648   0.330900   0.179177   0.049874
    10  C   -0.000544  -0.001199   0.330900   5.701781  -0.134099  -0.217023
    11  C   -0.006372   0.013441   0.179177  -0.134099   6.128150  -0.137801
    12  C    0.002388  -0.002817   0.049874  -0.217023  -0.137801   5.718963
    13  N   -0.000054   0.000076  -0.007582   0.025149  -0.011188   0.382742
    14  H    0.001663  -0.002856   0.051281   0.006424   0.006741   0.004491
    15  H   -0.000441   0.000727   0.012599  -0.005818  -0.002945  -0.000146
    16  H   -0.000333   0.000445  -0.043445   0.003120   0.002461  -0.004955
    17  H    0.015747  -0.010314  -0.141625  -0.004041  -0.012256   0.001211
    18  H   -0.005141  -0.003592  -0.013412  -0.001008  -0.000953  -0.000305
    19  H    0.000548  -0.010745   0.008748   0.001920   0.000322  -0.000319
    20  H    0.018709   0.002596  -0.038544  -0.004850  -0.001693  -0.000118
    21  H   -0.049141   0.006160   0.001590   0.000631  -0.000088  -0.000123
    22  H   -0.059061   0.031737   0.000059  -0.000061   0.000098  -0.000005
    23  H    0.417014  -0.068794   0.000269   0.000035  -0.000002  -0.000004
    24  H    0.408194  -0.053060   0.000126   0.000080  -0.000033   0.000009
    25  H   -0.068154   0.423226   0.000510  -0.000268  -0.000011   0.000000
    26  H   -0.081824   0.437386   0.002448   0.000260   0.000060   0.000002
    27  H    0.000141  -0.000480  -0.016667   0.384857  -0.060667   0.002210
    28  H    0.000022  -0.000020   0.003371  -0.044113   0.391019  -0.039465
    29  H    0.000113  -0.000092  -0.005242  -0.048724   0.475819  -0.077579
              13         14         15         16         17         18
     1  C    0.000023   0.415323   0.418945   0.399856   0.012511  -0.006675
     2  N   -0.001267  -0.111226  -0.051639  -0.019271   0.046408  -0.005088
     3  C   -0.000461  -0.029497  -0.004152   0.019883   0.510036   0.447293
     4  N    0.000180   0.016452  -0.003138  -0.006898  -0.113215  -0.120908
     5  C   -0.000535  -0.001132  -0.000674   0.000918   0.028982   0.013925
     6  C    0.000033  -0.002173   0.000817  -0.000071  -0.022658  -0.003669
     7  C   -0.000054   0.001663  -0.000441  -0.000333   0.015747  -0.005141
     8  C    0.000076  -0.002856   0.000727   0.000445  -0.010314  -0.003592
     9  N   -0.007582   0.051281   0.012599  -0.043445  -0.141625  -0.013412
    10  C    0.025149   0.006424  -0.005818   0.003120  -0.004041  -0.001008
    11  C   -0.011188   0.006741  -0.002945   0.002461  -0.012256  -0.000953
    12  C    0.382742   0.004491  -0.000146  -0.004955   0.001211  -0.000305
    13  N    7.125657  -0.000102  -0.000001   0.000088  -0.000010   0.000001
    14  H   -0.000102   0.555979  -0.024256  -0.045204  -0.000260  -0.000463
    15  H   -0.000001  -0.024256   0.523309  -0.023740   0.000239   0.000660
    16  H    0.000088  -0.045204  -0.023740   0.576323  -0.000091   0.000647
    17  H   -0.000010  -0.000260   0.000239  -0.000091   0.578146  -0.034743
    18  H    0.000001  -0.000463   0.000660   0.000647  -0.034743   0.603720
    19  H    0.000007   0.000043  -0.000005  -0.000002  -0.000310  -0.000161
    20  H    0.000085  -0.000090  -0.000018   0.000013  -0.000229   0.000289
    21  H    0.000002  -0.000000  -0.000000   0.000000  -0.000367  -0.000004
    22  H    0.000000   0.000000   0.000000  -0.000000  -0.000140   0.000009
    23  H    0.000000   0.000000   0.000000  -0.000000  -0.000028   0.000005
    24  H   -0.000000  -0.000000  -0.000000   0.000000  -0.001304   0.000221
    25  H    0.000000  -0.000002   0.000001   0.000002   0.000086   0.005469
    26  H   -0.000000   0.000016   0.000004  -0.000001  -0.000508   0.000383
    27  H   -0.000153  -0.001133  -0.000028  -0.001931   0.000004   0.000015
    28  H   -0.005375   0.000019  -0.000000  -0.000046   0.000000  -0.000000
    29  H    0.001222  -0.000004   0.000000  -0.000004  -0.000002   0.000000
              19         20         21         22         23         24
     1  C    0.000222  -0.001364  -0.000769   0.000088  -0.000038   0.000348
     2  N   -0.009012   0.048470  -0.002534   0.000703  -0.000193   0.000927
     3  C   -0.000918   0.002214   0.013256  -0.000598  -0.000721   0.008100
     4  N   -0.019320  -0.069375   0.010440   0.009508   0.005152   0.010801
     5  C    0.374675   0.428630  -0.069192  -0.078224   0.036888   0.006834
     6  C   -0.033303  -0.049934   0.424044   0.432978  -0.055185  -0.049780
     7  C    0.000548   0.018709  -0.049141  -0.059061   0.417014   0.408194
     8  C   -0.010745   0.002596   0.006160   0.031737  -0.068794  -0.053060
     9  N    0.008748  -0.038544   0.001590   0.000059   0.000269   0.000126
    10  C    0.001920  -0.004850   0.000631  -0.000061   0.000035   0.000080
    11  C    0.000322  -0.001693  -0.000088   0.000098  -0.000002  -0.000033
    12  C   -0.000319  -0.000118  -0.000123  -0.000005  -0.000004   0.000009
    13  N    0.000007   0.000085   0.000002   0.000000   0.000000  -0.000000
    14  H    0.000043  -0.000090  -0.000000   0.000000   0.000000  -0.000000
    15  H   -0.000005  -0.000018  -0.000000   0.000000   0.000000  -0.000000
    16  H   -0.000002   0.000013   0.000000  -0.000000  -0.000000   0.000000
    17  H   -0.000310  -0.000229  -0.000367  -0.000140  -0.000028  -0.001304
    18  H   -0.000161   0.000289  -0.000004   0.000009   0.000005   0.000221
    19  H    0.574047  -0.028617   0.004093  -0.006307   0.000325  -0.000126
    20  H   -0.028617   0.539025  -0.007037   0.002567  -0.000120  -0.000078
    21  H    0.004093  -0.007037   0.557934  -0.030008   0.003321  -0.010216
    22  H   -0.006307   0.002567  -0.030008   0.556378  -0.007776   0.003446
    23  H    0.000325  -0.000120   0.003321  -0.007776   0.559716  -0.029991
    24  H   -0.000126  -0.000078  -0.010216   0.003446  -0.029991   0.564641
    25  H    0.000046  -0.000236  -0.000088  -0.000121   0.002955  -0.006921
    26  H    0.002520  -0.000006  -0.000127   0.000368  -0.005553   0.004300
    27  H    0.000002   0.000023   0.000000   0.000000   0.000000   0.000000
    28  H    0.000000  -0.000002   0.000000  -0.000000  -0.000000  -0.000000
    29  H   -0.000000  -0.000004   0.000000  -0.000000   0.000000   0.000000
              25         26         27         28         29
     1  C    0.000872  -0.000089   0.024676   0.000222   0.000076
     2  N    0.000142  -0.002412  -0.041392  -0.001324  -0.019464
     3  C   -0.008827  -0.003564  -0.008523   0.000037  -0.001374
     4  N   -0.053758  -0.039239  -0.000213   0.000021   0.000053
     5  C    0.002795  -0.037570   0.000651  -0.000226   0.000969
     6  C    0.027500   0.028634  -0.000239   0.000006  -0.000620
     7  C   -0.068154  -0.081824   0.000141   0.000022   0.000113
     8  C    0.423226   0.437386  -0.000480  -0.000020  -0.000092
     9  N    0.000510   0.002448  -0.016667   0.003371  -0.005242
    10  C   -0.000268   0.000260   0.384857  -0.044113  -0.048724
    11  C   -0.000011   0.000060  -0.060667   0.391019   0.475819
    12  C    0.000000   0.000002   0.002210  -0.039465  -0.077579
    13  N    0.000000  -0.000000  -0.000153  -0.005375   0.001222
    14  H   -0.000002   0.000016  -0.001133   0.000019  -0.000004
    15  H    0.000001   0.000004  -0.000028  -0.000000   0.000000
    16  H    0.000002  -0.000001  -0.001931  -0.000046  -0.000004
    17  H    0.000086  -0.000508   0.000004   0.000000  -0.000002
    18  H    0.005469   0.000383   0.000015  -0.000000   0.000000
    19  H    0.000046   0.002520   0.000002   0.000000  -0.000000
    20  H   -0.000236  -0.000006   0.000023  -0.000002  -0.000004
    21  H   -0.000088  -0.000127   0.000000   0.000000   0.000000
    22  H   -0.000121   0.000368   0.000000  -0.000000  -0.000000
    23  H    0.002955  -0.005553   0.000000  -0.000000   0.000000
    24  H   -0.006921   0.004300   0.000000  -0.000000   0.000000
    25  H    0.577973  -0.028913   0.000000  -0.000000   0.000000
    26  H   -0.028913   0.579343   0.000000   0.000000   0.000000
    27  H    0.000000   0.000000   0.585515  -0.000116   0.003338
    28  H   -0.000000   0.000000  -0.000116   0.528073  -0.024078
    29  H    0.000000   0.000000   0.003338  -0.024078   0.493617
 Mulliken charges:
               1
     1  C   -0.285495
     2  N    0.137039
     3  C   -0.404721
     4  N   -0.102736
     5  C   -0.295602
     6  C   -0.230483
     7  C   -0.279855
     8  C   -0.146359
     9  N   -0.134838
    10  C   -0.087365
    11  C   -0.343636
    12  C    0.274498
    13  N   -0.508538
    14  H    0.159966
    15  H    0.159700
    16  H    0.142236
    17  H    0.148730
    18  H    0.123484
    19  H    0.141626
    20  H    0.159692
    21  H    0.148219
    22  H    0.144362
    23  H    0.142726
    24  H    0.143481
    25  H    0.125720
    26  H    0.144081
    27  H    0.130112
    28  H    0.191976
    29  H    0.201979
 Sum of Mulliken charges =  -0.00000
 Mulliken charges with hydrogens summed into heavy atoms:
               1
     1  C    0.176406
     2  N    0.137039
     3  C   -0.132506
     4  N   -0.102736
     5  C    0.005717
     6  C    0.062098
     7  C    0.006352
     8  C    0.123442
     9  N   -0.134838
    10  C    0.042747
    11  C    0.050319
    12  C    0.274498
    13  N   -0.508538
 Electronic spatial extent (au):  <R**2>=           3471.4674
 Charge=             -0.0000 electrons
 Dipole moment (field-independent basis, Debye):
    X=              3.5933    Y=              2.8093    Z=             -1.9514  Tot=              4.9611
 Quadrupole moment (field-independent basis, Debye-Ang):
   XX=            -91.3841   YY=            -80.7916   ZZ=            -83.0564
   XY=            -11.9533   XZ=              9.7211   YZ=              4.3525
 Traceless Quadrupole moment (field-independent basis, Debye-Ang):
   XX=             -6.3067   YY=              4.2858   ZZ=              2.0209
   XY=            -11.9533   XZ=              9.7211   YZ=              4.3525
 Octapole moment (field-independent basis, Debye-Ang**2):
  XXX=            107.0620  YYY=             23.6993  ZZZ=             -4.9616  XYY=             24.8539
  XXY=             59.4515  XXZ=            -52.2002  XZZ=              8.9340  YZZ=              2.8932
  YYZ=             -2.0624  XYZ=            -23.1228
 Hexadecapole moment (field-independent basis, Debye-Ang**3):
 XXXX=          -4068.5055 YYYY=           -916.2345 ZZZZ=           -338.7485 XXXY=           -281.7693
 XXXZ=            265.4424 YYYX=            -48.0763 YYYZ=             19.6857 ZZZX=             25.2101
 ZZZY=              8.0109 XXYY=           -847.9811 XXZZ=           -689.2737 YYZZ=           -216.3273
 XXYZ=             67.1006 YYXZ=             33.9238 ZZXY=            -21.1255
 N-N= 7.850806764004D+02 E-N=-2.895118155744D+03  KE= 5.660129962848D+02
 Unable to Open any file for archive entry.
 1\1\GINC-N2\SP\RB3LYP TD-FC\6-31+G(d,p)\C9H16N4\HPCMGAC13\31-Jul-2025\
 0\\# td=(50-50,nstates=3) b3lyp/6-31+g(d,p) geom=connectivity\\Title C
 ard Required\\0,1\C,0,-0.357421,2.320768,0.808226\N,0,-0.133932,1.4104
 32,-0.302639\C,0,1.224815,0.991969,-0.607343\N,0,1.880969,0.320579,0.5
 18339\C,0,1.486104,-1.093097,0.67436\C,0,2.437511,-1.924547,-0.233184\
 C,0,3.677926,-1.009443,-0.434377\C,0,3.347047,0.258769,0.399944\N,0,-1
 .09943,0.569363,-0.720404\C,0,-2.312151,0.673468,-0.302685\C,0,-3.3476
 59,-0.262922,-0.884348\C,0,-4.033022,-1.056637,0.146636\N,0,-4.574535,
 -1.66872,0.972186\H,0,-0.672355,1.789056,1.717941\H,0,0.576105,2.84062
 8,1.02364\H,0,-1.125137,3.059828,0.548054\H,0,1.144774,0.379395,-1.516
 859\H,0,1.815048,1.885066,-0.840451\H,0,1.626071,-1.371113,1.726085\H,
 0,0.429286,-1.225733,0.433557\H,0,1.961668,-2.154225,-1.191869\H,0,2.6
 94563,-2.880742,0.23275\H,0,4.607409,-1.480597,-0.099709\H,0,3.809054,
 -0.756519,-1.491943\H,0,3.74236,1.18416,-0.030405\H,0,3.764702,0.16223
 1,1.410084\H,0,-2.649823,1.403285,0.433803\H,0,-4.116193,0.293654,-1.4
 38819\H,0,-2.857941,-0.939929,-1.591603\\Version=ES64L-G16RevC.02\Stat
 e=1-A\HF=-571.5623533\RMSD=6.914e-09\PG=C01 [X(C9H16N4)]\\@
 The archive entry for this job was punched.


    WHAT WE HAVE LEARNED
 IS LIKE A HANDFUL OF EARTH;
  WHAT WE HAVE YET TO LEARN
   IS LIKE THE WHOLE WORLD.

         -- AVVAYIAR
 Job cpu time:       0 days  0 hours 46 minutes 15.1 seconds.
 Elapsed time:       0 days  0 hours  2 minutes 59.3 seconds.
 File lengths (MBytes):  RWF=    660 Int=      0 D2E=      0 Chk=     29 Scr=      2
 Normal termination of Gaussian 16 at Thu Jul 31 16:20:33 2025.
