 Entering Gaussian System, Link 0=g16
 Input=M2149E.gjf
 Output=M2149E.log
 Initial command:
 /hpc/softwares/Gaussian/g16/l1.exe "/hpc/home/hpcmgac13/pbs.12625.admin1.x8z/Gau-2146748.inp" -scrdir="/hpc/home/hpcmgac13/pbs.12625.admin1.x8z/"
 Default linda workers: n1
 Default is to use  16 SMP processors on each worker.
 Entering Link 1 = /hpc/softwares/Gaussian/g16/l1.exe PID=   2146749.
  
 Copyright (c) 1988-2021, Gaussian, Inc.  All Rights Reserved.
  
 This is part of the Gaussian(R) 16 program.  It is based on
 the Gaussian(R) 09 system (copyright 2009, Gaussian, Inc.),
 the Gaussian(R) 03 system (copyright 2003, Gaussian, Inc.),
 the Gaussian(R) 98 system (copyright 1998, Gaussian, Inc.),
 the Gaussian(R) 94 system (copyright 1995, Gaussian, Inc.),
 the Gaussian 92(TM) system (copyright 1992, Gaussian, Inc.),
 the Gaussian 90(TM) system (copyright 1990, Gaussian, Inc.),
 the Gaussian 88(TM) system (copyright 1988, Gaussian, Inc.),
 the Gaussian 86(TM) system (copyright 1986, Carnegie Mellon
 University), and the Gaussian 82(TM) system (copyright 1983,
 Carnegie Mellon University). Gaussian is a federally registered
 trademark of Gaussian, Inc.
  
 This software contains proprietary and confidential information,
 including trade secrets, belonging to Gaussian, Inc.
  
 This software is provided under written license and may be
 used, copied, transmitted, or stored only in accord with that
 written license.
  
 The following legend is applicable only to US Government
 contracts under FAR:
  
                    RESTRICTED RIGHTS LEGEND
  
 Use, reproduction and disclosure by the US Government is
 subject to restrictions as set forth in subparagraphs (a)
 and (c) of the Commercial Computer Software - Restricted
 Rights clause in FAR 52.227-19.
  
 Gaussian, Inc.
 340 Quinnipiac St., Bldg. 40, Wallingford CT 06492
  
  
 ---------------------------------------------------------------
 Warning -- This program may not be used in any manner that
 competes with the business of Gaussian, Inc. or will provide
 assistance to any competitor of Gaussian, Inc.  The licensee
 of this program is prohibited from giving any competitor of
 Gaussian, Inc. access to this program.  By using this program,
 the user acknowledges that Gaussian, Inc. is engaged in the
 business of creating and licensing software in the field of
 computational chemistry and represents and warrants to the
 licensee that it is not a competitor of Gaussian, Inc. and that
 it will not use this program in any manner prohibited above.
 ---------------------------------------------------------------
  

 Cite this work as:
 Gaussian 16, Revision C.02,
 M. J. Frisch, G. W. Trucks, H. B. Schlegel, G. E. Scuseria, 
 M. A. Robb, J. R. Cheeseman, G. Scalmani, V. Barone, 
 G. A. Petersson, H. Nakatsuji, X. Li, M. Caricato, A. V. Marenich, 
 J. Bloino, B. G. Janesko, R. Gomperts, B. Mennucci, H. P. Hratchian, 
 J. V. Ortiz, A. F. Izmaylov, J. L. Sonnenberg, D. Williams-Young, 
 F. Ding, F. Lipparini, F. Egidi, J. Goings, B. Peng, A. Petrone, 
 T. Henderson, D. Ranasinghe, V. G. Zakrzewski, J. Gao, N. Rega, 
 G. Zheng, W. Liang, M. Hada, M. Ehara, K. Toyota, R. Fukuda, 
 J. Hasegawa, M. Ishida, T. Nakajima, Y. Honda, O. Kitao, H. Nakai, 
 T. Vreven, K. Throssell, J. A. Montgomery, Jr., J. E. Peralta, 
 F. Ogliaro, M. J. Bearpark, J. J. Heyd, E. N. Brothers, K. N. Kudin, 
 V. N. Staroverov, T. A. Keith, R. Kobayashi, J. Normand, 
 K. Raghavachari, A. P. Rendell, J. C. Burant, S. S. Iyengar, 
 J. Tomasi, M. Cossi, J. M. Millam, M. Klene, C. Adamo, R. Cammi, 
 J. W. Ochterski, R. L. Martin, K. Morokuma, O. Farkas, 
 J. B. Foresman, and D. J. Fox, Gaussian, Inc., Wallingford CT, 2019.
 
 ******************************************
 Gaussian 16:  ES64L-G16RevC.02  7-Dec-2021
                31-Jul-2025 
 ******************************************
 SetLPE:    new flags="-opt 'Tsnet.Node.lindarsharg: ssh'  -nodelist 'n1' -env GAUSS_MDEF=2147483648 -env GAUSS_EXEDIR="/hpc/softwares/Gaussian/g16/bsd:/hpc/softwares/Gaussian/g16""
 Will use up to    1 processors via Linda.
 ----------------------------------------------------------
 # td=(50-50,nstates=3) b3lyp/6-31+g(d,p) geom=connectivity
 ----------------------------------------------------------
 1/38=1,57=2,172=1/1;
 2/12=2,17=6,18=5,40=1/2;
 3/5=1,6=6,7=111,11=9,25=1,30=1,74=-5/1,2,3,8;
 4//1;
 5/5=2,38=5/2;
 8/6=1,10=2,108=3/1;
 9/41=3,42=1,48=2,70=2/14;
 6/7=2,8=2,9=2,10=2/1;
 99/5=1,9=1/99;
 -------------------
 Title Card Required
 -------------------
 Symbolic Z-matrix:
 Charge =  0 Multiplicity = 1
 C                     5.904     0.94473  -0.49967 
 O                     4.71653   1.42289   0.12166 
 C                     3.61336   0.61769   0.13062 
 C                     2.47698   1.14343   0.76414 
 C                     1.30254   0.402     0.82379 
 C                     1.22082  -0.88453   0.25672 
 C                    -0.01602  -1.71795   0.34874 
 C                     0.0572   -2.94612   1.03044 
 C                    -1.04668  -3.7908    1.13876 
 C                    -2.25823  -3.42046   0.55287 
 C                    -2.34718  -2.21097  -0.13565 
 C                    -1.24593  -1.34985  -0.2433 
 C                    -1.38055  -0.03958  -1.02338 
 C                    -2.19924  -0.22492  -2.23819 
 N                    -2.83674  -0.34901  -3.2016 
 C                    -1.92272   1.16418  -0.22494 
 C                    -2.67323   1.01025   0.94493 
 C                    -3.15418   2.13218   1.62852 
 C                    -2.89109   3.41654   1.14954 
 C                    -2.14118   3.57608  -0.02004 
 C                    -1.66099   2.45688  -0.70057 
 C                     2.36802  -1.39566  -0.36504 
 C                     3.55653  -0.66104  -0.43726 
 H                     6.64045   1.74069  -0.38421 
 H                     6.2722    0.03435  -0.01037 
 H                     5.74524   0.74806  -1.56732 
 H                     2.53789   2.13158   1.20859 
 H                     0.43968   0.82151   1.33115 
 H                     1.00038  -3.22893   1.48879 
 H                    -0.95932  -4.73116   1.67519 
 H                    -3.12575  -4.07008   0.61982 
 H                    -3.28181  -1.93981  -0.61857 
 H                    -0.38157   0.23825  -1.37992 
 H                    -2.87923   0.01796   1.33171 
 H                    -3.73402   1.99704   2.53702 
 H                    -3.26472   4.28625   1.68192 
 H                    -1.92828   4.57048  -0.40144 
 H                    -1.07899   2.58825  -1.6094 
 H                     2.33354  -2.3839   -0.81529 
 H                     4.41595  -1.09307  -0.93592 
 
                          Input orientation:                          
 ---------------------------------------------------------------------
 Center     Atomic      Atomic             Coordinates (Angstroms)
 Number     Number       Type             X           Y           Z
 ---------------------------------------------------------------------
      1          6           0        5.903995    0.944733   -0.499666
      2          8           0        4.716527    1.422894    0.121659
      3          6           0        3.613362    0.617686    0.130620
      4          6           0        2.476980    1.143434    0.764143
      5          6           0        1.302542    0.402004    0.823788
      6          6           0        1.220821   -0.884526    0.256715
      7          6           0       -0.016020   -1.717950    0.348735
      8          6           0        0.057195   -2.946124    1.030442
      9          6           0       -1.046683   -3.790802    1.138761
     10          6           0       -2.258225   -3.420463    0.552874
     11          6           0       -2.347180   -2.210968   -0.135653
     12          6           0       -1.245930   -1.349851   -0.243297
     13          6           0       -1.380549   -0.039577   -1.023379
     14          6           0       -2.199244   -0.224919   -2.238188
     15          7           0       -2.836740   -0.349005   -3.201595
     16          6           0       -1.922716    1.164182   -0.224942
     17          6           0       -2.673231    1.010249    0.944929
     18          6           0       -3.154184    2.132177    1.628519
     19          6           0       -2.891085    3.416537    1.149535
     20          6           0       -2.141181    3.576078   -0.020044
     21          6           0       -1.660994    2.456875   -0.700574
     22          6           0        2.368016   -1.395664   -0.365041
     23          6           0        3.556527   -0.661043   -0.437255
     24          1           0        6.640450    1.740692   -0.384207
     25          1           0        6.272201    0.034349   -0.010369
     26          1           0        5.745242    0.748064   -1.567319
     27          1           0        2.537889    2.131578    1.208591
     28          1           0        0.439677    0.821514    1.331150
     29          1           0        1.000383   -3.228932    1.488790
     30          1           0       -0.959315   -4.731156    1.675189
     31          1           0       -3.125745   -4.070078    0.619819
     32          1           0       -3.281807   -1.939812   -0.618565
     33          1           0       -0.381566    0.238248   -1.379921
     34          1           0       -2.879225    0.017960    1.331706
     35          1           0       -3.734018    1.997036    2.537016
     36          1           0       -3.264718    4.286250    1.681917
     37          1           0       -1.928276    4.570479   -0.401440
     38          1           0       -1.078985    2.588250   -1.609402
     39          1           0        2.333540   -2.383903   -0.815285
     40          1           0        4.415949   -1.093073   -0.935918
 ---------------------------------------------------------------------
                    Distance matrix (angstroms):
                    1          2          3          4          5
     1  C    0.000000
     2  O    1.422942   0.000000
     3  C    2.398170   1.365801   0.000000
     4  C    3.658022   2.346584   1.403256   0.000000
     5  C    4.818657   3.631872   2.422166   1.390173   0.000000
     6  C    5.084331   4.190750   2.827860   2.438860   1.408336
     7  C    6.546468   5.684493   4.321479   3.817739   2.541355
     8  C    7.187842   6.451634   5.114367   4.759281   3.578206
     9  C    8.568644   7.837838   6.493623   6.074802   4.816398
    10  C    9.315826   8.502424   7.138661   6.579966   5.231033
    11  C    8.841541   7.947774   6.603048   5.944255   4.590057
    12  C    7.513472   6.585757   5.255829   4.592544   3.271449
    13  C    7.369377   6.373717   5.167481   4.413081   3.287248
    14  C    8.369769   7.490798   6.333058   5.723063   4.693744
    15  N    9.239839   8.440112   7.324067   6.796328   5.822489
    16  C    7.834605   6.653316   5.574338   4.509550   3.476067
    17  C    8.698273   7.446917   6.351256   5.155104   4.023855
    18  C    9.380288   8.044986   7.094862   5.782280   4.848041
    19  C    9.283486   7.931387   7.153991   5.842230   5.174942
    20  C    8.478141   7.189189   6.472214   5.278268   4.758784
    21  C    7.717253   6.512907   5.647330   4.581850   3.915191
    22  C    4.242491   3.700899   2.418707   2.780998   2.404196
    23  C    2.844823   2.449649   1.400307   2.421759   2.792982
    24  H    1.090526   2.014541   3.269473   4.360035   5.634235
    25  H    1.097172   2.089404   2.725726   4.029099   5.052573
    26  H    1.097162   2.089569   2.728536   4.034051   5.057147
    27  H    3.956945   2.535768   2.147215   1.085206   2.159996
    28  H    5.764186   4.485083   3.399279   2.139096   1.085330
    29  H    6.739351   6.108867   4.844456   4.671513   3.703677
    30  H    9.167919   8.514750   7.204525   6.866508   5.673642
    31  H   10.389311   9.587603   8.223747   7.654545   6.296892
    32  H    9.628795   8.707989   7.392255   6.676969   5.346096
    33  H    6.386098   5.445060   4.287792   3.686144   2.778375
    34  H    9.019855   7.818792   6.629929   5.502522   4.229970
    35  H   10.159728   8.807684   7.853492   6.515229   5.553937
    36  H    9.999517   8.621687   7.948136   6.609591   6.056700
    37  H    8.631347   7.371182   6.827694   5.701710   5.414384
    38  H    7.259110   6.159755   5.378561   4.512881   4.046203
    39  H    4.891583   4.587831   3.397384   3.867464   3.392756
    40  H    2.560713   2.745707   2.169872   3.413469   3.876225
                    6          7          8          9         10
     6  C    0.000000
     7  C    1.494269   0.000000
     8  C    2.490555   1.406590   0.000000
     9  C    3.790253   2.446042   1.394188   0.000000
    10  C    4.315373   2.822713   2.411273   1.395797   0.000000
    11  C    3.826752   2.431462   2.771507   2.410664   1.394583
    12  C    2.559570   1.413746   2.422526   2.812121   2.438455
    13  C    3.019885   2.561557   3.838399   4.342580   3.832138
    14  C    4.284445   3.699700   4.814604   5.044572   4.243231
    15  N    5.358217   4.736593   5.747175   5.821423   4.885138
    16  C    3.782991   3.503039   4.731876   5.213347   4.662246
    17  C    4.384912   3.854775   4.807850   5.072802   4.467342
    18  C    5.488443   5.129269   6.038194   6.305799   5.726392
    19  C    6.016979   5.938875   7.013558   7.439601   6.892103
    20  C    5.592552   5.716558   6.962435   7.537352   7.020934
    21  C    4.515110   4.608270   5.927983   6.541712   6.039116
    22  C    1.401392   2.509377   3.113068   4.433765   5.132688
    23  C    2.446847   3.807614   4.429566   5.785219   6.511996
    24  H    6.055983   7.537108   8.204067   9.592125  10.329669
    25  H    5.141216   6.537678   6.970854   8.337766   9.220691
    26  H    5.144204   6.553215   7.262869   8.605488   9.269699
    27  H    3.426021   4.699007   5.654081   6.923050   7.365992
    28  H    2.162214   2.760738   3.798923   4.849715   5.087117
    29  H    2.657601   2.148457   1.086125   2.151441   3.395755
    30  H    4.643450   3.424718   2.152982   1.086119   2.159786
    31  H    5.401132   3.908501   3.400440   2.160971   1.085851
    32  H    4.706740   3.413247   3.857567   3.392659   2.147631
    33  H    2.550851   2.636017   4.017784   4.797852   4.543535
    34  H    4.333643   3.489636   4.183195   4.231088   3.579801
    35  H    6.168760   5.693260   6.409204   6.532684   5.955173
    36  H    6.992009   6.955705   7.985409   8.393656   7.853737
    37  H    6.333013   6.615423   7.905169   8.547540   8.054485
    38  H    4.564173   4.848459   6.236103   6.945916   6.493895
    39  H    2.153012   2.705341   2.984049   4.150129   4.902104
    40  H    3.416827   4.656517   5.128265   6.436022   7.223423
                   11         12         13         14         15
    11  C    0.000000
    12  C    1.402092   0.000000
    13  C    2.537198   1.530839   0.000000
    14  C    2.896020   2.480699   1.476609   0.000000
    15  N    3.620300   3.504839   2.638345   1.161874   0.000000
    16  C    3.402908   2.603601   1.542881   2.461550   3.462028
    17  C    3.413240   3.003189   2.578255   3.447106   4.366688
    18  C    4.756729   4.389721   3.859386   4.628092   5.439397
    19  C    5.797961   5.231154   4.352930   5.021505   5.754528
    20  C    5.791865   5.011596   3.828603   4.401263   5.100230
    21  C    4.751710   3.856494   2.532810   3.137832   3.938331
    22  C    4.790659   3.616286   4.040312   5.073380   6.019221
    23  C    6.111218   4.855478   5.010437   6.046690   6.972288
    24  H    9.821145   8.471499   8.241015   9.243433  10.105525
    25  H    8.907911   7.648043   7.719860   8.763320   9.659384
    26  H    8.734577   7.418273   7.189795   8.031913   8.804819
    27  H    6.672975   5.342809   5.004974   6.314570   7.381712
    28  H    4.371960   3.167804   3.098146   4.560603   5.714088
    29  H    3.857622   3.402498   4.706572   5.757784   6.709486
    30  H    3.399510   3.898200   5.428685   6.095746   6.819897
    31  H    2.152485   3.417354   4.689429   4.879739   5.341640
    32  H    1.086396   2.152597   2.718373   2.595377   3.066072
    33  H    3.377943   2.135673   1.096483   2.062789   3.113076
    34  H    2.721091   2.649376   2.792090   3.642184   4.548328
    35  H    5.174338   5.012223   4.728956   5.485908   6.264238
    36  H    6.808765   6.288687   5.438888   6.070676   6.746662
    37  H    6.799570   5.961620   4.683954   5.142267   5.733018
    38  H    5.178103   4.171661   2.709214   3.092616   3.775215
    39  H    4.732964   3.769488   4.397002   5.218428   6.047072
    40  H    6.901451   5.709863   5.892104   6.797821   7.634686
                   16         17         18         19         20
    16  C    0.000000
    17  C    1.398416   0.000000
    18  C    2.426694   1.399047   0.000000
    19  C    2.810699   2.424777   1.395789   0.000000
    20  C    2.430422   2.792441   2.414288   1.398472   0.000000
    21  C    1.402063   2.413510   2.785627   2.420119   1.395104
    22  C    4.998282   5.737474   6.849426   7.287617   6.720870
    23  C    5.779155   6.596479   7.556662   7.792064   7.112745
    24  H    8.584028   9.436355  10.006957   9.798519   8.978769
    25  H    8.275218   9.049073   9.795079   9.836177   9.128468
    26  H    7.795685   8.789244   9.556617   9.438654   8.519823
    27  H    4.784127   5.336916   5.707542   5.579280   5.048744
    28  H    2.849517   3.142449   3.836939   4.226240   4.009261
    29  H    5.548048   5.635768   6.783910   7.708494   7.645532
    30  H    6.268465   6.036101   7.205898   8.390051   8.560418
    31  H    5.436762   5.110791   6.283809   7.508999   7.735793
    32  H    3.411282   3.393779   4.652609   5.654141   5.664300
    33  H    2.136931   3.354496   4.508335   4.774657   4.010813
    34  H    2.156823   1.084743   2.152583   3.403477   3.877130
    35  H    3.406299   2.152617   1.086203   2.156530   3.401332
    36  H    3.896715   3.409573   2.157568   1.086017   2.159479
    37  H    3.410871   3.878518   3.401309   2.159654   1.086105
    38  H    2.157911   3.399458   3.872801   3.403160   2.151772
    39  H    5.572533   6.299712   7.515469   8.049989   7.495126
    40  H    6.766045   7.630074   8.618903   8.836201   8.101589
                   21         22         23         24         25
    21  C    0.000000
    22  C    5.584582   0.000000
    23  C    6.083854   1.399086   0.000000
    24  H    8.338284   5.300074   3.909185   0.000000
    25  H    8.323497   4.172935   2.835611   1.785208   0.000000
    26  H    7.650073   4.176924   2.837799   1.785066   1.791973
    27  H    4.623997   3.866085   3.397818   4.418235   4.453012
    28  H    3.348899   3.392850   3.878142   6.498994   6.036360
    29  H    6.648657   2.944144   4.103361   7.746976   6.378757
    30  H    7.602920   5.134119   6.435920  10.192269   8.823036
    31  H    6.818361   6.189010   7.575730  11.408404  10.274476
    32  H    4.686642   5.681626   6.959234  10.585472   9.774778
    33  H    2.649671   3.355570   4.148002   7.249655   6.796312
    34  H    3.400376   5.693050   6.708888   9.825293   9.249326
    35  H    3.871804   7.560897   8.310458  10.780948  10.510268
    36  H    3.405115   8.258443   8.688842  10.433652  10.578058
    37  H    2.151335   7.352164   7.579787   9.023916   9.379618
    38  H    1.087181   5.413116   5.780987   7.861879   7.944763
    39  H    6.277148   1.086519   2.146357   5.978928   4.691363
    40  H    7.041786   2.147438   1.083476   3.644587   2.360803
                   26         27         28         29         30
    26  H    0.000000
    27  H    4.461715   0.000000
    28  H    6.046118   2.476647   0.000000
    29  H    6.904345   5.583682   4.092109   0.000000
    30  H    9.245907   7.716558   5.736522   2.476255   0.000000
    31  H   10.329205   8.419260   6.094743   4.299717   2.498850
    32  H    9.466384   7.333729   5.027500   4.943675   4.294983
    33  H    6.150838   4.336855   2.892152   4.707507   5.861951
    34  H    9.127915   5.816155   3.414793   5.061456   5.134018
    35  H   10.404896   6.412459   4.500633   7.129100   7.328730
    36  H   10.210567   6.207809   5.084287   8.643283   9.307445
    37  H    8.651763   5.337328   4.760652   8.542882   9.579754
    38  H    7.068107   4.607756   3.751605   6.911018   8.023501
    39  H    4.691959   4.952515   4.297511   2.792874   4.749205
    40  H    2.357005   4.303998   4.961449   4.701829   6.996213
                   31         32         33         34         35
    31  H    0.000000
    32  H    2.469005   0.000000
    33  H    5.485540   3.706077   0.000000
    34  H    4.156875   2.792580   3.693203   0.000000
    35  H    6.391832   5.065665   5.447446   2.469855   0.000000
    36  H    8.424701   6.637496   5.837271   4.299948   2.488360
    37  H    8.782718   6.653050   4.702974   4.963218   4.303236
    38  H    7.313821   5.132010   2.462024   4.300857   4.958983
    39  H    5.891222   5.636314   3.816581   6.127923   8.200354
    40  H    8.255908   7.750686   4.998570   7.719850   9.382537
                   36         37         38         39         40
    36  H    0.000000
    37  H    2.491433   0.000000
    38  H    4.300397   2.471781   0.000000
    39  H    9.059109   8.166870   6.082619   0.000000
    40  H    9.735647   8.521190   6.648310   2.453003   0.000000
 Stoichiometry    C21H17NO
 Framework group  C1[X(C21H17NO)]
 Deg. of freedom   114
 Full point group                 C1      NOp   1
 Largest Abelian subgroup         C1      NOp   1
 Largest concise Abelian subgroup C1      NOp   1
                         Standard orientation:                         
 ---------------------------------------------------------------------
 Center     Atomic      Atomic             Coordinates (Angstroms)
 Number     Number       Type             X           Y           Z
 ---------------------------------------------------------------------
      1          6           0        5.903995   -0.944733    0.499666
      2          8           0        4.716527   -1.422894   -0.121659
      3          6           0        3.613362   -0.617686   -0.130620
      4          6           0        2.476980   -1.143434   -0.764143
      5          6           0        1.302542   -0.402004   -0.823788
      6          6           0        1.220821    0.884526   -0.256715
      7          6           0       -0.016020    1.717950   -0.348735
      8          6           0        0.057195    2.946124   -1.030442
      9          6           0       -1.046683    3.790802   -1.138761
     10          6           0       -2.258225    3.420463   -0.552874
     11          6           0       -2.347180    2.210968    0.135653
     12          6           0       -1.245930    1.349851    0.243297
     13          6           0       -1.380549    0.039577    1.023379
     14          6           0       -2.199244    0.224919    2.238188
     15          7           0       -2.836740    0.349005    3.201595
     16          6           0       -1.922716   -1.164182    0.224942
     17          6           0       -2.673231   -1.010249   -0.944929
     18          6           0       -3.154184   -2.132177   -1.628519
     19          6           0       -2.891085   -3.416537   -1.149535
     20          6           0       -2.141181   -3.576078    0.020044
     21          6           0       -1.660994   -2.456875    0.700574
     22          6           0        2.368016    1.395664    0.365041
     23          6           0        3.556527    0.661043    0.437255
     24          1           0        6.640450   -1.740692    0.384207
     25          1           0        6.272201   -0.034349    0.010369
     26          1           0        5.745242   -0.748064    1.567319
     27          1           0        2.537889   -2.131578   -1.208591
     28          1           0        0.439677   -0.821514   -1.331150
     29          1           0        1.000383    3.228932   -1.488790
     30          1           0       -0.959315    4.731156   -1.675189
     31          1           0       -3.125745    4.070078   -0.619819
     32          1           0       -3.281807    1.939812    0.618565
     33          1           0       -0.381566   -0.238248    1.379921
     34          1           0       -2.879225   -0.017960   -1.331706
     35          1           0       -3.734018   -1.997036   -2.537016
     36          1           0       -3.264718   -4.286250   -1.681917
     37          1           0       -1.928276   -4.570479    0.401440
     38          1           0       -1.078985   -2.588250    1.609402
     39          1           0        2.333540    2.383903    0.815285
     40          1           0        4.415949    1.093073    0.935918
 ---------------------------------------------------------------------
 Rotational constants (GHZ):           0.3209416           0.1921653           0.1456432
 Standard basis: 6-31+G(d,p) (6D, 7F)
 There are   522 symmetry adapted cartesian basis functions of A   symmetry.
 There are   522 symmetry adapted basis functions of A   symmetry.
   522 basis functions,   855 primitive gaussians,   522 cartesian basis functions
    79 alpha electrons       79 beta electrons
       nuclear repulsion energy      1730.2160050535 Hartrees.
 NAtoms=   40 NActive=   40 NUniq=   40 SFac= 1.00D+00 NAtFMM=   60 NAOKFM=F Big=F
 Integral buffers will be    131072 words long.
 Regular integral format.
 Two-electron integral symmetry is turned on.
 One-electron integrals computed using PRISM.
 NBasis=   522 RedAO= T EigKep=  1.22D-06  NBF=   522
 NBsUse=   519 1.00D-06 EigRej=  9.91D-07 NBFU=   519
 ExpMin= 4.38D-02 ExpMax= 5.48D+03 ExpMxC= 8.25D+02 IAcc=3 IRadAn=         5 AccDes= 0.00D+00
 Harris functional with IExCor=  402 and IRadAn=       5 diagonalized for initial guess.
 HarFok:  IExCor=  402 AccDes= 0.00D+00 IRadAn=         5 IDoV= 1 UseB2=F ITyADJ=14
 ICtDFT=  3500011 ScaDFX=  1.000000  1.000000  1.000000  1.000000
 FoFCou: FMM=F IPFlag=           0 FMFlag=      100000 FMFlg1=           0
         NFxFlg=           0 DoJE=T BraDBF=F KetDBF=T FulRan=T
         wScrn=  0.000000 ICntrl=       500 IOpCl=  0 I1Cent=   200000004 NGrid=           0
         NMat0=    1 NMatS0=      1 NMatT0=    0 NMatD0=    1 NMtDS0=    0 NMtDT0=    0
 Petite list used in FoFCou.
 Requested convergence on RMS density matrix=1.00D-08 within 128 cycles.
 Requested convergence on MAX density matrix=1.00D-06.
 Requested convergence on             energy=1.00D-06.
 No special actions if energy rises.
 SCF Done:  E(RB3LYP) =  -940.482834893     A.U. after   17 cycles
            NFock= 17  Conv=0.33D-08     -V/T= 2.0097
 DoSCS=F DFT=T ScalE2(SS,OS)=  1.000000  1.000000
 ExpMin= 4.38D-02 ExpMax= 5.48D+03 ExpMxC= 8.25D+02 IAcc=3 IRadAn=         5 AccDes= 0.00D+00
 HarFok:  IExCor=  205 AccDes= 0.00D+00 IRadAn=         5 IDoV=-2 UseB2=F ITyADJ=14
 ICtDFT= 12500011 ScaDFX=  1.000000  1.000000  1.000000  1.000000
 GSVD:  LWork=        -713 too small for GESVD, short by        2990 words or        2990 for optimal perf.
 Range of M.O.s used for correlation:    24   519
 NBasis=   522 NAE=    79 NBE=    79 NFC=    23 NFV=     0
 NROrb=    496 NOA=    56 NOB=    56 NVA=   440 NVB=   440

 **** Warning!!: The largest alpha MO coefficient is  0.16731717D+03

 Orbital symmetries:
       Occupied  (A) (A) (A) (A) (A) (A) (A) (A) (A) (A) (A) (A)
                 (A) (A) (A) (A) (A) (A) (A) (A) (A) (A) (A) (A)
                 (A) (A) (A) (A) (A) (A) (A) (A) (A) (A) (A) (A)
                 (A) (A) (A) (A) (A) (A) (A) (A) (A) (A) (A) (A)
                 (A) (A) (A) (A) (A) (A) (A) (A) (A) (A) (A) (A)
                 (A) (A) (A) (A) (A) (A) (A) (A) (A) (A) (A) (A)
                 (A) (A) (A) (A) (A) (A) (A)
       Virtual   (A) (A) (A) (A) (A) (A) (A) (A) (A) (A) (A) (A)
                 (A) (A) (A) (A) (A) (A) (A) (A) (A) (A) (A) (A)
                 (A) (A) (A) (A) (A) (A) (A) (A) (A) (A) (A) (A)
                 (A) (A) (A) (A) (A) (A) (A) (A) (A) (A) (A) (A)
                 (A) (A) (A) (A) (A) (A) (A) (A) (A) (A) (A) (A)
                 (A) (A) (A) (A) (A) (A) (A) (A) (A) (A) (A) (A)
                 (A) (A) (A) (A) (A) (A) (A) (A) (A) (A) (A) (A)
                 (A) (A) (A) (A) (A) (A) (A) (A) (A) (A) (A) (A)
                 (A) (A) (A) (A) (A) (A) (A) (A) (A) (A) (A) (A)
                 (A) (A) (A) (A) (A) (A) (A) (A) (A) (A) (A) (A)
                 (A) (A) (A) (A) (A) (A) (A) (A) (A) (A) (A) (A)
                 (A) (A) (A) (A) (A) (A) (A) (A) (A) (A) (A) (A)
                 (A) (A) (A) (A) (A) (A) (A) (A) (A) (A) (A) (A)
                 (A) (A) (A) (A) (A) (A) (A) (A) (A) (A) (A) (A)
                 (A) (A) (A) (A) (A) (A) (A) (A) (A) (A) (A) (A)
                 (A) (A) (A) (A) (A) (A) (A) (A) (A) (A) (A) (A)
                 (A) (A) (A) (A) (A) (A) (A) (A) (A) (A) (A) (A)
                 (A) (A) (A) (A) (A) (A) (A) (A) (A) (A) (A) (A)
                 (A) (A) (A) (A) (A) (A) (A) (A) (A) (A) (A) (A)
                 (A) (A) (A) (A) (A) (A) (A) (A) (A) (A) (A) (A)
                 (A) (A) (A) (A) (A) (A) (A) (A) (A) (A) (A) (A)
                 (A) (A) (A) (A) (A) (A) (A) (A) (A) (A) (A) (A)
                 (A) (A) (A) (A) (A) (A) (A) (A) (A) (A) (A) (A)
                 (A) (A) (A) (A) (A) (A) (A) (A) (A) (A) (A) (A)
                 (A) (A) (A) (A) (A) (A) (A) (A) (A) (A) (A) (A)
                 (A) (A) (A) (A) (A) (A) (A) (A) (A) (A) (A) (A)
                 (A) (A) (A) (A) (A) (A) (A) (A) (A) (A) (A) (A)
                 (A) (A) (A) (A) (A) (A) (A) (A) (A) (A) (A) (A)
                 (A) (A) (A) (A) (A) (A) (A) (A) (A) (A) (A) (A)
                 (A) (A) (A) (A) (A) (A) (A) (A) (A) (A) (A) (A)
                 (A) (A) (A) (A) (A) (A) (A) (A) (A) (A) (A) (A)
                 (A) (A) (A) (A) (A) (A) (A) (A) (A) (A) (A) (A)
                 (A) (A) (A) (A) (A) (A) (A) (A) (A) (A) (A) (A)
                 (A) (A) (A) (A) (A) (A) (A) (A) (A) (A) (A) (A)
                 (A) (A) (A) (A) (A) (A) (A) (A) (A) (A) (A) (A)
                 (A) (A) (A) (A) (A) (A) (A) (A) (A) (A) (A) (A)
                 (A) (A) (A) (A) (A) (A) (A) (A)
    24 initial guesses have been made.
 Convergence on wavefunction:    0.001000000000000
 Iteration     1 Dimension    24 NMult     0 NNew     24
 CISAX will form    24 AO SS matrices at one time.
 New state      1 was old state      4
 New state      3 was old state      6
 New state      4 was old state      1
 New state      5 was old state     14
 New state      6 was old state      3
 New state      7 was old state     12
 New state      9 was old state     10
 New state     10 was old state      5
 New state     11 was old state      7
 New state     12 was old state     20
 Vector   5 SDiff=3.90D+00 TDiff=1.35D+01 assumed to be singlet.
 Vector  11 SDiff=3.88D+00 TDiff=1.24D+01 assumed to be singlet.
 Iteration     2 Dimension    36 NMult    24 NNew     12
 New state      5 was old state      6
 New state      6 was old state     10
 Iteration     3 Dimension    48 NMult    36 NNew     12
 Iteration     4 Dimension    60 NMult    48 NNew     12
 New state      2 was old state      3
 New state      3 was old state      2
 Iteration     5 Dimension    72 NMult    60 NNew     12
 New state      2 was old state      3
 New state      3 was old state      2
 Iteration     6 Dimension    84 NMult    72 NNew     12
 Iteration     7 Dimension    96 NMult    84 NNew     12
 Iteration     8 Dimension   100 NMult    96 NNew      4
 Iteration     9 Dimension   102 NMult   100 NNew      2
 ***********************************************************************
 Excited states from <AA,BB:AA,BB> singles matrix:
 ***********************************************************************
 
 Ground to excited state transition densities written to RWF  633
 Ground to excited state transition electric dipole moments (Au):
       state          X           Y           Z        Dip. S.      Osc.
         1         0.0000     -0.0000     -0.0000      0.0000      0.0000
         2         0.0000     -0.0000     -0.0000      0.0000      0.0000
         3        -0.0000     -0.0000      0.0000      0.0000      0.0000
         4        -0.3861     -0.3203     -0.0776      0.2577      0.0292
         5         1.2198     -0.5511      0.0671      1.7963      0.2087
         6         0.2618      0.0345      0.1681      0.0980      0.0117
 Ground to excited state transition velocity dipole moments (Au):
       state          X           Y           Z        Dip. S.      Osc.
         1        -0.0000      0.0000     -0.0000      0.0000      0.0000
         2        -0.0000      0.0000     -0.0000      0.0000      0.0000
         3        -0.0000      0.0000     -0.0000      0.0000      0.0000
         4         0.0663      0.0526      0.0120      0.0073      0.0286
         5        -0.2078      0.0936     -0.0106      0.0521      0.1992
         6        -0.0467     -0.0079     -0.0331      0.0033      0.0124
 Ground to excited state transition magnetic dipole moments (Au):
       state          X           Y           Z
         1         0.0000     -0.0000     -0.0000
         2         0.0000      0.0000      0.0000
         3        -0.0000     -0.0000     -0.0000
         4        -0.0508     -0.1722     -0.2258
         5         0.1947      0.1067      0.7978
         6        -0.0542      0.0391     -0.2186
 Ground to excited state transition velocity quadrupole moments (Au):
       state          XX          YY          ZZ          XY          XZ          YZ
         1         0.0000      0.0000     -0.0000     -0.0000      0.0000      0.0000
         2        -0.0000      0.0000      0.0000     -0.0000      0.0000      0.0000
         3        -0.0000      0.0000      0.0000      0.0000      0.0000     -0.0000
         4         0.2562      0.0131     -0.0186      0.1351      0.1404     -0.0952
         5        -1.0283      0.6292      0.0815     -0.0496     -0.0398     -0.1213
         6        -0.4113      0.1737      0.0392     -0.2618     -0.1534     -0.0343
 <0|del|b> * <b|rxdel|0> + <0|del|b> * <b|delr+rdel|0>
 Rotatory Strengths (R) in cgs (10**-40 erg-esu-cm/Gauss)
       state          XX          YY          ZZ    R(velocity)    E-M Angle
         1        -0.0000      0.0000     -0.0000     -0.0000       90.00
         2        -0.0000     -0.0000      0.0000     -0.0000       90.00
         3        -0.0000      0.0000     -0.0000      0.0000       90.00
         4       -36.4131    -29.0859      2.6343    -20.9549      127.87
         5        11.7262    -49.2077   -120.5427    -52.6748      101.89
         6        28.3978      5.3487      3.6284     12.4583       44.29
 1/2[<0|r|b>*<b|rxdel|0> + (<0|rxdel|b>*<b|r|0>)*]
 Rotatory Strengths (R) in cgs (10**-40 erg-esu-cm/Gauss)
       state          XX          YY          ZZ     R(length)
         1        -0.0000     -0.0000     -0.0000     -0.0000
         2        -0.0000      0.0000      0.0000      0.0000
         3        -0.0000     -0.0000      0.0000      0.0000
         4       -13.8696    -39.0036    -12.3891    -21.7541
         5      -167.9528     41.5877    -37.8536    -54.7396
         6        10.0413     -0.9540     25.9903     11.6925
  1/2[<0|del|b>*<b|r|0> + (<0|r|b>*<b|del|0>)*] (Au)
       state          X           Y           Z        Dip. S.   Osc.(frdel)
         1        -0.0000     -0.0000      0.0000      0.0000      0.0000
         2        -0.0000     -0.0000      0.0000      0.0000      0.0000
         3         0.0000     -0.0000     -0.0000      0.0000      0.0000
         4        -0.0256     -0.0168     -0.0009      0.0434      0.0289
         5        -0.2535     -0.0516     -0.0007      0.3058      0.2039
         6        -0.0122     -0.0003     -0.0056      0.0181      0.0120

 Excitation energies and oscillator strengths:
 
 Excited State   1:      Triplet-A      3.4753 eV  356.76 nm  f=0.0000  <S**2>=2.000
      74 -> 81        -0.12761
      74 -> 86        -0.10343
      75 -> 84        -0.15335
      77 -> 80         0.21657
      77 -> 83        -0.12628
      78 -> 84         0.10217
      79 -> 80        -0.13567
      79 -> 81         0.46845
      79 -> 83        -0.11777
      79 -> 86        -0.15270
 This state for optimization and/or second-order correction.
 Total Energy, E(TD-HF/TD-DFT) =  -940.355120640    
 Copying the excited state density for this state as the 1-particle RhoCI density.
 
 Excited State   2:      Triplet-A      3.7030 eV  334.82 nm  f=0.0000  <S**2>=2.000
      74 -> 82        -0.17286
      75 -> 80         0.14892
      75 -> 83         0.16198
      76 -> 80        -0.16155
      76 -> 82        -0.29817
      76 -> 84        -0.17869
      77 -> 80         0.11325
      77 -> 82         0.11466
      78 -> 80         0.21408
      78 -> 81         0.19289
      78 -> 83         0.30076
 
 Excited State   3:      Triplet-A      3.7404 eV  331.47 nm  f=0.0000  <S**2>=2.000
      74 -> 81        -0.22143
      74 -> 83         0.12780
      75 -> 80         0.19823
      75 -> 81        -0.11040
      75 -> 83        -0.10901
      76 -> 81         0.13046
      77 -> 80         0.13231
      77 -> 82         0.11962
      77 -> 84        -0.24154
      78 -> 80        -0.20224
      78 -> 81         0.16318
      79 -> 80         0.12713
      79 -> 84         0.13532
      79 -> 85        -0.14079
      79 -> 86         0.23872
 
 Excited State   4:      Singlet-A      4.6311 eV  267.72 nm  f=0.0292  <S**2>=0.000
      77 -> 81        -0.16391
      79 -> 80         0.66135
      79 -> 83        -0.10764
 
 Excited State   5:      Singlet-A      4.7415 eV  261.48 nm  f=0.2087  <S**2>=0.000
      79 -> 81         0.68833
 
 Excited State   6:      Singlet-A      4.8699 eV  254.59 nm  f=0.0117  <S**2>=0.000
      75 -> 81        -0.13013
      79 -> 80         0.10309
      79 -> 82         0.61401
      79 -> 83         0.11049
      79 -> 84        -0.19780
 SavETr:  write IOETrn=   770 NScale= 10 NData=  16 NLR=1 NState=    6 LETran=     118.

 **********************************************************************

            Population analysis using the SCF Density.

 **********************************************************************

 Orbital symmetries:
       Occupied  (A) (A) (A) (A) (A) (A) (A) (A) (A) (A) (A) (A)
                 (A) (A) (A) (A) (A) (A) (A) (A) (A) (A) (A) (A)
                 (A) (A) (A) (A) (A) (A) (A) (A) (A) (A) (A) (A)
                 (A) (A) (A) (A) (A) (A) (A) (A) (A) (A) (A) (A)
                 (A) (A) (A) (A) (A) (A) (A) (A) (A) (A) (A) (A)
                 (A) (A) (A) (A) (A) (A) (A) (A) (A) (A) (A) (A)
                 (A) (A) (A) (A) (A) (A) (A)
       Virtual   (A) (A) (A) (A) (A) (A) (A) (A) (A) (A) (A) (A)
                 (A) (A) (A) (A) (A) (A) (A) (A) (A) (A) (A) (A)
                 (A) (A) (A) (A) (A) (A) (A) (A) (A) (A) (A) (A)
                 (A) (A) (A) (A) (A) (A) (A) (A) (A) (A) (A) (A)
                 (A) (A) (A) (A) (A) (A) (A) (A) (A) (A) (A) (A)
                 (A) (A) (A) (A) (A) (A) (A) (A) (A) (A) (A) (A)
                 (A) (A) (A) (A) (A) (A) (A) (A) (A) (A) (A) (A)
                 (A) (A) (A) (A) (A) (A) (A) (A) (A) (A) (A) (A)
                 (A) (A) (A) (A) (A) (A) (A) (A) (A) (A) (A) (A)
                 (A) (A) (A) (A) (A) (A) (A) (A) (A) (A) (A) (A)
                 (A) (A) (A) (A) (A) (A) (A) (A) (A) (A) (A) (A)
                 (A) (A) (A) (A) (A) (A) (A) (A) (A) (A) (A) (A)
                 (A) (A) (A) (A) (A) (A) (A) (A) (A) (A) (A) (A)
                 (A) (A) (A) (A) (A) (A) (A) (A) (A) (A) (A) (A)
                 (A) (A) (A) (A) (A) (A) (A) (A) (A) (A) (A) (A)
                 (A) (A) (A) (A) (A) (A) (A) (A) (A) (A) (A) (A)
                 (A) (A) (A) (A) (A) (A) (A) (A) (A) (A) (A) (A)
                 (A) (A) (A) (A) (A) (A) (A) (A) (A) (A) (A) (A)
                 (A) (A) (A) (A) (A) (A) (A) (A) (A) (A) (A) (A)
                 (A) (A) (A) (A) (A) (A) (A) (A) (A) (A) (A) (A)
                 (A) (A) (A) (A) (A) (A) (A) (A) (A) (A) (A) (A)
                 (A) (A) (A) (A) (A) (A) (A) (A) (A) (A) (A) (A)
                 (A) (A) (A) (A) (A) (A) (A) (A) (A) (A) (A) (A)
                 (A) (A) (A) (A) (A) (A) (A) (A) (A) (A) (A) (A)
                 (A) (A) (A) (A) (A) (A) (A) (A) (A) (A) (A) (A)
                 (A) (A) (A) (A) (A) (A) (A) (A) (A) (A) (A) (A)
                 (A) (A) (A) (A) (A) (A) (A) (A) (A) (A) (A) (A)
                 (A) (A) (A) (A) (A) (A) (A) (A) (A) (A) (A) (A)
                 (A) (A) (A) (A) (A) (A) (A) (A) (A) (A) (A) (A)
                 (A) (A) (A) (A) (A) (A) (A) (A) (A) (A) (A) (A)
                 (A) (A) (A) (A) (A) (A) (A) (A) (A) (A) (A) (A)
                 (A) (A) (A) (A) (A) (A) (A) (A) (A) (A) (A) (A)
                 (A) (A) (A) (A) (A) (A) (A) (A) (A) (A) (A) (A)
                 (A) (A) (A) (A) (A) (A) (A) (A) (A) (A) (A) (A)
                 (A) (A) (A) (A) (A) (A) (A) (A) (A) (A) (A) (A)
                 (A) (A) (A) (A) (A) (A) (A) (A) (A) (A) (A) (A)
                 (A) (A) (A) (A) (A) (A) (A) (A)
 The electronic state is 1-A.
 Alpha  occ. eigenvalues --  -19.19732 -14.33933 -10.26454 -10.25363 -10.25277
 Alpha  occ. eigenvalues --  -10.23262 -10.22304 -10.22263 -10.21855 -10.20945
 Alpha  occ. eigenvalues --  -10.20786 -10.20711 -10.20674 -10.20645 -10.20628
 Alpha  occ. eigenvalues --  -10.20586 -10.20579 -10.20533 -10.20531 -10.20523
 Alpha  occ. eigenvalues --  -10.20508 -10.20490 -10.20030  -1.07997  -0.91193
 Alpha  occ. eigenvalues --   -0.88681  -0.87249  -0.86080  -0.81782  -0.79139
 Alpha  occ. eigenvalues --   -0.76376  -0.76226  -0.75769  -0.74779  -0.71982
 Alpha  occ. eigenvalues --   -0.70300  -0.63468  -0.62770  -0.61874  -0.61473
 Alpha  occ. eigenvalues --   -0.60606  -0.58607  -0.54885  -0.53707  -0.53080
 Alpha  occ. eigenvalues --   -0.51405  -0.49581  -0.49086  -0.48121  -0.47870
 Alpha  occ. eigenvalues --   -0.46696  -0.45851  -0.45795  -0.44567  -0.43866
 Alpha  occ. eigenvalues --   -0.43542  -0.43477  -0.42897  -0.42776  -0.40112
 Alpha  occ. eigenvalues --   -0.39242  -0.38177  -0.37960  -0.37406  -0.36925
 Alpha  occ. eigenvalues --   -0.36502  -0.36141  -0.35488  -0.35292  -0.34049
 Alpha  occ. eigenvalues --   -0.33553  -0.32671  -0.32512  -0.27130  -0.27013
 Alpha  occ. eigenvalues --   -0.26629  -0.26351  -0.25979  -0.23052
 Alpha virt. eigenvalues --   -0.03701  -0.03638  -0.02910  -0.02457  -0.01674
 Alpha virt. eigenvalues --   -0.00614  -0.00285   0.00162   0.00745   0.01444
 Alpha virt. eigenvalues --    0.01887   0.02193   0.02457   0.02896   0.03233
 Alpha virt. eigenvalues --    0.03588   0.03736   0.03946   0.04225   0.04488
 Alpha virt. eigenvalues --    0.04936   0.05072   0.05706   0.06630   0.06693
 Alpha virt. eigenvalues --    0.07181   0.07541   0.07640   0.08648   0.08938
 Alpha virt. eigenvalues --    0.09376   0.09469   0.09940   0.10270   0.10802
 Alpha virt. eigenvalues --    0.11235   0.11486   0.11545   0.11906   0.12370
 Alpha virt. eigenvalues --    0.12826   0.13029   0.13226   0.13344   0.13585
 Alpha virt. eigenvalues --    0.13976   0.14640   0.14832   0.14974   0.15317
 Alpha virt. eigenvalues --    0.15526   0.15658   0.15992   0.16918   0.16996
 Alpha virt. eigenvalues --    0.17501   0.17715   0.17886   0.18053   0.18283
 Alpha virt. eigenvalues --    0.18685   0.18967   0.19149   0.19692   0.20251
 Alpha virt. eigenvalues --    0.20424   0.20696   0.21011   0.21083   0.21315
 Alpha virt. eigenvalues --    0.21665   0.21942   0.22172   0.22221   0.22398
 Alpha virt. eigenvalues --    0.22779   0.23174   0.23440   0.23759   0.24179
 Alpha virt. eigenvalues --    0.24347   0.24532   0.24770   0.25227   0.25403
 Alpha virt. eigenvalues --    0.25813   0.26204   0.26240   0.26486   0.26864
 Alpha virt. eigenvalues --    0.27051   0.27630   0.27847   0.28102   0.28185
 Alpha virt. eigenvalues --    0.28529   0.28553   0.29246   0.29693   0.29858
 Alpha virt. eigenvalues --    0.29990   0.30586   0.30618   0.30699   0.31012
 Alpha virt. eigenvalues --    0.31190   0.31440   0.31739   0.32132   0.32427
 Alpha virt. eigenvalues --    0.32559   0.33458   0.33732   0.33950   0.34350
 Alpha virt. eigenvalues --    0.34583   0.34790   0.35480   0.36110   0.36323
 Alpha virt. eigenvalues --    0.36993   0.37486   0.37832   0.38624   0.38936
 Alpha virt. eigenvalues --    0.39343   0.39951   0.41412   0.42161   0.42213
 Alpha virt. eigenvalues --    0.43319   0.43654   0.45232   0.47376   0.48101
 Alpha virt. eigenvalues --    0.55723   0.56609   0.57720   0.59813   0.60511
 Alpha virt. eigenvalues --    0.61256   0.65930   0.66897   0.67293   0.67788
 Alpha virt. eigenvalues --    0.68033   0.68666   0.69332   0.70004   0.70482
 Alpha virt. eigenvalues --    0.71381   0.71565   0.72153   0.72507   0.73065
 Alpha virt. eigenvalues --    0.74113   0.74240   0.74463   0.75166   0.75591
 Alpha virt. eigenvalues --    0.76207   0.76763   0.77249   0.77758   0.78340
 Alpha virt. eigenvalues --    0.78483   0.79288   0.80268   0.80564   0.81018
 Alpha virt. eigenvalues --    0.82056   0.82986   0.84839   0.85026   0.85980
 Alpha virt. eigenvalues --    0.86058   0.86082   0.86726   0.87474   0.87998
 Alpha virt. eigenvalues --    0.88242   0.89177   0.90202   0.90337   0.91021
 Alpha virt. eigenvalues --    0.91330   0.92084   0.92306   0.92392   0.93703
 Alpha virt. eigenvalues --    0.93905   0.94532   0.95185   0.96563   0.97396
 Alpha virt. eigenvalues --    0.97887   0.99344   1.00566   1.01087   1.01732
 Alpha virt. eigenvalues --    1.01751   1.03192   1.04351   1.04628   1.05213
 Alpha virt. eigenvalues --    1.06832   1.07539   1.08072   1.08441   1.09031
 Alpha virt. eigenvalues --    1.09827   1.10717   1.12368   1.13680   1.14193
 Alpha virt. eigenvalues --    1.15269   1.15629   1.16531   1.16988   1.17922
 Alpha virt. eigenvalues --    1.18609   1.19686   1.20196   1.20547   1.21246
 Alpha virt. eigenvalues --    1.22247   1.23294   1.24921   1.25354   1.25680
 Alpha virt. eigenvalues --    1.25842   1.27715   1.29021   1.29818   1.30331
 Alpha virt. eigenvalues --    1.30695   1.32090   1.33135   1.34974   1.35916
 Alpha virt. eigenvalues --    1.37517   1.38074   1.38973   1.39577   1.39828
 Alpha virt. eigenvalues --    1.40711   1.41199   1.42028   1.42048   1.42552
 Alpha virt. eigenvalues --    1.43007   1.43498   1.45386   1.45939   1.46936
 Alpha virt. eigenvalues --    1.47593   1.49298   1.51293   1.52585   1.54536
 Alpha virt. eigenvalues --    1.56890   1.59308   1.61830   1.63116   1.65422
 Alpha virt. eigenvalues --    1.67181   1.68480   1.71237   1.74957   1.77223
 Alpha virt. eigenvalues --    1.79294   1.80319   1.81100   1.82010   1.82624
 Alpha virt. eigenvalues --    1.83153   1.84490   1.85852   1.87243   1.88243
 Alpha virt. eigenvalues --    1.88953   1.89709   1.90609   1.91532   1.91923
 Alpha virt. eigenvalues --    1.92460   1.92705   1.92869   1.93864   1.95057
 Alpha virt. eigenvalues --    1.95763   1.96446   1.97112   1.97179   1.98039
 Alpha virt. eigenvalues --    1.98952   1.99827   2.00084   2.00983   2.01124
 Alpha virt. eigenvalues --    2.01244   2.01432   2.02036   2.02443   2.03102
 Alpha virt. eigenvalues --    2.05106   2.05972   2.06226   2.06909   2.09726
 Alpha virt. eigenvalues --    2.10849   2.11508   2.12355   2.12874   2.13834
 Alpha virt. eigenvalues --    2.18578   2.20093   2.21089   2.23284   2.25131
 Alpha virt. eigenvalues --    2.26583   2.27781   2.28710   2.29671   2.30474
 Alpha virt. eigenvalues --    2.31186   2.31971   2.32567   2.34213   2.36819
 Alpha virt. eigenvalues --    2.37208   2.38121   2.38507   2.38747   2.39670
 Alpha virt. eigenvalues --    2.41313   2.41794   2.42055   2.44453   2.45510
 Alpha virt. eigenvalues --    2.45738   2.46648   2.47383   2.47848   2.49389
 Alpha virt. eigenvalues --    2.50455   2.50873   2.52139   2.52425   2.53604
 Alpha virt. eigenvalues --    2.54789   2.55107   2.56491   2.56836   2.57459
 Alpha virt. eigenvalues --    2.58187   2.58722   2.60002   2.60758   2.61585
 Alpha virt. eigenvalues --    2.62360   2.63325   2.63697   2.64859   2.65734
 Alpha virt. eigenvalues --    2.66288   2.69797   2.70472   2.71239   2.72295
 Alpha virt. eigenvalues --    2.72893   2.74849   2.75555   2.76655   2.78633
 Alpha virt. eigenvalues --    2.79728   2.80438   2.81974   2.82830   2.83985
 Alpha virt. eigenvalues --    2.84786   2.87771   2.89603   2.90723   2.98610
 Alpha virt. eigenvalues --    2.98688   3.03172   3.04375   3.05095   3.07053
 Alpha virt. eigenvalues --    3.07452   3.08042   3.14179   3.18780   3.20275
 Alpha virt. eigenvalues --    3.21088   3.23244   3.26338   3.26926   3.28774
 Alpha virt. eigenvalues --    3.29562   3.30732   3.31540   3.34168   3.36138
 Alpha virt. eigenvalues --    3.36699   3.39227   3.40751   3.43703   3.46738
 Alpha virt. eigenvalues --    3.47623   3.49998   3.53058   3.54050   3.80207
 Alpha virt. eigenvalues --    3.85965   3.88727   4.29857   4.32585   4.33744
 Alpha virt. eigenvalues --    4.34564   4.35368   4.36573   4.38942   4.40353
 Alpha virt. eigenvalues --    4.43501   4.43701   4.46959   4.49503   4.50237
 Alpha virt. eigenvalues --    4.52117   4.52875   4.56301   4.56991   4.59041
 Alpha virt. eigenvalues --    4.62068   4.82567   4.84278   4.91165   4.93418
          Condensed to atoms (all electrons):
               1          2          3          4          5          6
     1  C    5.012400   0.055337  -0.019491  -0.092537  -0.002509  -0.032319
     2  O    0.055337   8.489037   0.414470  -0.567483   0.020282  -0.061604
     3  C   -0.019491   0.414470   8.739648  -1.112030  -1.009599  -0.994674
     4  C   -0.092537  -0.567483  -1.112030  13.136252  -1.156006  -1.563039
     5  C   -0.002509   0.020282  -1.009599  -1.156006  20.692522  -3.874138
     6  C   -0.032319  -0.061604  -0.994674  -1.563039  -3.874138  20.100673
     7  C   -0.017502   0.002641  -0.795799   0.501887   3.989048  -0.286079
     8  C   -0.007058   0.001486  -0.038115   0.026385  -1.017114  -0.982322
     9  C   -0.000417   0.000131  -0.003272  -0.049878   0.398351   0.445524
    10  C   -0.000274   0.000106  -0.013330   0.078298  -0.299522  -1.076827
    11  C    0.000071   0.000410   0.015482  -0.259805  -0.618049   0.843351
    12  C   -0.013736   0.004460  -0.637580   1.907620  -0.119973  -8.259774
    13  C    0.007864  -0.003234   0.354860  -0.861458  -0.497210   3.939217
    14  C    0.001090  -0.000899   0.030730   0.094131  -0.358075   0.309569
    15  N   -0.000020   0.000007  -0.000798  -0.002060   0.001260  -0.007451
    16  C   -0.000472  -0.000033  -0.164933   0.511338  -1.345855  -1.941684
    17  C    0.001245  -0.001030   0.058196  -1.048583  -1.983240   2.973424
    18  C   -0.000054   0.000011   0.013187   0.195882   0.849570  -0.864125
    19  C   -0.000072  -0.000007  -0.009457  -0.021893   0.011894   0.008498
    20  C    0.001020   0.000136   0.009447  -0.175613  -0.162142   0.428912
    21  C   -0.001483   0.001084  -0.014782   0.513911   1.290362  -1.223801
    22  C    0.144818  -0.016381   2.686024  -3.595463  -9.626102  -2.334951
    23  C   -0.119537   0.188694  -1.155877  -0.736665   0.669743   0.409136
    24  H    0.414374  -0.068418   0.072000   0.050631   0.001736   0.001476
    25  H    0.408563  -0.039325  -0.080771  -0.038683   0.001583  -0.000300
    26  H    0.408192  -0.039967  -0.086394  -0.049122  -0.003178  -0.003740
    27  H   -0.000847  -0.011318   0.048558   0.222508  -0.022729   0.044281
    28  H    0.000580  -0.000629   0.018618  -0.054772   0.153270   0.147312
    29  H    0.000011   0.000000  -0.000663   0.003385  -0.085114  -0.056838
    30  H    0.000000  -0.000000  -0.000165   0.000218  -0.000912  -0.010090
    31  H   -0.000000  -0.000000   0.000016   0.000015   0.002078   0.003399
    32  H   -0.000000  -0.000000   0.000053  -0.000879  -0.003085   0.013992
    33  H    0.000015   0.000019   0.001251   0.017297   0.163128  -0.052451
    34  H   -0.000000   0.000000  -0.000207   0.008781   0.026105  -0.037311
    35  H   -0.000000  -0.000000  -0.000100   0.000473   0.001482  -0.002509
    36  H    0.000000   0.000000   0.000014  -0.001071  -0.000156   0.001167
    37  H   -0.000000   0.000000   0.000518   0.002321  -0.001644  -0.001600
    38  H    0.000005  -0.000002  -0.002915  -0.004329   0.015894  -0.009343
    39  H    0.000560  -0.000644   0.000074  -0.025335   0.058905  -0.021617
    40  H   -0.000317  -0.015310  -0.047065   0.024136   0.003539   0.087516
               7          8          9         10         11         12
     1  C   -0.017502  -0.007058  -0.000417  -0.000274   0.000071  -0.013736
     2  O    0.002641   0.001486   0.000131   0.000106   0.000410   0.004460
     3  C   -0.795799  -0.038115  -0.003272  -0.013330   0.015482  -0.637580
     4  C    0.501887   0.026385  -0.049878   0.078298  -0.259805   1.907620
     5  C    3.989048  -1.017114   0.398351  -0.299522  -0.618049  -0.119973
     6  C   -0.286079  -0.982322   0.445524  -1.076827   0.843351  -8.259774
     7  C   16.514598  -3.912133   0.038922  -2.336660   0.428697  -2.122153
     8  C   -3.912133  16.679456  -2.459840  -0.118577   3.756274  -5.216251
     9  C    0.038922  -2.459840   8.143718   0.254731  -0.966199   0.084657
    10  C   -2.336660  -0.118577   0.254731   9.833954  -2.061261   1.429863
    11  C    0.428697   3.756274  -0.966199  -2.061261  16.192419 -12.150371
    12  C   -2.122153  -5.216251   0.084657   1.429863 -12.150371  39.102709
    13  C    1.476914  -1.966332   0.494327  -1.025313   0.097672  -7.942519
    14  C   -1.033244  -0.704423   0.185993  -0.270508  -1.067142   0.078825
    15  N    0.038057   0.017294  -0.008106   0.048459   0.028246  -0.052085
    16  C   -3.346792   1.041462  -0.621890   2.067702   1.277654   1.691979
    17  C   -1.875957  -0.652536   0.381554  -0.229683   0.907171  -3.509725
    18  C    0.551485  -0.310871   0.022950  -0.242004  -0.564958   1.410943
    19  C    0.099103   0.008044   0.008699  -0.051256   0.011353  -0.035213
    20  C   -0.227095  -0.007640  -0.001363   0.064970   0.268458  -1.018060
    21  C    2.349508   0.475605  -0.064044  -0.327622  -0.529903   1.389906
    22  C   -4.771711   1.847858  -0.472293   0.234716   0.535580  -1.117583
    23  C    0.783959  -0.582609   0.017910  -0.031977  -0.017608  -0.014073
    24  H    0.000057   0.000001   0.000000  -0.000000   0.000000   0.000015
    25  H   -0.000133  -0.000511  -0.000092  -0.000001   0.000020   0.000071
    26  H   -0.000083   0.000316   0.000051  -0.000001  -0.000036  -0.000298
    27  H   -0.002121  -0.000247   0.000034  -0.000109   0.000009  -0.006969
    28  H   -0.020904  -0.054747  -0.002530   0.002164  -0.014844  -0.006423
    29  H   -0.010159   0.310427  -0.048746   0.006965  -0.029290   0.062778
    30  H    0.010645  -0.009220   0.288855   0.010713  -0.009342   0.029305
    31  H    0.019311   0.006774  -0.003405   0.282809  -0.008071   0.015988
    32  H    0.077748  -0.038838  -0.000432  -0.136540   0.295376   0.109424
    33  H    0.051027  -0.028870   0.003600  -0.000323  -0.070279   0.059595
    34  H    0.040439   0.011882  -0.004529   0.038833   0.060817  -0.104013
    35  H   -0.004271   0.000019  -0.000063   0.000916  -0.002406   0.011495
    36  H   -0.000174   0.000015   0.000003  -0.000029  -0.000174   0.000094
    37  H   -0.000147  -0.000023   0.000002   0.000042   0.000691  -0.001523
    38  H   -0.006693  -0.001168   0.000149  -0.000758  -0.009329   0.032581
    39  H   -0.048887   0.111060   0.022726  -0.001261   0.015637  -0.024153
    40  H    0.003872  -0.002734   0.000395  -0.000056  -0.000377  -0.000270
              13         14         15         16         17         18
     1  C    0.007864   0.001090  -0.000020  -0.000472   0.001245  -0.000054
     2  O   -0.003234  -0.000899   0.000007  -0.000033  -0.001030   0.000011
     3  C    0.354860   0.030730  -0.000798  -0.164933   0.058196   0.013187
     4  C   -0.861458   0.094131  -0.002060   0.511338  -1.048583   0.195882
     5  C   -0.497210  -0.358075   0.001260  -1.345855  -1.983240   0.849570
     6  C    3.939217   0.309569  -0.007451  -1.941684   2.973424  -0.864125
     7  C    1.476914  -1.033244   0.038057  -3.346792  -1.875957   0.551485
     8  C   -1.966332  -0.704423   0.017294   1.041462  -0.652536  -0.310871
     9  C    0.494327   0.185993  -0.008106  -0.621890   0.381554   0.022950
    10  C   -1.025313  -0.270508   0.048459   2.067702  -0.229683  -0.242004
    11  C    0.097672  -1.067142   0.028246   1.277654   0.907171  -0.564958
    12  C   -7.942519   0.078825  -0.052085   1.691979  -3.509725   1.410943
    13  C   16.534226  -1.056115  -0.047372  -9.103390   2.585278   0.846624
    14  C   -1.056115  11.886027   0.433897  -1.893847   1.931659   0.025045
    15  N   -0.047372   0.433897   6.920719   0.138263  -0.137479  -0.018251
    16  C   -9.103390  -1.893847   0.138263  31.334718  -5.840191  -2.200098
    17  C    2.585278   1.931659  -0.137479  -5.840191  28.857542  -5.553105
    18  C    0.846624   0.025045  -0.018251  -2.200098  -5.553105  12.231349
    19  C    0.122482  -0.013027  -0.001318  -1.659962   0.420864   0.280136
    20  C   -0.249206  -0.120675   0.002181   1.054186   0.783223  -0.351531
    21  C    1.328085  -1.872819   0.060485  -6.261860 -12.472381   0.144167
    22  C    0.627371  -0.232157   0.009921   0.337265   0.788412  -0.256332
    23  C    0.240438   0.064088  -0.002455   0.000526   0.013760   0.014957
    24  H   -0.000007  -0.000001   0.000000  -0.000009  -0.000001  -0.000000
    25  H    0.000057   0.000001   0.000000  -0.000001  -0.000005  -0.000000
    26  H   -0.000024   0.000025  -0.000000   0.000048   0.000018   0.000001
    27  H    0.008888   0.001713  -0.000004  -0.009965   0.001033  -0.000645
    28  H    0.130692   0.024247  -0.000157  -0.096327   0.070983   0.013215
    29  H    0.006824   0.000599   0.000003   0.001344  -0.001609  -0.000389
    30  H    0.002498   0.001259  -0.000006   0.001262  -0.000935  -0.000210
    31  H   -0.003974   0.000481  -0.000014  -0.001106  -0.001196   0.001102
    32  H    0.030336   0.016398   0.002115  -0.147905   0.065539   0.025934
    33  H    0.401810  -0.200357  -0.000498  -0.040694  -0.253331   0.000943
    34  H   -0.007778  -0.014911  -0.000336   0.136970   0.131549  -0.060349
    35  H   -0.015600  -0.002259   0.000022   0.052400  -0.042308   0.308369
    36  H   -0.002892  -0.000082   0.000004  -0.003880   0.026642   0.006880
    37  H   -0.009643   0.000213  -0.000048   0.056559   0.005400   0.003354
    38  H    0.023801   0.008400  -0.001022   0.118476   0.039259   0.017180
    39  H   -0.013401  -0.004677   0.000039   0.005539  -0.002235  -0.000151
    40  H    0.000811   0.000401  -0.000001  -0.000370   0.000004   0.000009
              19         20         21         22         23         24
     1  C   -0.000072   0.001020  -0.001483   0.144818  -0.119537   0.414374
     2  O   -0.000007   0.000136   0.001084  -0.016381   0.188694  -0.068418
     3  C   -0.009457   0.009447  -0.014782   2.686024  -1.155877   0.072000
     4  C   -0.021893  -0.175613   0.513911  -3.595463  -0.736665   0.050631
     5  C    0.011894  -0.162142   1.290362  -9.626102   0.669743   0.001736
     6  C    0.008498   0.428912  -1.223801  -2.334951   0.409136   0.001476
     7  C    0.099103  -0.227095   2.349508  -4.771711   0.783959   0.000057
     8  C    0.008044  -0.007640   0.475605   1.847858  -0.582609   0.000001
     9  C    0.008699  -0.001363  -0.064044  -0.472293   0.017910   0.000000
    10  C   -0.051256   0.064970  -0.327622   0.234716  -0.031977  -0.000000
    11  C    0.011353   0.268458  -0.529903   0.535580  -0.017608   0.000000
    12  C   -0.035213  -1.018060   1.389906  -1.117583  -0.014073   0.000015
    13  C    0.122482  -0.249206   1.328085   0.627371   0.240438  -0.000007
    14  C   -0.013027  -0.120675  -1.872819  -0.232157   0.064088  -0.000001
    15  N   -0.001318   0.002181   0.060485   0.009921  -0.002455   0.000000
    16  C   -1.659962   1.054186  -6.261860   0.337265   0.000526  -0.000009
    17  C    0.420864   0.783223 -12.472381   0.788412   0.013760  -0.000001
    18  C    0.280136  -0.351531   0.144167  -0.256332   0.014957  -0.000000
    19  C    5.716711   0.380235   0.524888   0.003250  -0.001457   0.000000
    20  C    0.380235   7.434462  -2.385243   0.111780  -0.006476  -0.000002
    21  C    0.524888  -2.385243  23.134209  -0.501873  -0.034747   0.000007
    22  C    0.003250   0.111780  -0.501873  27.749318  -6.031870  -0.031728
    23  C   -0.001457  -0.006476  -0.034747  -6.031870  11.610131  -0.076378
    24  H    0.000000  -0.000002   0.000007  -0.031728  -0.076378   0.542703
    25  H   -0.000000   0.000002   0.000007   0.050838   0.052741  -0.029116
    26  H   -0.000000  -0.000004  -0.000052   0.061672   0.066085  -0.029130
    27  H    0.000209  -0.000073   0.006130   0.008176   0.022183  -0.000019
    28  H    0.000069  -0.010260  -0.035084   0.039619  -0.007339  -0.000000
    29  H    0.000004  -0.000008   0.000547   0.101408   0.039430  -0.000000
    30  H    0.000002  -0.000000  -0.000004  -0.004071   0.001220   0.000000
    31  H   -0.000106   0.000044   0.000345  -0.002185  -0.000286  -0.000000
    32  H    0.000895  -0.001961  -0.004437   0.000220  -0.000463   0.000000
    33  H   -0.002768   0.025822   0.241180  -0.070801   0.007128  -0.000000
    34  H    0.001476  -0.011100   0.083852  -0.007350   0.000140   0.000000
    35  H   -0.001847   0.012457  -0.006172  -0.000161   0.000008  -0.000000
    36  H    0.273581   0.013379  -0.002821   0.000075  -0.000011  -0.000000
    37  H   -0.009909   0.261028   0.004869  -0.000167   0.000044   0.000000
    38  H   -0.024042  -0.034384   0.133904  -0.000453   0.000636   0.000000
    39  H   -0.000004   0.000099   0.001171   0.288509  -0.060874  -0.000000
    40  H   -0.000001  -0.000019  -0.000077   0.018943   0.231815   0.000114
              25         26         27         28         29         30
     1  C    0.408563   0.408192  -0.000847   0.000580   0.000011   0.000000
     2  O   -0.039325  -0.039967  -0.011318  -0.000629   0.000000  -0.000000
     3  C   -0.080771  -0.086394   0.048558   0.018618  -0.000663  -0.000165
     4  C   -0.038683  -0.049122   0.222508  -0.054772   0.003385   0.000218
     5  C    0.001583  -0.003178  -0.022729   0.153270  -0.085114  -0.000912
     6  C   -0.000300  -0.003740   0.044281   0.147312  -0.056838  -0.010090
     7  C   -0.000133  -0.000083  -0.002121  -0.020904  -0.010159   0.010645
     8  C   -0.000511   0.000316  -0.000247  -0.054747   0.310427  -0.009220
     9  C   -0.000092   0.000051   0.000034  -0.002530  -0.048746   0.288855
    10  C   -0.000001  -0.000001  -0.000109   0.002164   0.006965   0.010713
    11  C    0.000020  -0.000036   0.000009  -0.014844  -0.029290  -0.009342
    12  C    0.000071  -0.000298  -0.006969  -0.006423   0.062778   0.029305
    13  C    0.000057  -0.000024   0.008888   0.130692   0.006824   0.002498
    14  C    0.000001   0.000025   0.001713   0.024247   0.000599   0.001259
    15  N    0.000000  -0.000000  -0.000004  -0.000157   0.000003  -0.000006
    16  C   -0.000001   0.000048  -0.009965  -0.096327   0.001344   0.001262
    17  C   -0.000005   0.000018   0.001033   0.070983  -0.001609  -0.000935
    18  C   -0.000000   0.000001  -0.000645   0.013215  -0.000389  -0.000210
    19  C   -0.000000  -0.000000   0.000209   0.000069   0.000004   0.000002
    20  C    0.000002  -0.000004  -0.000073  -0.010260  -0.000008  -0.000000
    21  C    0.000007  -0.000052   0.006130  -0.035084   0.000547  -0.000004
    22  C    0.050838   0.061672   0.008176   0.039619   0.101408  -0.004071
    23  C    0.052741   0.066085   0.022183  -0.007339   0.039430   0.001220
    24  H   -0.029116  -0.029130  -0.000019  -0.000000  -0.000000   0.000000
    25  H    0.575436  -0.044607   0.000006   0.000000   0.000000   0.000000
    26  H   -0.044607   0.575892   0.000005   0.000000  -0.000000  -0.000000
    27  H    0.000006   0.000005   0.562581  -0.005303   0.000000   0.000000
    28  H    0.000000   0.000000  -0.005303   0.576696   0.000030   0.000000
    29  H    0.000000  -0.000000   0.000000   0.000030   0.575216  -0.005390
    30  H    0.000000  -0.000000   0.000000   0.000000  -0.005390   0.570579
    31  H   -0.000000   0.000000   0.000000  -0.000000  -0.000175  -0.004999
    32  H   -0.000000   0.000000   0.000000   0.000002   0.000015  -0.000181
    33  H    0.000000  -0.000000  -0.000025  -0.001141  -0.000012  -0.000000
    34  H    0.000000  -0.000000   0.000000  -0.000056  -0.000002   0.000000
    35  H   -0.000000  -0.000000  -0.000000  -0.000005  -0.000000   0.000000
    36  H    0.000000   0.000000   0.000000  -0.000000   0.000000  -0.000000
    37  H    0.000000   0.000000  -0.000000   0.000001  -0.000000  -0.000000
    38  H   -0.000000   0.000000  -0.000007  -0.000002  -0.000000   0.000000
    39  H    0.000003   0.000002   0.000014  -0.000190   0.000349  -0.000000
    40  H   -0.000819  -0.000724  -0.000153   0.000016  -0.000001   0.000000
              31         32         33         34         35         36
     1  C   -0.000000  -0.000000   0.000015  -0.000000  -0.000000   0.000000
     2  O   -0.000000  -0.000000   0.000019   0.000000  -0.000000   0.000000
     3  C    0.000016   0.000053   0.001251  -0.000207  -0.000100   0.000014
     4  C    0.000015  -0.000879   0.017297   0.008781   0.000473  -0.001071
     5  C    0.002078  -0.003085   0.163128   0.026105   0.001482  -0.000156
     6  C    0.003399   0.013992  -0.052451  -0.037311  -0.002509   0.001167
     7  C    0.019311   0.077748   0.051027   0.040439  -0.004271  -0.000174
     8  C    0.006774  -0.038838  -0.028870   0.011882   0.000019   0.000015
     9  C   -0.003405  -0.000432   0.003600  -0.004529  -0.000063   0.000003
    10  C    0.282809  -0.136540  -0.000323   0.038833   0.000916  -0.000029
    11  C   -0.008071   0.295376  -0.070279   0.060817  -0.002406  -0.000174
    12  C    0.015988   0.109424   0.059595  -0.104013   0.011495   0.000094
    13  C   -0.003974   0.030336   0.401810  -0.007778  -0.015600  -0.002892
    14  C    0.000481   0.016398  -0.200357  -0.014911  -0.002259  -0.000082
    15  N   -0.000014   0.002115  -0.000498  -0.000336   0.000022   0.000004
    16  C   -0.001106  -0.147905  -0.040694   0.136970   0.052400  -0.003880
    17  C   -0.001196   0.065539  -0.253331   0.131549  -0.042308   0.026642
    18  C    0.001102   0.025934   0.000943  -0.060349   0.308369   0.006880
    19  C   -0.000106   0.000895  -0.002768   0.001476  -0.001847   0.273581
    20  C    0.000044  -0.001961   0.025822  -0.011100   0.012457   0.013379
    21  C    0.000345  -0.004437   0.241180   0.083852  -0.006172  -0.002821
    22  C   -0.002185   0.000220  -0.070801  -0.007350  -0.000161   0.000075
    23  C   -0.000286  -0.000463   0.007128   0.000140   0.000008  -0.000011
    24  H   -0.000000   0.000000  -0.000000   0.000000  -0.000000  -0.000000
    25  H   -0.000000  -0.000000   0.000000   0.000000  -0.000000   0.000000
    26  H    0.000000   0.000000  -0.000000  -0.000000  -0.000000   0.000000
    27  H    0.000000   0.000000  -0.000025   0.000000  -0.000000   0.000000
    28  H   -0.000000   0.000002  -0.001141  -0.000056  -0.000005  -0.000000
    29  H   -0.000175   0.000015  -0.000012  -0.000002  -0.000000   0.000000
    30  H   -0.004999  -0.000181  -0.000000   0.000000   0.000000  -0.000000
    31  H    0.568736  -0.005092   0.000002  -0.000011  -0.000000   0.000000
    32  H   -0.005092   0.568108   0.000000  -0.001229   0.000001   0.000000
    33  H    0.000002   0.000000   0.553129  -0.000025   0.000002   0.000000
    34  H   -0.000011  -0.001229  -0.000025   0.583915  -0.006037  -0.000163
    35  H   -0.000000   0.000001   0.000002  -0.006037   0.572977  -0.005525
    36  H    0.000000   0.000000   0.000000  -0.000163  -0.005525   0.573371
    37  H   -0.000000  -0.000000  -0.000008   0.000016  -0.000169  -0.005486
    38  H   -0.000000   0.000001   0.002081  -0.000169   0.000016  -0.000161
    39  H   -0.000000   0.000000  -0.000024   0.000000   0.000000  -0.000000
    40  H    0.000000   0.000000  -0.000002  -0.000000  -0.000000   0.000000
              37         38         39         40
     1  C   -0.000000   0.000005   0.000560  -0.000317
     2  O    0.000000  -0.000002  -0.000644  -0.015310
     3  C    0.000518  -0.002915   0.000074  -0.047065
     4  C    0.002321  -0.004329  -0.025335   0.024136
     5  C   -0.001644   0.015894   0.058905   0.003539
     6  C   -0.001600  -0.009343  -0.021617   0.087516
     7  C   -0.000147  -0.006693  -0.048887   0.003872
     8  C   -0.000023  -0.001168   0.111060  -0.002734
     9  C    0.000002   0.000149   0.022726   0.000395
    10  C    0.000042  -0.000758  -0.001261  -0.000056
    11  C    0.000691  -0.009329   0.015637  -0.000377
    12  C   -0.001523   0.032581  -0.024153  -0.000270
    13  C   -0.009643   0.023801  -0.013401   0.000811
    14  C    0.000213   0.008400  -0.004677   0.000401
    15  N   -0.000048  -0.001022   0.000039  -0.000001
    16  C    0.056559   0.118476   0.005539  -0.000370
    17  C    0.005400   0.039259  -0.002235   0.000004
    18  C    0.003354   0.017180  -0.000151   0.000009
    19  C   -0.009909  -0.024042  -0.000004  -0.000001
    20  C    0.261028  -0.034384   0.000099  -0.000019
    21  C    0.004869   0.133904   0.001171  -0.000077
    22  C   -0.000167  -0.000453   0.288509   0.018943
    23  C    0.000044   0.000636  -0.060874   0.231815
    24  H    0.000000   0.000000  -0.000000   0.000114
    25  H    0.000000  -0.000000   0.000003  -0.000819
    26  H    0.000000   0.000000   0.000002  -0.000724
    27  H   -0.000000  -0.000007   0.000014  -0.000153
    28  H    0.000001  -0.000002  -0.000190   0.000016
    29  H   -0.000000  -0.000000   0.000349  -0.000001
    30  H   -0.000000   0.000000  -0.000000   0.000000
    31  H   -0.000000  -0.000000  -0.000000   0.000000
    32  H   -0.000000   0.000001   0.000000   0.000000
    33  H   -0.000008   0.002081  -0.000024  -0.000002
    34  H    0.000016  -0.000169   0.000000  -0.000000
    35  H   -0.000169   0.000016   0.000000  -0.000000
    36  H   -0.005486  -0.000161  -0.000000   0.000000
    37  H    0.571442  -0.005978   0.000000   0.000000
    38  H   -0.005978   0.586500  -0.000000   0.000000
    39  H    0.000000  -0.000000   0.577354  -0.005953
    40  H    0.000000   0.000000  -0.005953   0.582023
 Mulliken charges:
               1
     1  C   -0.147500
     2  O   -0.352026
     3  C   -0.275130
     4  C    0.121235
     5  C   -0.164398
     6  C   -0.058861
     7  C   -0.159222
     8  C   -0.182178
     9  C   -0.086182
    10  C   -0.131351
    11  C   -0.355946
    12  C    0.930435
    13  C   -0.455608
    14  C   -0.249575
    15  N   -0.421492
    16  C    0.853572
    17  C   -0.437225
    18  C   -0.540220
    19  C   -0.040052
    20  C   -0.088990
    21  C    0.054983
    22  C   -0.572140
    23  C    0.445932
    24  H    0.151696
    25  H    0.145036
    26  H    0.145053
    27  H    0.134209
    28  H    0.133200
    29  H    0.129060
    30  H    0.128968
    31  H    0.129518
    32  H    0.134885
    33  H    0.193579
    34  H    0.130800
    35  H    0.128797
    36  H    0.127399
    37  H    0.129845
    38  H    0.121874
    39  H    0.127366
    40  H    0.120656
 Sum of Mulliken charges =  -0.00000
 Mulliken charges with hydrogens summed into heavy atoms:
               1
     1  C    0.294285
     2  O   -0.352026
     3  C   -0.275130
     4  C    0.255444
     5  C   -0.031198
     6  C   -0.058861
     7  C   -0.159222
     8  C   -0.053117
     9  C    0.042786
    10  C   -0.001833
    11  C   -0.221061
    12  C    0.930435
    13  C   -0.262029
    14  C   -0.249575
    15  N   -0.421492
    16  C    0.853572
    17  C   -0.306425
    18  C   -0.411423
    19  C    0.087347
    20  C    0.040855
    21  C    0.176857
    22  C   -0.444774
    23  C    0.566588
 Electronic spatial extent (au):  <R**2>=           7777.2126
 Charge=             -0.0000 electrons
 Dipole moment (field-independent basis, Debye):
    X=              3.6487    Y=              0.0266    Z=             -3.0055  Tot=              4.7272
 Quadrupole moment (field-independent basis, Debye-Ang):
   XX=           -123.5424   YY=           -123.2613   ZZ=           -148.7342
   XY=              3.2083   XZ=             20.8682   YZ=             -3.3219
 Traceless Quadrupole moment (field-independent basis, Debye-Ang):
   XX=              8.3035   YY=              8.5847   ZZ=            -16.8882
   XY=              3.2083   XZ=             20.8682   YZ=             -3.3219
 Octapole moment (field-independent basis, Debye-Ang**2):
  XXX=            178.6334  YYY=            -11.8752  ZZZ=            -56.3874  XYY=            -17.5217
  XXY=              7.1622  XXZ=            -25.4408  XZZ=             51.0180  YZZ=            -16.0484
  YYZ=            -17.7671  XYZ=             -2.6594
 Hexadecapole moment (field-independent basis, Debye-Ang**3):
 XXXX=          -5419.9566 YYYY=          -3196.9846 ZZZZ=          -1383.0143 XXXY=           -128.0723
 XXXZ=            353.8481 YYYX=              9.1558 YYYZ=            -66.8793 ZZZX=            211.0076
 ZZZY=            -17.0936 XXYY=          -1544.8565 XXZZ=          -1352.7604 YYZZ=           -752.8958
 XXYZ=             11.4759 YYXZ=             53.2213 ZZXY=             34.7073
 N-N= 1.730216005054D+03 E-N=-5.639636049531D+03  KE= 9.314295128230D+02
 Unable to Open any file for archive entry.
 1\1\GINC-N1\SP\RB3LYP TD-FC\6-31+G(d,p)\C21H17N1O1\HPCMGAC13\31-Jul-20
 25\0\\# td=(50-50,nstates=3) b3lyp/6-31+g(d,p) geom=connectivity\\Titl
 e Card Required\\0,1\C,0,5.903995,0.944733,-0.499666\O,0,4.716527,1.42
 2894,0.121659\C,0,3.613362,0.617686,0.13062\C,0,2.47698,1.143434,0.764
 143\C,0,1.302542,0.402004,0.823788\C,0,1.220821,-0.884526,0.256715\C,0
 ,-0.01602,-1.71795,0.348735\C,0,0.057195,-2.946124,1.030442\C,0,-1.046
 683,-3.790802,1.138761\C,0,-2.258225,-3.420463,0.552874\C,0,-2.34718,-
 2.210968,-0.135653\C,0,-1.24593,-1.349851,-0.243297\C,0,-1.380549,-0.0
 39577,-1.023379\C,0,-2.199244,-0.224919,-2.238188\N,0,-2.83674,-0.3490
 05,-3.201595\C,0,-1.922716,1.164182,-0.224942\C,0,-2.673231,1.010249,0
 .944929\C,0,-3.154184,2.132177,1.628519\C,0,-2.891085,3.416537,1.14953
 5\C,0,-2.141181,3.576078,-0.020044\C,0,-1.660994,2.456875,-0.700574\C,
 0,2.368016,-1.395664,-0.365041\C,0,3.556527,-0.661043,-0.437255\H,0,6.
 64045,1.740692,-0.384207\H,0,6.272201,0.034349,-0.010369\H,0,5.745242,
 0.748064,-1.567319\H,0,2.537889,2.131578,1.208591\H,0,0.439677,0.82151
 4,1.33115\H,0,1.000383,-3.228932,1.48879\H,0,-0.959315,-4.731156,1.675
 189\H,0,-3.125745,-4.070078,0.619819\H,0,-3.281807,-1.939812,-0.618565
 \H,0,-0.381566,0.238248,-1.379921\H,0,-2.879225,0.01796,1.331706\H,0,-
 3.734018,1.997036,2.537016\H,0,-3.264718,4.28625,1.681917\H,0,-1.92827
 6,4.570479,-0.40144\H,0,-1.078985,2.58825,-1.609402\H,0,2.33354,-2.383
 903,-0.815285\H,0,4.415949,-1.093073,-0.935918\\Version=ES64L-G16RevC.
 02\State=1-A\HF=-940.4828349\RMSD=3.310e-09\PG=C01 [X(C21H17N1O1)]\\@
 The archive entry for this job was punched.


 THE ATTENTION SPAN OF A COMPUTER IS AS LONG
 AS ITS EXTENSION CORD.
 Job cpu time:       0 days  3 hours 16 minutes 52.0 seconds.
 Elapsed time:       0 days  0 hours 12 minutes 36.3 seconds.
 File lengths (MBytes):  RWF=   1425 Int=      0 D2E=      0 Chk=     70 Scr=      2
 Normal termination of Gaussian 16 at Thu Jul 31 16:41:40 2025.
