 Entering Gaussian System, Link 0=g16
 Input=M2150E.gjf
 Output=M2150E.log
 Initial command:
 /hpc/softwares/Gaussian/g16/l1.exe "/hpc/home/hpcmgac13/pbs.12628.admin1.x8z/Gau-1342919.inp" -scrdir="/hpc/home/hpcmgac13/pbs.12628.admin1.x8z/"
 Default linda workers: n2
 Default is to use  16 SMP processors on each worker.
 Entering Link 1 = /hpc/softwares/Gaussian/g16/l1.exe PID=   1342920.
  
 Copyright (c) 1988-2021, Gaussian, Inc.  All Rights Reserved.
  
 This is part of the Gaussian(R) 16 program.  It is based on
 the Gaussian(R) 09 system (copyright 2009, Gaussian, Inc.),
 the Gaussian(R) 03 system (copyright 2003, Gaussian, Inc.),
 the Gaussian(R) 98 system (copyright 1998, Gaussian, Inc.),
 the Gaussian(R) 94 system (copyright 1995, Gaussian, Inc.),
 the Gaussian 92(TM) system (copyright 1992, Gaussian, Inc.),
 the Gaussian 90(TM) system (copyright 1990, Gaussian, Inc.),
 the Gaussian 88(TM) system (copyright 1988, Gaussian, Inc.),
 the Gaussian 86(TM) system (copyright 1986, Carnegie Mellon
 University), and the Gaussian 82(TM) system (copyright 1983,
 Carnegie Mellon University). Gaussian is a federally registered
 trademark of Gaussian, Inc.
  
 This software contains proprietary and confidential information,
 including trade secrets, belonging to Gaussian, Inc.
  
 This software is provided under written license and may be
 used, copied, transmitted, or stored only in accord with that
 written license.
  
 The following legend is applicable only to US Government
 contracts under FAR:
  
                    RESTRICTED RIGHTS LEGEND
  
 Use, reproduction and disclosure by the US Government is
 subject to restrictions as set forth in subparagraphs (a)
 and (c) of the Commercial Computer Software - Restricted
 Rights clause in FAR 52.227-19.
  
 Gaussian, Inc.
 340 Quinnipiac St., Bldg. 40, Wallingford CT 06492
  
  
 ---------------------------------------------------------------
 Warning -- This program may not be used in any manner that
 competes with the business of Gaussian, Inc. or will provide
 assistance to any competitor of Gaussian, Inc.  The licensee
 of this program is prohibited from giving any competitor of
 Gaussian, Inc. access to this program.  By using this program,
 the user acknowledges that Gaussian, Inc. is engaged in the
 business of creating and licensing software in the field of
 computational chemistry and represents and warrants to the
 licensee that it is not a competitor of Gaussian, Inc. and that
 it will not use this program in any manner prohibited above.
 ---------------------------------------------------------------
  

 Cite this work as:
 Gaussian 16, Revision C.02,
 M. J. Frisch, G. W. Trucks, H. B. Schlegel, G. E. Scuseria, 
 M. A. Robb, J. R. Cheeseman, G. Scalmani, V. Barone, 
 G. A. Petersson, H. Nakatsuji, X. Li, M. Caricato, A. V. Marenich, 
 J. Bloino, B. G. Janesko, R. Gomperts, B. Mennucci, H. P. Hratchian, 
 J. V. Ortiz, A. F. Izmaylov, J. L. Sonnenberg, D. Williams-Young, 
 F. Ding, F. Lipparini, F. Egidi, J. Goings, B. Peng, A. Petrone, 
 T. Henderson, D. Ranasinghe, V. G. Zakrzewski, J. Gao, N. Rega, 
 G. Zheng, W. Liang, M. Hada, M. Ehara, K. Toyota, R. Fukuda, 
 J. Hasegawa, M. Ishida, T. Nakajima, Y. Honda, O. Kitao, H. Nakai, 
 T. Vreven, K. Throssell, J. A. Montgomery, Jr., J. E. Peralta, 
 F. Ogliaro, M. J. Bearpark, J. J. Heyd, E. N. Brothers, K. N. Kudin, 
 V. N. Staroverov, T. A. Keith, R. Kobayashi, J. Normand, 
 K. Raghavachari, A. P. Rendell, J. C. Burant, S. S. Iyengar, 
 J. Tomasi, M. Cossi, J. M. Millam, M. Klene, C. Adamo, R. Cammi, 
 J. W. Ochterski, R. L. Martin, K. Morokuma, O. Farkas, 
 J. B. Foresman, and D. J. Fox, Gaussian, Inc., Wallingford CT, 2019.
 
 ******************************************
 Gaussian 16:  ES64L-G16RevC.02  7-Dec-2021
                31-Jul-2025 
 ******************************************
 SetLPE:    new flags="-opt 'Tsnet.Node.lindarsharg: ssh'  -nodelist 'n2.head.cm.mguif.local' -env GAUSS_MDEF=2147483648 -env GAUSS_EXEDIR="/hpc/softwares/Gaussian/g16/bsd:/hpc/softwares/Gaussian/g16""
 Will use up to    1 processors via Linda.
 ----------------------------------------------------------
 # td=(50-50,nstates=3) b3lyp/6-31+g(d,p) geom=connectivity
 ----------------------------------------------------------
 1/38=1,57=2,172=1/1;
 2/12=2,17=6,18=5,40=1/2;
 3/5=1,6=6,7=111,11=9,25=1,30=1,74=-5/1,2,3,8;
 4//1;
 5/5=2,38=5/2;
 8/6=1,10=2,108=3/1;
 9/41=3,42=1,48=2,70=2/14;
 6/7=2,8=2,9=2,10=2/1;
 99/5=1,9=1/99;
 -------------------
 Title Card Required
 -------------------
 Symbolic Z-matrix:
 Charge =  0 Multiplicity = 1
 C                    -2.19956   2.7151    0.40227 
 C                    -0.83265   2.07328   0.26933 
 C                     0.22897   2.89768  -0.1881 
 C                     1.48403   2.39982  -0.43536 
 C                     1.77923   1.04051  -0.15824 
 N                     3.01886   0.5782   -0.47035 
 C                     3.25396  -0.6934   -0.18673 
 N                     4.40684  -1.25968  -0.64744 
 N                     2.46103  -1.49954   0.56759 
 C                     1.27018  -1.04587   0.91046 
 N                     0.56216  -1.85482   1.78322 
 C                     0.76116   0.22337   0.43239 
 C                    -0.58142   0.72484   0.54277 
 C                    -1.7596   -0.20044   0.8086 
 C                    -2.62051  -0.45051  -0.48151 
 C                    -1.85907  -1.14925  -1.53238 
 N                    -1.25078  -1.6852   -2.362 
 C                    -3.84138  -1.20431  -0.14195 
 N                    -4.80616  -1.76586   0.17481 
 H                    -2.82235   2.25012   1.17132 
 H                    -2.09067   3.77045   0.66953 
 H                    -2.76582   2.69351  -0.53907 
 H                     0.02185   3.94686  -0.38434 
 H                     2.27575   3.01786  -0.84514 
 H                     4.69527  -2.14062  -0.25275 
 H                     5.10512  -0.64767  -1.03959 
 H                     0.0378   -1.39005   2.51162 
 H                     1.12545  -2.62489   2.1251 
 H                    -1.44711  -1.18128   1.15552 
 H                    -2.43808   0.21864   1.55764 
 H                    -2.94077   0.51052  -0.8999 
 
                          Input orientation:                          
 ---------------------------------------------------------------------
 Center     Atomic      Atomic             Coordinates (Angstroms)
 Number     Number       Type             X           Y           Z
 ---------------------------------------------------------------------
      1          6           0       -2.199564    2.715102    0.402266
      2          6           0       -0.832650    2.073276    0.269334
      3          6           0        0.228967    2.897678   -0.188104
      4          6           0        1.484026    2.399824   -0.435360
      5          6           0        1.779227    1.040505   -0.158235
      6          7           0        3.018856    0.578195   -0.470348
      7          6           0        3.253957   -0.693401   -0.186729
      8          7           0        4.406839   -1.259675   -0.647442
      9          7           0        2.461033   -1.499541    0.567592
     10          6           0        1.270181   -1.045874    0.910458
     11          7           0        0.562158   -1.854821    1.783218
     12          6           0        0.761161    0.223370    0.432388
     13          6           0       -0.581420    0.724837    0.542769
     14          6           0       -1.759595   -0.200436    0.808595
     15          6           0       -2.620508   -0.450513   -0.481514
     16          6           0       -1.859071   -1.149253   -1.532381
     17          7           0       -1.250779   -1.685196   -2.361997
     18          6           0       -3.841383   -1.204308   -0.141948
     19          7           0       -4.806164   -1.765858    0.174807
     20          1           0       -2.822348    2.250121    1.171320
     21          1           0       -2.090671    3.770450    0.669532
     22          1           0       -2.765818    2.693508   -0.539066
     23          1           0        0.021853    3.946863   -0.384337
     24          1           0        2.275749    3.017859   -0.845137
     25          1           0        4.695265   -2.140624   -0.252745
     26          1           0        5.105119   -0.647672   -1.039589
     27          1           0        0.037795   -1.390050    2.511617
     28          1           0        1.125453   -2.624893    2.125096
     29          1           0       -1.447108   -1.181283    1.155519
     30          1           0       -2.438081    0.218641    1.557638
     31          1           0       -2.940766    0.510518   -0.899898
 ---------------------------------------------------------------------
                    Distance matrix (angstroms):
                    1          2          3          4          5
     1  C    0.000000
     2  C    1.515937   0.000000
     3  C    2.505920   1.419831   0.000000
     4  C    3.790759   2.443402   1.372650   0.000000
     5  C    4.353070   2.841009   2.419357   1.418341   0.000000
     6  N    5.706114   4.197201   3.639113   2.382280   1.359347
     7  C    6.457995   4.956092   4.695361   3.572466   2.276416
     8  N    7.781086   6.277044   5.911784   4.688256   3.526258
     9  N    6.285834   4.868504   4.988861   4.143127   2.728281
    10  C    5.142211   3.816023   4.224046   3.705373   2.398793
    11  N    5.515282   4.434781   5.155907   4.886096   3.692345
    12  C    3.869823   2.447238   2.796456   2.452034   1.432831
    13  C    2.568908   1.398632   2.431489   2.833440   2.482681
    14  C    2.976414   2.513920   3.813935   4.339338   3.872719
    15  C    3.313515   3.182722   4.406357   4.997374   4.656749
    16  C    4.334978   3.832024   4.748119   4.997569   4.463242
    17  N    5.282420   4.607043   5.283767   5.280007   4.633244
    18  C    4.284100   4.468130   5.778942   6.437068   6.052331
    19  N    5.188941   5.526002   6.872614   7.569128   7.166168
    20  H    1.093394   2.191746   3.402629   4.598770   4.940180
    21  H    1.094097   2.150157   2.622592   3.984703   4.807693
    22  H    1.098734   2.185254   3.022184   4.261242   4.851277
    23  H    2.659074   2.160507   1.087287   2.129292   3.403880
    24  H    4.655760   3.434593   2.153010   1.084763   2.151348
    25  H    8.458474   6.970464   6.733237   5.564267   4.316456
    26  H    8.169797   6.661377   6.088628   4.771230   3.832530
    27  H    5.129075   4.216650   5.070469   5.013921   4.008528
    28  H    6.522226   5.417639   6.054203   5.650866   4.367627
    29  H    4.039232   3.428562   4.610040   4.893544   4.131771
    30  H    2.761176   2.770705   4.163892   4.910450   4.626593
    31  H    2.665558   2.872885   4.031425   4.833638   4.807212
                    6          7          8          9         10
     6  N    0.000000
     7  C    1.323884   0.000000
     8  N    2.309897   1.364573   0.000000
     9  N    2.388613   1.359261   2.306513   0.000000
    10  C    2.757189   2.294215   3.508759   1.319659   0.000000
    11  N    4.127165   3.532049   4.587361   2.282476   1.384703
    12  C    2.457238   2.727234   4.081228   2.424101   1.448666
    13  C    3.742980   4.153755   5.498874   3.768951   2.588250
    14  C    5.007550   5.135113   6.423935   4.422607   3.147171
    15  C    5.732433   5.886869   7.075725   5.293689   4.174865
    16  C    5.282628   5.306754   6.329055   4.816211   3.971192
    17  N    5.189514   5.099813   5.927007   4.732284   4.180064
    18  C    7.095635   7.113851   8.263883   6.349099   5.221182
    19  N    8.194007   8.139191   9.263463   7.282675   6.162916
    20  H    6.293654   6.886952   8.239400   6.506809   5.261219
    21  H    6.131646   7.015996   8.321912   6.964281   5.877954
    22  H    6.159685   6.916139   8.190629   6.791636   5.689761
    23  H    4.509695   5.658409   6.812148   6.043102   5.306811
    24  H    2.577719   3.894078   4.783087   4.736775   4.539516
    25  H    3.201511   2.043571   1.007495   2.464900   3.779248
    26  H    2.485815   2.038691   1.007930   3.209346   4.320648
    27  H    4.653260   4.255595   5.393069   3.108586   2.049620
    28  H    4.536637   3.688594   4.507580   2.340088   1.997396
    29  H    5.067942   4.913214   6.125807   3.964910   2.731675
    30  H    5.832681   6.022785   7.341711   5.285230   3.971026
    31  H    5.975465   6.350797   7.562051   5.947545   4.840642
                   11         12         13         14         15
    11  N    0.000000
    12  C    2.486608   0.000000
    13  C    3.082389   1.437420   0.000000
    14  C    3.012875   2.583671   1.521476   0.000000
    15  C    4.150958   3.567215   2.566804   1.571016   0.000000
    16  C    4.165738   3.551060   3.074224   2.527908   1.473888
    17  N    4.527507   3.936891   3.833271   3.537804   2.633784
    18  C    4.849805   4.852993   3.849389   2.499026   1.474465
    19  N    5.604800   5.917642   4.918071   3.483363   2.634005
    20  H    5.355357   4.182736   2.782683   2.695597   3.172700
    21  H    6.318344   4.557517   3.401421   3.987090   4.407058
    22  H    6.095550   4.414169   3.133309   3.347176   3.147903
    23  H    6.216893   3.883042   3.406599   4.668697   5.131124
    24  H    5.795486   3.425670   3.917607   5.419986   6.011253
    25  H    4.616211   4.640587   6.056989   6.823195   7.511947
    26  H    5.483060   4.668555   6.060063   7.123209   7.748266
    27  H    1.010710   2.729391   2.955087   2.747012   4.111951
    28  H    1.013505   3.333252   4.078954   3.991825   5.055153
    29  H    2.210160   2.715220   2.181323   1.086308   2.142608
    30  H    3.653979   3.391365   2.175634   1.094091   2.153877
    31  H    5.006438   3.944833   2.773758   2.195352   1.095989
                   16         17         18         19         20
    16  C    0.000000
    17  N    1.159964   0.000000
    18  C    2.421961   3.445446   0.000000
    19  N    3.461221   4.368369   1.160377   0.000000
    20  H    4.449005   5.517325   3.833560   4.588753   0.000000
    21  H    5.394955   6.297592   5.335889   6.186224   1.760268
    22  H    4.071324   4.979103   4.062944   4.955661   1.767826
    23  H    5.552142   6.103345   6.443439   7.500505   3.659027
    24  H    5.910488   6.070913   7.465954   8.606842   5.535893
    25  H    6.751267   6.325488   8.588558   9.518424   8.821627
    26  H    6.999598   6.574394   9.008635  10.047817   8.725254
    27  H    4.473254   5.049718   4.703608   5.391275   4.819508
    28  H    4.945911   5.163672   5.641543   6.302829   6.345123
    29  H    2.719475   3.558847   2.723326   3.547785   3.696765
    30  H    3.428499   4.516395   2.623477   3.385007   2.103286
    31  H    2.079649   3.132882   2.079959   3.133144   2.707432
                   21         22         23         24         25
    21  H    0.000000
    22  H    1.753949   0.000000
    23  H    2.367387   3.060384   0.000000
    24  H    4.682546   5.061253   2.481014   0.000000
    25  H    9.046564   8.894862   7.675649   5.728432   0.000000
    26  H    8.615120   8.565375   6.883219   4.634573   1.736666
    27  H    5.878299   5.817419   6.072021   5.975441   5.467823
    28  H    7.304966   7.108104   7.120615   6.479669   4.316503
    29  H    5.016973   4.429968   5.552196   5.957775   6.374346
    30  H    3.677604   3.260145   4.870542   5.985745   7.728405
    31  H    3.716575   2.219516   4.566331   5.788073   8.109028
                   26         27         28         29         30
    26  H    0.000000
    27  H    6.232172   0.000000
    28  H    5.455490   1.690336   0.000000
    29  H    6.930723   2.021762   3.105183   0.000000
    30  H    8.024709   3.102890   4.594178   1.761679   0.000000
    31  H    8.130017   4.911458   5.959491   3.052531   2.525345
                   31
    31  H    0.000000
 Stoichiometry    C13H12N6
 Framework group  C1[X(C13H12N6)]
 Deg. of freedom    87
 Full point group                 C1      NOp   1
 Largest Abelian subgroup         C1      NOp   1
 Largest concise Abelian subgroup C1      NOp   1
                         Standard orientation:                         
 ---------------------------------------------------------------------
 Center     Atomic      Atomic             Coordinates (Angstroms)
 Number     Number       Type             X           Y           Z
 ---------------------------------------------------------------------
      1          6           0        2.199564    2.715102   -0.402266
      2          6           0        0.832650    2.073276   -0.269334
      3          6           0       -0.228967    2.897678    0.188104
      4          6           0       -1.484026    2.399824    0.435360
      5          6           0       -1.779227    1.040505    0.158235
      6          7           0       -3.018856    0.578195    0.470348
      7          6           0       -3.253957   -0.693401    0.186729
      8          7           0       -4.406839   -1.259675    0.647442
      9          7           0       -2.461033   -1.499541   -0.567592
     10          6           0       -1.270181   -1.045874   -0.910458
     11          7           0       -0.562158   -1.854821   -1.783218
     12          6           0       -0.761161    0.223370   -0.432388
     13          6           0        0.581420    0.724837   -0.542769
     14          6           0        1.759595   -0.200436   -0.808595
     15          6           0        2.620508   -0.450513    0.481514
     16          6           0        1.859071   -1.149253    1.532381
     17          7           0        1.250779   -1.685196    2.361997
     18          6           0        3.841383   -1.204308    0.141948
     19          7           0        4.806164   -1.765858   -0.174807
     20          1           0        2.822348    2.250121   -1.171320
     21          1           0        2.090671    3.770450   -0.669532
     22          1           0        2.765818    2.693508    0.539066
     23          1           0       -0.021853    3.946863    0.384337
     24          1           0       -2.275749    3.017859    0.845137
     25          1           0       -4.695265   -2.140624    0.252745
     26          1           0       -5.105119   -0.647672    1.039589
     27          1           0       -0.037795   -1.390050   -2.511617
     28          1           0       -1.125453   -2.624893   -2.125096
     29          1           0        1.447108   -1.181283   -1.155519
     30          1           0        2.438081    0.218641   -1.557638
     31          1           0        2.940766    0.510518    0.899898
 ---------------------------------------------------------------------
 Rotational constants (GHZ):           0.5891552           0.2853549           0.2302176
 Standard basis: 6-31+G(d,p) (6D, 7F)
 There are   421 symmetry adapted cartesian basis functions of A   symmetry.
 There are   421 symmetry adapted basis functions of A   symmetry.
   421 basis functions,   692 primitive gaussians,   421 cartesian basis functions
    66 alpha electrons       66 beta electrons
       nuclear repulsion energy      1333.8023245905 Hartrees.
 NAtoms=   31 NActive=   31 NUniq=   31 SFac= 1.00D+00 NAtFMM=   60 NAOKFM=F Big=F
 Integral buffers will be    131072 words long.
 Regular integral format.
 Two-electron integral symmetry is turned on.
 One-electron integrals computed using PRISM.
 NBasis=   421 RedAO= T EigKep=  1.06D-06  NBF=   421
 NBsUse=   419 1.00D-06 EigRej=  4.68D-07 NBFU=   419
 ExpMin= 4.38D-02 ExpMax= 4.17D+03 ExpMxC= 6.27D+02 IAcc=3 IRadAn=         5 AccDes= 0.00D+00
 Harris functional with IExCor=  402 and IRadAn=       5 diagonalized for initial guess.
 HarFok:  IExCor=  402 AccDes= 0.00D+00 IRadAn=         5 IDoV= 1 UseB2=F ITyADJ=14
 ICtDFT=  3500011 ScaDFX=  1.000000  1.000000  1.000000  1.000000
 FoFCou: FMM=F IPFlag=           0 FMFlag=      100000 FMFlg1=           0
         NFxFlg=           0 DoJE=T BraDBF=F KetDBF=T FulRan=T
         wScrn=  0.000000 ICntrl=       500 IOpCl=  0 I1Cent=   200000004 NGrid=           0
         NMat0=    1 NMatS0=      1 NMatT0=    0 NMatD0=    1 NMtDS0=    0 NMtDT0=    0
 Petite list used in FoFCou.
 Requested convergence on RMS density matrix=1.00D-08 within 128 cycles.
 Requested convergence on MAX density matrix=1.00D-06.
 Requested convergence on             energy=1.00D-06.
 No special actions if energy rises.
 SCF Done:  E(RB3LYP) =  -831.161782512     A.U. after   17 cycles
            NFock= 17  Conv=0.44D-08     -V/T= 2.0096
 DoSCS=F DFT=T ScalE2(SS,OS)=  1.000000  1.000000
 ExpMin= 4.38D-02 ExpMax= 4.17D+03 ExpMxC= 6.27D+02 IAcc=3 IRadAn=         5 AccDes= 0.00D+00
 HarFok:  IExCor=  205 AccDes= 0.00D+00 IRadAn=         5 IDoV=-2 UseB2=F ITyADJ=14
 ICtDFT= 12500011 ScaDFX=  1.000000  1.000000  1.000000  1.000000
 Range of M.O.s used for correlation:    20   419
 NBasis=   421 NAE=    66 NBE=    66 NFC=    19 NFV=     0
 NROrb=    400 NOA=    47 NOB=    47 NVA=   353 NVB=   353

 **** Warning!!: The largest alpha MO coefficient is  0.18306464D+03

 Orbital symmetries:
       Occupied  (A) (A) (A) (A) (A) (A) (A) (A) (A) (A) (A) (A)
                 (A) (A) (A) (A) (A) (A) (A) (A) (A) (A) (A) (A)
                 (A) (A) (A) (A) (A) (A) (A) (A) (A) (A) (A) (A)
                 (A) (A) (A) (A) (A) (A) (A) (A) (A) (A) (A) (A)
                 (A) (A) (A) (A) (A) (A) (A) (A) (A) (A) (A) (A)
                 (A) (A) (A) (A) (A) (A)
       Virtual   (A) (A) (A) (A) (A) (A) (A) (A) (A) (A) (A) (A)
                 (A) (A) (A) (A) (A) (A) (A) (A) (A) (A) (A) (A)
                 (A) (A) (A) (A) (A) (A) (A) (A) (A) (A) (A) (A)
                 (A) (A) (A) (A) (A) (A) (A) (A) (A) (A) (A) (A)
                 (A) (A) (A) (A) (A) (A) (A) (A) (A) (A) (A) (A)
                 (A) (A) (A) (A) (A) (A) (A) (A) (A) (A) (A) (A)
                 (A) (A) (A) (A) (A) (A) (A) (A) (A) (A) (A) (A)
                 (A) (A) (A) (A) (A) (A) (A) (A) (A) (A) (A) (A)
                 (A) (A) (A) (A) (A) (A) (A) (A) (A) (A) (A) (A)
                 (A) (A) (A) (A) (A) (A) (A) (A) (A) (A) (A) (A)
                 (A) (A) (A) (A) (A) (A) (A) (A) (A) (A) (A) (A)
                 (A) (A) (A) (A) (A) (A) (A) (A) (A) (A) (A) (A)
                 (A) (A) (A) (A) (A) (A) (A) (A) (A) (A) (A) (A)
                 (A) (A) (A) (A) (A) (A) (A) (A) (A) (A) (A) (A)
                 (A) (A) (A) (A) (A) (A) (A) (A) (A) (A) (A) (A)
                 (A) (A) (A) (A) (A) (A) (A) (A) (A) (A) (A) (A)
                 (A) (A) (A) (A) (A) (A) (A) (A) (A) (A) (A) (A)
                 (A) (A) (A) (A) (A) (A) (A) (A) (A) (A) (A) (A)
                 (A) (A) (A) (A) (A) (A) (A) (A) (A) (A) (A) (A)
                 (A) (A) (A) (A) (A) (A) (A) (A) (A) (A) (A) (A)
                 (A) (A) (A) (A) (A) (A) (A) (A) (A) (A) (A) (A)
                 (A) (A) (A) (A) (A) (A) (A) (A) (A) (A) (A) (A)
                 (A) (A) (A) (A) (A) (A) (A) (A) (A) (A) (A) (A)
                 (A) (A) (A) (A) (A) (A) (A) (A) (A) (A) (A) (A)
                 (A) (A) (A) (A) (A) (A) (A) (A) (A) (A) (A) (A)
                 (A) (A) (A) (A) (A) (A) (A) (A) (A) (A) (A) (A)
                 (A) (A) (A) (A) (A) (A) (A) (A) (A) (A) (A) (A)
                 (A) (A) (A) (A) (A) (A) (A) (A) (A) (A) (A) (A)
                 (A) (A) (A) (A) (A) (A) (A) (A) (A) (A) (A) (A)
                 (A) (A) (A) (A) (A)
    24 initial guesses have been made.
 Convergence on wavefunction:    0.001000000000000
 Iteration     1 Dimension    24 NMult     0 NNew     24
 CISAX will form    24 AO SS matrices at one time.
 New state      1 was old state      2
 New state      2 was old state      4
 New state      3 was old state      6
 New state      4 was old state     10
 New state      5 was old state      1
 New state      6 was old state      5
 New state      7 was old state     14
 New state      9 was old state      7
 New state     10 was old state      3
 New state     11 was old state     12
 New state     12 was old state     11
 Vector   4 SDiff=7.54D+00 TDiff=1.63D+02 assumed to be singlet.
 Vector  10 SDiff=5.95D+00 TDiff=1.27D+02 assumed to be singlet.
 Iteration     2 Dimension    36 NMult    24 NNew     12
 New state      3 was old state      5
 New state      4 was old state      3
 New state      5 was old state      6
 New state      6 was old state      9
 Iteration     3 Dimension    48 NMult    36 NNew     12
 Iteration     4 Dimension    60 NMult    48 NNew     12
 Iteration     5 Dimension    72 NMult    60 NNew     12
 Iteration     6 Dimension    82 NMult    72 NNew     10
 Iteration     7 Dimension    86 NMult    82 NNew      4
 ***********************************************************************
 Excited states from <AA,BB:AA,BB> singles matrix:
 ***********************************************************************
 
 Ground to excited state transition densities written to RWF  633
 Ground to excited state transition electric dipole moments (Au):
       state          X           Y           Z        Dip. S.      Osc.
         1        -0.0000      0.0000      0.0000      0.0000      0.0000
         2        -0.0000     -0.0000     -0.0000      0.0000      0.0000
         3        -0.2210      0.8314      0.2889      0.8234      0.0731
         4        -0.0000      0.0000      0.0000      0.0000      0.0000
         5         0.0871     -0.0017      0.0837      0.0146      0.0015
         6         0.3401      0.6162      0.0871      0.5030      0.0552
 Ground to excited state transition velocity dipole moments (Au):
       state          X           Y           Z        Dip. S.      Osc.
         1        -0.0000     -0.0000     -0.0000      0.0000      0.0000
         2         0.0000      0.0000      0.0000      0.0000      0.0000
         3         0.0365     -0.1115     -0.0401      0.0154      0.0770
         4         0.0000     -0.0000     -0.0000      0.0000      0.0000
         5        -0.0153      0.0025     -0.0215      0.0007      0.0030
         6        -0.0560     -0.0992     -0.0162      0.0132      0.0536
 Ground to excited state transition magnetic dipole moments (Au):
       state          X           Y           Z
         1         0.0000      0.0000      0.0000
         2         0.0000      0.0000      0.0000
         3        -0.3156      0.0432     -0.3816
         4        -0.0000      0.0000     -0.0000
         5         0.0617     -0.3799     -0.2056
         6         0.0482     -0.2379      0.6769
 Ground to excited state transition velocity quadrupole moments (Au):
       state          XX          YY          ZZ          XY          XZ          YZ
         1         0.0000     -0.0000     -0.0000      0.0000     -0.0000      0.0000
         2        -0.0000     -0.0000     -0.0000      0.0000     -0.0000      0.0000
         3        -0.0637     -0.2101      0.1140      0.1937      0.0870      0.0299
         4         0.0000     -0.0000      0.0000      0.0000      0.0000     -0.0000
         5         0.1098     -0.0477      0.0043     -0.0020      0.1567      0.0101
         6         0.5016     -0.3213      0.1143      0.0522     -0.0703      0.0007
 <0|del|b> * <b|rxdel|0> + <0|del|b> * <b|delr+rdel|0>
 Rotatory Strengths (R) in cgs (10**-40 erg-esu-cm/Gauss)
       state          XX          YY          ZZ    R(velocity)    E-M Angle
         1        -0.0000     -0.0000      0.0000     -0.0000       90.00
         2         0.0000      0.0000     -0.0000      0.0000       90.00
         3        32.9581     33.5061    -72.0582     -1.8647       90.98
         4        -0.0000      0.0000     -0.0000     -0.0000       90.00
         5         7.1901      7.5012     -3.0595      3.8773       77.30
         6        10.2774    -27.6662     59.9438     14.1850       83.12
 1/2[<0|r|b>*<b|rxdel|0> + (<0|rxdel|b>*<b|r|0>)*]
 Rotatory Strengths (R) in cgs (10**-40 erg-esu-cm/Gauss)
       state          XX          YY          ZZ     R(length)
         1         0.0000     -0.0000     -0.0000     -0.0000
         2         0.0000      0.0000      0.0000      0.0000
         3       -49.3103    -25.4147     77.9654      1.0801
         4        -0.0000     -0.0000      0.0000     -0.0000
         5        -3.7996     -0.4503     12.1697      2.6399
         6       -11.5858    103.6742    -41.6812     16.8024
  1/2[<0|del|b>*<b|r|0> + (<0|r|b>*<b|del|0>)*] (Au)
       state          X           Y           Z        Dip. S.   Osc.(frdel)
         1         0.0000     -0.0000     -0.0000      0.0000      0.0000
         2        -0.0000     -0.0000     -0.0000      0.0000      0.0000
         3        -0.0081     -0.0927     -0.0116      0.1123      0.0749
         4        -0.0000     -0.0000     -0.0000      0.0000      0.0000
         5        -0.0013     -0.0000     -0.0018      0.0031      0.0021
         6        -0.0190     -0.0611     -0.0014      0.0816      0.0544

 Excitation energies and oscillator strengths:
 
 Excited State   1:      Triplet-A      2.6642 eV  465.37 nm  f=0.0000  <S**2>=2.000
      64 -> 67        -0.14765
      66 -> 67         0.66318
      66 -> 68         0.10061
 This state for optimization and/or second-order correction.
 Total Energy, E(TD-HF/TD-DFT) =  -831.063874959    
 Copying the excited state density for this state as the 1-particle RhoCI density.
 
 Excited State   2:      Triplet-A      3.4493 eV  359.45 nm  f=0.0000  <S**2>=2.000
      62 -> 68        -0.10232
      63 -> 67         0.19114
      64 -> 67        -0.29469
      65 -> 67        -0.24311
      66 -> 67        -0.21613
      66 -> 68         0.47868
 
 Excited State   3:      Singlet-A      3.6231 eV  342.21 nm  f=0.0731  <S**2>=0.000
      66 -> 67         0.68693
 
 Excited State   4:      Triplet-A      3.7953 eV  326.68 nm  f=0.0000  <S**2>=2.000
      64 -> 67         0.32950
      65 -> 67         0.37039
      66 -> 68         0.46620
 
 Excited State   5:      Singlet-A      4.2051 eV  294.84 nm  f=0.0015  <S**2>=0.000
      64 -> 67        -0.24233
      65 -> 67         0.65541
 
 Excited State   6:      Singlet-A      4.4791 eV  276.80 nm  f=0.0552  <S**2>=0.000
      64 -> 67        -0.38986
      65 -> 67        -0.12015
      66 -> 67         0.10454
      66 -> 68         0.55444
 SavETr:  write IOETrn=   770 NScale= 10 NData=  16 NLR=1 NState=    6 LETran=     118.

 **********************************************************************

            Population analysis using the SCF Density.

 **********************************************************************

 Orbital symmetries:
       Occupied  (A) (A) (A) (A) (A) (A) (A) (A) (A) (A) (A) (A)
                 (A) (A) (A) (A) (A) (A) (A) (A) (A) (A) (A) (A)
                 (A) (A) (A) (A) (A) (A) (A) (A) (A) (A) (A) (A)
                 (A) (A) (A) (A) (A) (A) (A) (A) (A) (A) (A) (A)
                 (A) (A) (A) (A) (A) (A) (A) (A) (A) (A) (A) (A)
                 (A) (A) (A) (A) (A) (A)
       Virtual   (A) (A) (A) (A) (A) (A) (A) (A) (A) (A) (A) (A)
                 (A) (A) (A) (A) (A) (A) (A) (A) (A) (A) (A) (A)
                 (A) (A) (A) (A) (A) (A) (A) (A) (A) (A) (A) (A)
                 (A) (A) (A) (A) (A) (A) (A) (A) (A) (A) (A) (A)
                 (A) (A) (A) (A) (A) (A) (A) (A) (A) (A) (A) (A)
                 (A) (A) (A) (A) (A) (A) (A) (A) (A) (A) (A) (A)
                 (A) (A) (A) (A) (A) (A) (A) (A) (A) (A) (A) (A)
                 (A) (A) (A) (A) (A) (A) (A) (A) (A) (A) (A) (A)
                 (A) (A) (A) (A) (A) (A) (A) (A) (A) (A) (A) (A)
                 (A) (A) (A) (A) (A) (A) (A) (A) (A) (A) (A) (A)
                 (A) (A) (A) (A) (A) (A) (A) (A) (A) (A) (A) (A)
                 (A) (A) (A) (A) (A) (A) (A) (A) (A) (A) (A) (A)
                 (A) (A) (A) (A) (A) (A) (A) (A) (A) (A) (A) (A)
                 (A) (A) (A) (A) (A) (A) (A) (A) (A) (A) (A) (A)
                 (A) (A) (A) (A) (A) (A) (A) (A) (A) (A) (A) (A)
                 (A) (A) (A) (A) (A) (A) (A) (A) (A) (A) (A) (A)
                 (A) (A) (A) (A) (A) (A) (A) (A) (A) (A) (A) (A)
                 (A) (A) (A) (A) (A) (A) (A) (A) (A) (A) (A) (A)
                 (A) (A) (A) (A) (A) (A) (A) (A) (A) (A) (A) (A)
                 (A) (A) (A) (A) (A) (A) (A) (A) (A) (A) (A) (A)
                 (A) (A) (A) (A) (A) (A) (A) (A) (A) (A) (A) (A)
                 (A) (A) (A) (A) (A) (A) (A) (A) (A) (A) (A) (A)
                 (A) (A) (A) (A) (A) (A) (A) (A) (A) (A) (A) (A)
                 (A) (A) (A) (A) (A) (A) (A) (A) (A) (A) (A) (A)
                 (A) (A) (A) (A) (A) (A) (A) (A) (A) (A) (A) (A)
                 (A) (A) (A) (A) (A) (A) (A) (A) (A) (A) (A) (A)
                 (A) (A) (A) (A) (A) (A) (A) (A) (A) (A) (A) (A)
                 (A) (A) (A) (A) (A) (A) (A) (A) (A) (A) (A) (A)
                 (A) (A) (A) (A) (A) (A) (A) (A) (A) (A) (A) (A)
                 (A) (A) (A) (A) (A)
 The electronic state is 1-A.
 Alpha  occ. eigenvalues --  -14.37693 -14.37045 -14.36543 -14.36113 -14.34083
 Alpha  occ. eigenvalues --  -14.32564 -10.30553 -10.29766 -10.29619 -10.26299
 Alpha  occ. eigenvalues --  -10.25798 -10.24517 -10.24249 -10.23425 -10.22342
 Alpha  occ. eigenvalues --  -10.22336 -10.21310 -10.21246 -10.20395  -1.01557
 Alpha  occ. eigenvalues --   -0.95943  -0.94399  -0.92881  -0.91123  -0.88478
 Alpha  occ. eigenvalues --   -0.87282  -0.84859  -0.78934  -0.78382  -0.73005
 Alpha  occ. eigenvalues --   -0.69783  -0.66787  -0.65071  -0.61298  -0.59834
 Alpha  occ. eigenvalues --   -0.57300  -0.55852  -0.55450  -0.54141  -0.51141
 Alpha  occ. eigenvalues --   -0.50672  -0.48384  -0.47690  -0.46819  -0.45809
 Alpha  occ. eigenvalues --   -0.44954  -0.44254  -0.43644  -0.42093  -0.41360
 Alpha  occ. eigenvalues --   -0.39437  -0.38814  -0.38595  -0.37857  -0.37614
 Alpha  occ. eigenvalues --   -0.36772  -0.36558  -0.35950  -0.35333  -0.34671
 Alpha  occ. eigenvalues --   -0.32374  -0.30139  -0.28062  -0.26621  -0.26113
 Alpha  occ. eigenvalues --   -0.22166
 Alpha virt. eigenvalues --   -0.06905  -0.03314  -0.02741  -0.01927  -0.01004
 Alpha virt. eigenvalues --   -0.00553   0.00278   0.00774   0.00957   0.01302
 Alpha virt. eigenvalues --    0.01697   0.02335   0.02877   0.03183   0.04027
 Alpha virt. eigenvalues --    0.04264   0.04613   0.05075   0.05781   0.06499
 Alpha virt. eigenvalues --    0.06683   0.07319   0.07597   0.07823   0.08543
 Alpha virt. eigenvalues --    0.09017   0.09612   0.10002   0.10378   0.10681
 Alpha virt. eigenvalues --    0.11282   0.11558   0.11884   0.12445   0.12857
 Alpha virt. eigenvalues --    0.13721   0.14165   0.14256   0.14430   0.14831
 Alpha virt. eigenvalues --    0.15117   0.15668   0.15785   0.16354   0.16576
 Alpha virt. eigenvalues --    0.17258   0.17474   0.18098   0.18284   0.18625
 Alpha virt. eigenvalues --    0.18830   0.19125   0.19724   0.19797   0.20398
 Alpha virt. eigenvalues --    0.20612   0.21372   0.21977   0.22144   0.22560
 Alpha virt. eigenvalues --    0.22919   0.23034   0.23236   0.23776   0.24113
 Alpha virt. eigenvalues --    0.24364   0.24619   0.25048   0.25360   0.25679
 Alpha virt. eigenvalues --    0.26002   0.26102   0.26362   0.26481   0.27218
 Alpha virt. eigenvalues --    0.27505   0.27573   0.27904   0.28346   0.28621
 Alpha virt. eigenvalues --    0.28812   0.29114   0.29210   0.30202   0.30472
 Alpha virt. eigenvalues --    0.30901   0.31326   0.31413   0.32336   0.33206
 Alpha virt. eigenvalues --    0.33854   0.34326   0.34627   0.34892   0.35584
 Alpha virt. eigenvalues --    0.36263   0.36516   0.36834   0.37248   0.37668
 Alpha virt. eigenvalues --    0.38652   0.39208   0.39953   0.40615   0.41719
 Alpha virt. eigenvalues --    0.42959   0.43838   0.44620   0.47321   0.49942
 Alpha virt. eigenvalues --    0.54108   0.56224   0.57400   0.58741   0.62126
 Alpha virt. eigenvalues --    0.64958   0.65745   0.67011   0.68107   0.69414
 Alpha virt. eigenvalues --    0.70361   0.70979   0.72369   0.73001   0.73483
 Alpha virt. eigenvalues --    0.73737   0.74584   0.75389   0.76678   0.77586
 Alpha virt. eigenvalues --    0.77818   0.80171   0.80219   0.81205   0.82472
 Alpha virt. eigenvalues --    0.83068   0.83618   0.84603   0.85470   0.86356
 Alpha virt. eigenvalues --    0.86697   0.87887   0.88188   0.89088   0.90763
 Alpha virt. eigenvalues --    0.91179   0.92483   0.92600   0.93605   0.94233
 Alpha virt. eigenvalues --    0.95005   0.96211   0.97398   0.97541   0.99110
 Alpha virt. eigenvalues --    0.99740   1.00381   1.01077   1.02028   1.02506
 Alpha virt. eigenvalues --    1.03137   1.03441   1.04830   1.04925   1.05690
 Alpha virt. eigenvalues --    1.05981   1.06757   1.07623   1.08542   1.09156
 Alpha virt. eigenvalues --    1.10212   1.11262   1.11498   1.12575   1.13117
 Alpha virt. eigenvalues --    1.14893   1.15357   1.16114   1.17766   1.19489
 Alpha virt. eigenvalues --    1.20103   1.20970   1.22430   1.24321   1.24577
 Alpha virt. eigenvalues --    1.26297   1.26959   1.28264   1.28962   1.30713
 Alpha virt. eigenvalues --    1.31376   1.33013   1.33909   1.34614   1.36297
 Alpha virt. eigenvalues --    1.36816   1.38325   1.39325   1.40997   1.43089
 Alpha virt. eigenvalues --    1.43715   1.46562   1.48428   1.49775   1.51202
 Alpha virt. eigenvalues --    1.51987   1.52948   1.54674   1.55475   1.57488
 Alpha virt. eigenvalues --    1.58437   1.58957   1.62169   1.63630   1.67009
 Alpha virt. eigenvalues --    1.67611   1.68914   1.69633   1.72453   1.74052
 Alpha virt. eigenvalues --    1.75517   1.76637   1.78835   1.79552   1.80394
 Alpha virt. eigenvalues --    1.82615   1.83052   1.84224   1.85401   1.86448
 Alpha virt. eigenvalues --    1.88445   1.89080   1.90176   1.91593   1.92267
 Alpha virt. eigenvalues --    1.93031   1.93637   1.95506   1.96021   1.97255
 Alpha virt. eigenvalues --    1.98390   1.99484   2.00049   2.01711   2.03882
 Alpha virt. eigenvalues --    2.04283   2.05492   2.06948   2.09773   2.10896
 Alpha virt. eigenvalues --    2.11794   2.13041   2.13330   2.13589   2.15268
 Alpha virt. eigenvalues --    2.15981   2.17125   2.19429   2.20349   2.22061
 Alpha virt. eigenvalues --    2.22409   2.25306   2.26729   2.27550   2.29819
 Alpha virt. eigenvalues --    2.30072   2.32876   2.34611   2.34982   2.36541
 Alpha virt. eigenvalues --    2.37985   2.40222   2.40661   2.42728   2.43452
 Alpha virt. eigenvalues --    2.46752   2.47084   2.49372   2.49698   2.50640
 Alpha virt. eigenvalues --    2.51538   2.53345   2.55242   2.56490   2.58439
 Alpha virt. eigenvalues --    2.59095   2.59582   2.62159   2.62577   2.64307
 Alpha virt. eigenvalues --    2.65959   2.67778   2.68911   2.69496   2.70359
 Alpha virt. eigenvalues --    2.71944   2.74315   2.76845   2.77683   2.79049
 Alpha virt. eigenvalues --    2.81162   2.84329   2.84816   2.86744   2.90160
 Alpha virt. eigenvalues --    2.91497   2.92416   2.94441   2.95451   2.97320
 Alpha virt. eigenvalues --    2.97653   2.99374   3.01303   3.03169   3.07637
 Alpha virt. eigenvalues --    3.12027   3.17278   3.18708   3.19806   3.23292
 Alpha virt. eigenvalues --    3.29659   3.31129   3.32251   3.36066   3.37954
 Alpha virt. eigenvalues --    3.40812   3.42234   3.45336   3.47591   3.49861
 Alpha virt. eigenvalues --    3.54513   3.56374   3.61837   3.72721   4.22326
 Alpha virt. eigenvalues --    4.22477   4.24000   4.32114   4.33874   4.34532
 Alpha virt. eigenvalues --    4.35887   4.37903   4.41803   4.44448   4.48164
 Alpha virt. eigenvalues --    4.49896   4.51007   4.51810   4.55961   4.61805
 Alpha virt. eigenvalues --    4.66684   4.87583   4.93293
          Condensed to atoms (all electrons):
               1          2          3          4          5          6
     1  C    8.144857  -2.890063  -2.577573  -0.138450  -0.073638   0.003740
     2  C   -2.890063  21.859547   3.764391  -1.041314   3.679381   0.016970
     3  C   -2.577573   3.764391  15.908297  -0.272391   1.817937   0.107755
     4  C   -0.138450  -1.041314  -0.272391  11.081437  -3.773884   0.293955
     5  C   -0.073638   3.679381   1.817937  -3.773884  15.094786  -0.346452
     6  N    0.003740   0.016970   0.107755   0.293955  -0.346452   7.524133
     7  C   -0.028799  -0.319064  -0.120506  -0.623234  -0.011214   0.053342
     8  N   -0.000477  -0.002845  -0.005383   0.000543   0.052464  -0.284530
     9  N   -0.006347   0.062635   0.044110   0.044016   0.049665   0.008521
    10  C   -0.418192   2.145559   1.973178  -0.246941   1.755268  -0.323201
    11  N   -0.001209  -0.192002  -0.051579  -0.016120  -0.039706  -0.026991
    12  C    0.475503  -8.682981  -3.903824  -1.117965  -6.833979   0.253648
    13  C    4.370894 -13.964317 -11.789431   0.835170  -2.902094   0.005787
    14  C   -1.778560   2.156983   1.324538   1.412784  -2.561063   0.055914
    15  C    0.161193  -0.931007  -0.454927   0.124221  -0.315096   0.008858
    16  C    0.152121  -0.096251   0.085194  -0.184674   0.364623  -0.009424
    17  N   -0.009032   0.021328   0.002908   0.007552  -0.001705   0.001135
    18  C   -0.233359   0.659351   0.164793   0.089769  -0.159489   0.002405
    19  N   -0.002095   0.005640  -0.002980  -0.000995   0.002086  -0.000023
    20  H    0.501335  -0.161202  -0.007904  -0.023116   0.015530   0.000009
    21  H    0.600626  -0.188216  -0.143317   0.031367  -0.025928   0.000043
    22  H    0.445662  -0.134172   0.020150   0.008448   0.003598  -0.000055
    23  H    0.004009   0.028039   0.076508   0.032485  -0.007183  -0.000125
    24  H   -0.004004  -0.023466  -0.037437   0.199900   0.142068  -0.020458
    25  H    0.000003  -0.000431   0.000382   0.002696  -0.014331   0.027441
    26  H    0.000009   0.000212  -0.000821   0.000780  -0.006588  -0.005981
    27  H   -0.000909  -0.028893  -0.005273   0.004284  -0.021403   0.000518
    28  H    0.000628   0.010723  -0.000706  -0.000515   0.012228   0.000416
    29  H    0.017252  -0.059086  -0.033799   0.018091  -0.035742   0.000180
    30  H   -0.043275   0.172754   0.036498   0.004803   0.003983   0.000073
    31  H    0.012058   0.072649   0.009495   0.008110   0.001079  -0.000028
               7          8          9         10         11         12
     1  C   -0.028799  -0.000477  -0.006347  -0.418192  -0.001209   0.475503
     2  C   -0.319064  -0.002845   0.062635   2.145559  -0.192002  -8.682981
     3  C   -0.120506  -0.005383   0.044110   1.973178  -0.051579  -3.903824
     4  C   -0.623234   0.000543   0.044016  -0.246941  -0.016120  -1.117965
     5  C   -0.011214   0.052464   0.049665   1.755268  -0.039706  -6.833979
     6  N    0.053342  -0.284530   0.008521  -0.323201  -0.026991   0.253648
     7  C    6.061310   0.301334  -0.018504  -0.874694   0.120561   1.361462
     8  N    0.301334   7.076908  -0.250877   0.283322  -0.013000  -0.298192
     9  N   -0.018504  -0.250877   7.485337  -0.025826  -0.321103   0.272256
    10  C   -0.874694   0.283322  -0.025826  16.251905   0.172069 -13.499442
    11  N    0.120561  -0.013000  -0.321103   0.172069   7.257184  -0.107896
    12  C    1.361462  -0.298192   0.272256 -13.499442  -0.107896  33.014392
    13  C   -0.333746   0.053634  -0.028935  -1.418288   0.227821   5.677362
    14  C   -0.127481   0.009627  -0.011463   0.564461  -0.061147  -1.958578
    15  C    0.000262   0.000216   0.009716  -0.284777   0.040911   0.602399
    16  C    0.010376  -0.000597  -0.007597  -0.066344  -0.047209   0.233033
    17  N   -0.005221   0.000268   0.002266   0.013053   0.002408  -0.041097
    18  C   -0.012139   0.000320  -0.005587   0.194953   0.009984  -0.455351
    19  N    0.000046  -0.000002   0.000083  -0.001797  -0.000350   0.001976
    20  H    0.000015   0.000000   0.000023  -0.000569  -0.000123   0.019690
    21  H   -0.000322   0.000000  -0.000008   0.000050   0.000013  -0.016121
    22  H    0.000045  -0.000000  -0.000012   0.000109  -0.000024   0.001537
    23  H    0.001364  -0.000004   0.000009  -0.005299   0.000006   0.019978
    24  H   -0.007013   0.000083   0.000071   0.015086   0.000049   0.059127
    25  H    0.023903   0.304030  -0.006137  -0.018757  -0.000703   0.013581
    26  H    0.013437   0.307806   0.026557  -0.014165   0.000326   0.010364
    27  H    0.001401   0.000085   0.018147   0.051325   0.306844  -0.033080
    28  H   -0.006607  -0.000249   0.002244  -0.105947   0.313986   0.094234
    29  H   -0.005583   0.000073   0.001078   0.010248  -0.004373  -0.066774
    30  H   -0.000692   0.000002   0.000342   0.015099  -0.001305  -0.051277
    31  H   -0.000273   0.000000  -0.000029  -0.006489  -0.000436  -0.031905
              13         14         15         16         17         18
     1  C    4.370894  -1.778560   0.161193   0.152121  -0.009032  -0.233359
     2  C  -13.964317   2.156983  -0.931007  -0.096251   0.021328   0.659351
     3  C  -11.789431   1.324538  -0.454927   0.085194   0.002908   0.164793
     4  C    0.835170   1.412784   0.124221  -0.184674   0.007552   0.089769
     5  C   -2.902094  -2.561063  -0.315096   0.364623  -0.001705  -0.159489
     6  N    0.005787   0.055914   0.008858  -0.009424   0.001135   0.002405
     7  C   -0.333746  -0.127481   0.000262   0.010376  -0.005221  -0.012139
     8  N    0.053634   0.009627   0.000216  -0.000597   0.000268   0.000320
     9  N   -0.028935  -0.011463   0.009716  -0.007597   0.002266  -0.005587
    10  C   -1.418288   0.564461  -0.284777  -0.066344   0.013053   0.194953
    11  N    0.227821  -0.061147   0.040911  -0.047209   0.002408   0.009984
    12  C    5.677362  -1.958578   0.602399   0.233033  -0.041097  -0.455351
    13  C   33.453707  -8.568363   1.264874   0.995539   0.006138  -1.683150
    14  C   -8.568363  15.252043  -0.249817  -1.440524  -0.018360   1.523068
    15  C    1.264874  -0.249817   7.439112  -1.034094   0.011640  -1.229285
    16  C    0.995539  -1.440524  -1.034094   7.896822   0.453158  -1.280299
    17  N    0.006138  -0.018360   0.011640   0.453158   6.932171   0.015616
    18  C   -1.683150   1.523068  -1.229285  -1.280299   0.015616   8.063335
    19  N    0.001388  -0.035835  -0.011047  -0.023143  -0.000587   0.521697
    20  H    0.146395  -0.176961   0.047457   0.005490   0.000015  -0.020565
    21  H    0.084318   0.014861  -0.002703  -0.002906  -0.000013   0.003817
    22  H   -0.005662   0.009210  -0.014455   0.017626  -0.000219  -0.012577
    23  H    0.150926  -0.003164   0.000256   0.000946  -0.000031   0.000012
    24  H   -0.013613   0.000159  -0.000573   0.000545  -0.000014  -0.000087
    25  H   -0.002648   0.000156  -0.000014   0.000022  -0.000002  -0.000001
    26  H    0.000007  -0.000055   0.000002   0.000011   0.000001  -0.000001
    27  H   -0.007563   0.027780   0.007178  -0.003096   0.000187   0.000345
    28  H    0.007113  -0.000779  -0.005366   0.004871  -0.000385  -0.000492
    29  H   -0.097418   0.640218  -0.028184  -0.046672  -0.000574   0.007205
    30  H   -0.247619   0.453594  -0.104180   0.028578   0.000251   0.036333
    31  H   -0.141541   0.063392   0.443097  -0.073630  -0.004112  -0.071594
              19         20         21         22         23         24
     1  C   -0.002095   0.501335   0.600626   0.445662   0.004009  -0.004004
     2  C    0.005640  -0.161202  -0.188216  -0.134172   0.028039  -0.023466
     3  C   -0.002980  -0.007904  -0.143317   0.020150   0.076508  -0.037437
     4  C   -0.000995  -0.023116   0.031367   0.008448   0.032485   0.199900
     5  C    0.002086   0.015530  -0.025928   0.003598  -0.007183   0.142068
     6  N   -0.000023   0.000009   0.000043  -0.000055  -0.000125  -0.020458
     7  C    0.000046   0.000015  -0.000322   0.000045   0.001364  -0.007013
     8  N   -0.000002   0.000000   0.000000  -0.000000  -0.000004   0.000083
     9  N    0.000083   0.000023  -0.000008  -0.000012   0.000009   0.000071
    10  C   -0.001797  -0.000569   0.000050   0.000109  -0.005299   0.015086
    11  N   -0.000350  -0.000123   0.000013  -0.000024   0.000006   0.000049
    12  C    0.001976   0.019690  -0.016121   0.001537   0.019978   0.059127
    13  C    0.001388   0.146395   0.084318  -0.005662   0.150926  -0.013613
    14  C   -0.035835  -0.176961   0.014861   0.009210  -0.003164   0.000159
    15  C   -0.011047   0.047457  -0.002703  -0.014455   0.000256  -0.000573
    16  C   -0.023143   0.005490  -0.002906   0.017626   0.000946   0.000545
    17  N   -0.000587   0.000015  -0.000013  -0.000219  -0.000031  -0.000014
    18  C    0.521697  -0.020565   0.003817  -0.012577   0.000012  -0.000087
    19  N    6.985962   0.000321  -0.000014   0.000265   0.000000   0.000000
    20  H    0.000321   0.559946  -0.023740  -0.033857   0.000167   0.000002
    21  H   -0.000014  -0.023740   0.529122  -0.026723   0.002747  -0.000008
    22  H    0.000265  -0.033857  -0.026723   0.559145   0.000325   0.000003
    23  H    0.000000   0.000167   0.002747   0.000325   0.576826  -0.004871
    24  H    0.000000   0.000002  -0.000008   0.000003  -0.004871   0.552801
    25  H    0.000000   0.000000   0.000000  -0.000000   0.000000   0.000000
    26  H    0.000000   0.000000   0.000000  -0.000000  -0.000000   0.000000
    27  H   -0.000032   0.000001  -0.000000   0.000000   0.000000   0.000000
    28  H    0.000008  -0.000000   0.000000  -0.000000   0.000000  -0.000000
    29  H   -0.001846   0.000200  -0.000001  -0.000040   0.000002  -0.000000
    30  H    0.001525   0.004723   0.000148  -0.000669  -0.000004  -0.000000
    31  H   -0.004069  -0.001340   0.000011   0.003771   0.000010  -0.000000
              25         26         27         28         29         30
     1  C    0.000003   0.000009  -0.000909   0.000628   0.017252  -0.043275
     2  C   -0.000431   0.000212  -0.028893   0.010723  -0.059086   0.172754
     3  C    0.000382  -0.000821  -0.005273  -0.000706  -0.033799   0.036498
     4  C    0.002696   0.000780   0.004284  -0.000515   0.018091   0.004803
     5  C   -0.014331  -0.006588  -0.021403   0.012228  -0.035742   0.003983
     6  N    0.027441  -0.005981   0.000518   0.000416   0.000180   0.000073
     7  C    0.023903   0.013437   0.001401  -0.006607  -0.005583  -0.000692
     8  N    0.304030   0.307806   0.000085  -0.000249   0.000073   0.000002
     9  N   -0.006137   0.026557   0.018147   0.002244   0.001078   0.000342
    10  C   -0.018757  -0.014165   0.051325  -0.105947   0.010248   0.015099
    11  N   -0.000703   0.000326   0.306844   0.313986  -0.004373  -0.001305
    12  C    0.013581   0.010364  -0.033080   0.094234  -0.066774  -0.051277
    13  C   -0.002648   0.000007  -0.007563   0.007113  -0.097418  -0.247619
    14  C    0.000156  -0.000055   0.027780  -0.000779   0.640218   0.453594
    15  C   -0.000014   0.000002   0.007178  -0.005366  -0.028184  -0.104180
    16  C    0.000022   0.000011  -0.003096   0.004871  -0.046672   0.028578
    17  N   -0.000002   0.000001   0.000187  -0.000385  -0.000574   0.000251
    18  C   -0.000001  -0.000001   0.000345  -0.000492   0.007205   0.036333
    19  N    0.000000   0.000000  -0.000032   0.000008  -0.001846   0.001525
    20  H    0.000000   0.000000   0.000001  -0.000000   0.000200   0.004723
    21  H    0.000000   0.000000  -0.000000   0.000000  -0.000001   0.000148
    22  H   -0.000000  -0.000000   0.000000  -0.000000  -0.000040  -0.000669
    23  H    0.000000  -0.000000   0.000000   0.000000   0.000002  -0.000004
    24  H    0.000000   0.000000   0.000000  -0.000000  -0.000000  -0.000000
    25  H    0.391091  -0.024029   0.000000   0.000005   0.000000  -0.000000
    26  H   -0.024029   0.385142  -0.000000   0.000001  -0.000000  -0.000000
    27  H    0.000000  -0.000000   0.411700  -0.024650  -0.001541   0.000014
    28  H    0.000005   0.000001  -0.024650   0.364843   0.001089  -0.000007
    29  H    0.000000  -0.000000  -0.001541   0.001089   0.522173  -0.027361
    30  H   -0.000000  -0.000000   0.000014  -0.000007  -0.027361   0.553650
    31  H   -0.000000   0.000000   0.000001   0.000000   0.003982  -0.004375
              31
     1  C    0.012058
     2  C    0.072649
     3  C    0.009495
     4  C    0.008110
     5  C    0.001079
     6  N   -0.000028
     7  C   -0.000273
     8  N    0.000000
     9  N   -0.000029
    10  C   -0.006489
    11  N   -0.000436
    12  C   -0.031905
    13  C   -0.141541
    14  C    0.063392
    15  C    0.443097
    16  C   -0.073630
    17  N   -0.004112
    18  C   -0.071594
    19  N   -0.004069
    20  H   -0.001340
    21  H    0.000011
    22  H    0.003771
    23  H    0.000010
    24  H   -0.000000
    25  H   -0.000000
    26  H    0.000000
    27  H    0.000001
    28  H    0.000000
    29  H    0.003982
    30  H   -0.004375
    31  H    0.506517
 Mulliken charges:
               1
     1  C   -0.683907
     2  C    0.059145
     3  C    0.071717
     4  C   -0.760811
     5  C    0.134799
     6  N   -0.347573
     7  C    0.546236
     8  N   -0.534560
     9  N   -0.344650
    10  C   -0.134957
    11  N   -0.566887
    12  C    0.987920
    13  C   -0.076686
    14  C   -0.516638
    15  C    0.504133
    16  C    0.067507
    17  N   -0.388740
    18  C   -0.129025
    19  N   -0.436182
    20  H    0.148061
    21  H    0.162897
    22  H    0.158570
    23  H    0.126064
    24  H    0.141651
    25  H    0.303742
    26  H    0.306985
    27  H    0.296629
    28  H    0.333314
    29  H    0.187201
    30  H    0.168394
    31  H    0.215650
 Sum of Mulliken charges =  -0.00000
 Mulliken charges with hydrogens summed into heavy atoms:
               1
     1  C   -0.214379
     2  C    0.059145
     3  C    0.197782
     4  C   -0.619159
     5  C    0.134799
     6  N   -0.347573
     7  C    0.546236
     8  N    0.076168
     9  N   -0.344650
    10  C   -0.134957
    11  N    0.063056
    12  C    0.987920
    13  C   -0.076686
    14  C   -0.161044
    15  C    0.719783
    16  C    0.067507
    17  N   -0.388740
    18  C   -0.129025
    19  N   -0.436182
 Electronic spatial extent (au):  <R**2>=           4874.8554
 Charge=             -0.0000 electrons
 Dipole moment (field-independent basis, Debye):
    X=             -1.7647    Y=              3.1817    Z=             -3.7465  Tot=              5.2224
 Quadrupole moment (field-independent basis, Debye-Ang):
   XX=           -117.3307   YY=           -110.2595   ZZ=           -113.2461
   XY=             19.6415   XZ=             -0.2416   YZ=              9.1982
 Traceless Quadrupole moment (field-independent basis, Debye-Ang):
   XX=             -3.7186   YY=              3.3526   ZZ=              0.3660
   XY=             19.6415   XZ=             -0.2416   YZ=              9.1982
 Octapole moment (field-independent basis, Debye-Ang**2):
  XXX=           -212.0239  YYY=             26.3114  ZZZ=            -45.8468  XYY=            -33.8184
  XXY=             27.9051  XXZ=             24.9100  XZZ=             -4.6811  YZZ=             -1.3613
  YYZ=            -14.9048  XYZ=             -2.0148
 Hexadecapole moment (field-independent basis, Debye-Ang**3):
 XXXX=          -4348.7009 YYYY=          -1771.0667 ZZZZ=           -711.8439 XXXY=            518.0818
 XXXZ=            -26.2120 YYYX=            119.0637 YYYZ=             71.4344 ZZZX=            -18.6439
 ZZZY=             88.2023 XXYY=          -1063.4043 XXZZ=           -814.9673 YYZZ=           -442.0168
 XXYZ=            -18.6934 YYXZ=             -0.9015 ZZXY=             28.5585
 N-N= 1.333802324591D+03 E-N=-4.595697665640D+03  KE= 8.232676055795D+02
 Unable to Open any file for archive entry.
 1\1\GINC-N2\SP\RB3LYP TD-FC\6-31+G(d,p)\C13H12N6\HPCMGAC13\31-Jul-2025
 \0\\# td=(50-50,nstates=3) b3lyp/6-31+g(d,p) geom=connectivity\\Title 
 Card Required\\0,1\C,0,-2.199564,2.715102,0.402266\C,0,-0.83265,2.0732
 76,0.269334\C,0,0.228967,2.897678,-0.188104\C,0,1.484026,2.399824,-0.4
 3536\C,0,1.779227,1.040505,-0.158235\N,0,3.018856,0.578195,-0.470348\C
 ,0,3.253957,-0.693401,-0.186729\N,0,4.406839,-1.259675,-0.647442\N,0,2
 .461033,-1.499541,0.567592\C,0,1.270181,-1.045874,0.910458\N,0,0.56215
 8,-1.854821,1.783218\C,0,0.761161,0.22337,0.432388\C,0,-0.58142,0.7248
 37,0.542769\C,0,-1.759595,-0.200436,0.808595\C,0,-2.620508,-0.450513,-
 0.481514\C,0,-1.859071,-1.149253,-1.532381\N,0,-1.250779,-1.685196,-2.
 361997\C,0,-3.841383,-1.204308,-0.141948\N,0,-4.806164,-1.765858,0.174
 807\H,0,-2.822348,2.250121,1.17132\H,0,-2.090671,3.77045,0.669532\H,0,
 -2.765818,2.693508,-0.539066\H,0,0.021853,3.946863,-0.384337\H,0,2.275
 749,3.017859,-0.845137\H,0,4.695265,-2.140624,-0.252745\H,0,5.105119,-
 0.647672,-1.039589\H,0,0.037795,-1.39005,2.511617\H,0,1.125453,-2.6248
 93,2.125096\H,0,-1.447108,-1.181283,1.155519\H,0,-2.438081,0.218641,1.
 557638\H,0,-2.940766,0.510518,-0.899898\\Version=ES64L-G16RevC.02\Stat
 e=1-A\HF=-831.1617825\RMSD=4.412e-09\PG=C01 [X(C13H12N6)]\\@
 The archive entry for this job was punched.


 THERE ARE TWO THINGS THAT EVERYBODY THINKS THEY CAN DO BETTER THAN
 ANYONE ELSE - PUNCH THE FIRE, AND EDIT A DAILY PAPER.
 -- UNCLE ESEK, "CENTURY MAGAZINE", 1885
 Job cpu time:       0 days  1 hours 28 minutes 52.6 seconds.
 Elapsed time:       0 days  0 hours  5 minutes 41.7 seconds.
 File lengths (MBytes):  RWF=   1032 Int=      0 D2E=      0 Chk=     46 Scr=      2
 Normal termination of Gaussian 16 at Thu Jul 31 16:39:12 2025.
