 Entering Gaussian System, Link 0=g16
 Input=M2259e.gjf
 Output=M2259e.log
 Initial command:
 /hpc/softwares/Gaussian/g16/l1.exe "/hpc/home/hpcmgac13/pbs.14102.admin1.x8z/Gau-3963673.inp" -scrdir="/hpc/home/hpcmgac13/pbs.14102.admin1.x8z/"
 Default linda workers: n2
 Default is to use   8 SMP processors on each worker.
 Entering Link 1 = /hpc/softwares/Gaussian/g16/l1.exe PID=   3963674.
  
 Copyright (c) 1988-2021, Gaussian, Inc.  All Rights Reserved.
  
 This is part of the Gaussian(R) 16 program.  It is based on
 the Gaussian(R) 09 system (copyright 2009, Gaussian, Inc.),
 the Gaussian(R) 03 system (copyright 2003, Gaussian, Inc.),
 the Gaussian(R) 98 system (copyright 1998, Gaussian, Inc.),
 the Gaussian(R) 94 system (copyright 1995, Gaussian, Inc.),
 the Gaussian 92(TM) system (copyright 1992, Gaussian, Inc.),
 the Gaussian 90(TM) system (copyright 1990, Gaussian, Inc.),
 the Gaussian 88(TM) system (copyright 1988, Gaussian, Inc.),
 the Gaussian 86(TM) system (copyright 1986, Carnegie Mellon
 University), and the Gaussian 82(TM) system (copyright 1983,
 Carnegie Mellon University). Gaussian is a federally registered
 trademark of Gaussian, Inc.
  
 This software contains proprietary and confidential information,
 including trade secrets, belonging to Gaussian, Inc.
  
 This software is provided under written license and may be
 used, copied, transmitted, or stored only in accord with that
 written license.
  
 The following legend is applicable only to US Government
 contracts under FAR:
  
                    RESTRICTED RIGHTS LEGEND
  
 Use, reproduction and disclosure by the US Government is
 subject to restrictions as set forth in subparagraphs (a)
 and (c) of the Commercial Computer Software - Restricted
 Rights clause in FAR 52.227-19.
  
 Gaussian, Inc.
 340 Quinnipiac St., Bldg. 40, Wallingford CT 06492
  
  
 ---------------------------------------------------------------
 Warning -- This program may not be used in any manner that
 competes with the business of Gaussian, Inc. or will provide
 assistance to any competitor of Gaussian, Inc.  The licensee
 of this program is prohibited from giving any competitor of
 Gaussian, Inc. access to this program.  By using this program,
 the user acknowledges that Gaussian, Inc. is engaged in the
 business of creating and licensing software in the field of
 computational chemistry and represents and warrants to the
 licensee that it is not a competitor of Gaussian, Inc. and that
 it will not use this program in any manner prohibited above.
 ---------------------------------------------------------------
  

 Cite this work as:
 Gaussian 16, Revision C.02,
 M. J. Frisch, G. W. Trucks, H. B. Schlegel, G. E. Scuseria, 
 M. A. Robb, J. R. Cheeseman, G. Scalmani, V. Barone, 
 G. A. Petersson, H. Nakatsuji, X. Li, M. Caricato, A. V. Marenich, 
 J. Bloino, B. G. Janesko, R. Gomperts, B. Mennucci, H. P. Hratchian, 
 J. V. Ortiz, A. F. Izmaylov, J. L. Sonnenberg, D. Williams-Young, 
 F. Ding, F. Lipparini, F. Egidi, J. Goings, B. Peng, A. Petrone, 
 T. Henderson, D. Ranasinghe, V. G. Zakrzewski, J. Gao, N. Rega, 
 G. Zheng, W. Liang, M. Hada, M. Ehara, K. Toyota, R. Fukuda, 
 J. Hasegawa, M. Ishida, T. Nakajima, Y. Honda, O. Kitao, H. Nakai, 
 T. Vreven, K. Throssell, J. A. Montgomery, Jr., J. E. Peralta, 
 F. Ogliaro, M. J. Bearpark, J. J. Heyd, E. N. Brothers, K. N. Kudin, 
 V. N. Staroverov, T. A. Keith, R. Kobayashi, J. Normand, 
 K. Raghavachari, A. P. Rendell, J. C. Burant, S. S. Iyengar, 
 J. Tomasi, M. Cossi, J. M. Millam, M. Klene, C. Adamo, R. Cammi, 
 J. W. Ochterski, R. L. Martin, K. Morokuma, O. Farkas, 
 J. B. Foresman, and D. J. Fox, Gaussian, Inc., Wallingford CT, 2019.
 
 ******************************************
 Gaussian 16:  ES64L-G16RevC.02  7-Dec-2021
                19-Sep-2025 
 ******************************************
 SetLPE:    new flags="-opt 'Tsnet.Node.lindarsharg: ssh'  -nodelist 'n2.head.cm.mguif.local' -env GAUSS_MDEF=1342177280 -env GAUSS_EXEDIR="/hpc/softwares/Gaussian/g16/bsd:/hpc/softwares/Gaussian/g16""
 Will use up to    1 processors via Linda.
 ----------------------------------------------------------
 # td=(50-50,nstates=3) b3lyp/6-31+g(d,p) geom=connectivity
 ----------------------------------------------------------
 1/38=1,57=2,172=1/1;
 2/12=2,17=6,18=5,40=1/2;
 3/5=1,6=6,7=111,11=9,25=1,30=1,74=-5/1,2,3,8;
 4//1;
 5/5=2,38=5/2;
 8/6=1,10=2,108=3/1;
 9/41=3,42=1,48=2,70=2/14;
 6/7=2,8=2,9=2,10=2/1;
 99/5=1,9=1/99;
 -------------------
 Title Card Required
 -------------------
 Symbolic Z-matrix:
 Charge =  0 Multiplicity = 1
 C                    -0.34919   3.75549  -0.02717 
 C                    -0.81349   2.33824  -0.09029 
 C                     0.02654   1.21901  -0.23062 
 C                     1.52839   1.2945   -0.32982 
 O                     2.09355   2.1028   -1.04123 
 C                     2.30008   0.4346    0.69013 
 O                     1.89921   0.54178   1.8425 
 C                     3.51027  -0.31614   0.29346 
 C                     4.30723  -0.87337   1.30876 
 C                     5.44732  -1.60169   0.98151 
 C                     5.7989   -1.78307  -0.36169 
 C                     5.00747  -1.23552  -1.3755 
 C                     3.8661   -0.50208  -1.05238 
 N                    -0.45049  -0.04725  -0.27698 
 O                     0.35007  -1.03922  -0.4717 
 C                    -1.82009  -0.25879  -0.13485 
 C                    -2.3325   -1.56864  -0.16184 
 C                    -3.69412  -1.73959  -0.01831 
 Cl                   -4.37008  -3.35236  -0.03843 
 C                    -4.56691  -0.63866   0.14384 
 C                    -4.06159   0.64558   0.16156 
 C                    -2.67615   0.85064   0.0223 
 N                    -2.15727   2.15115   0.0336 
 O                    -2.95226   3.14871   0.17093 
 H                     0.73357   3.82455  -0.09276 
 H                    -0.79807   4.32729  -0.84659 
 H                    -0.70968   4.21341   0.8999 
 H                     4.01465  -0.72434   2.3429 
 H                     6.0624   -2.02876   1.76788 
 H                     6.68829  -2.35224  -0.61679 
 H                     5.27888  -1.38006  -2.41672 
 H                     3.25476  -0.08117  -1.84188 
 H                    -1.64505  -2.39453  -0.2903 
 H                    -5.63165  -0.81139   0.25188 
 H                    -4.69664   1.51439   0.28092 
 
                          Input orientation:                          
 ---------------------------------------------------------------------
 Center     Atomic      Atomic             Coordinates (Angstroms)
 Number     Number       Type             X           Y           Z
 ---------------------------------------------------------------------
      1          6           0       -0.349190    3.755486   -0.027166
      2          6           0       -0.813492    2.338243   -0.090288
      3          6           0        0.026540    1.219011   -0.230618
      4          6           0        1.528386    1.294502   -0.329821
      5          8           0        2.093550    2.102799   -1.041231
      6          6           0        2.300080    0.434599    0.690127
      7          8           0        1.899210    0.541780    1.842503
      8          6           0        3.510274   -0.316141    0.293463
      9          6           0        4.307234   -0.873365    1.308757
     10          6           0        5.447323   -1.601694    0.981507
     11          6           0        5.798898   -1.783069   -0.361694
     12          6           0        5.007472   -1.235524   -1.375504
     13          6           0        3.866103   -0.502080   -1.052381
     14          7           0       -0.450489   -0.047250   -0.276982
     15          8           0        0.350068   -1.039221   -0.471699
     16          6           0       -1.820092   -0.258791   -0.134847
     17          6           0       -2.332500   -1.568640   -0.161844
     18          6           0       -3.694118   -1.739585   -0.018311
     19         17           0       -4.370078   -3.352355   -0.038427
     20          6           0       -4.566908   -0.638664    0.143840
     21          6           0       -4.061588    0.645575    0.161557
     22          6           0       -2.676148    0.850644    0.022301
     23          7           0       -2.157269    2.151146    0.033597
     24          8           0       -2.952263    3.148713    0.170931
     25          1           0        0.733572    3.824551   -0.092760
     26          1           0       -0.798068    4.327290   -0.846593
     27          1           0       -0.709680    4.213410    0.899902
     28          1           0        4.014650   -0.724338    2.342900
     29          1           0        6.062399   -2.028759    1.767879
     30          1           0        6.688289   -2.352237   -0.616785
     31          1           0        5.278880   -1.380061   -2.416722
     32          1           0        3.254763   -0.081171   -1.841877
     33          1           0       -1.645053   -2.394527   -0.290297
     34          1           0       -5.631651   -0.811386    0.251881
     35          1           0       -4.696636    1.514386    0.280924
 ---------------------------------------------------------------------
                    Distance matrix (angstroms):
                    1          2          3          4          5
     1  C    0.000000
     2  C    1.492695   0.000000
     3  C    2.572211   1.406423   0.000000
     4  C    3.110198   2.575105   1.507011   0.000000
     5  O    3.118763   3.067673   2.389708   1.216083   0.000000
     6  C    4.308298   3.731922   2.575278   1.541181   2.413120
     7  O    4.344982   3.784404   2.874607   2.328753   3.284885
     8  C    5.619289   5.088022   3.842884   2.628789   3.104800
     9  C    6.700242   6.204320   5.007200   3.886719   4.390944
    10  C    7.957158   7.474600   6.229808   5.046345   5.390968
    11  C    8.281696   7.796318   6.507671   5.264003   5.412148
    12  C    7.444597   6.950339   5.669673   4.427022   4.443769
    13  C    6.078374   5.558027   4.287154   3.035576   3.150788
    14  N    3.812279   2.420166   1.353929   2.391451   3.417444
    15  O    4.865777   3.592577   2.293993   2.618172   3.638184
    16  C    4.276630   2.785644   2.367091   3.696355   4.659961
    17  C    5.683131   4.192403   3.652506   4.809599   5.817448
    18  C    6.433073   4.993182   4.758325   6.047915   7.021921
    19  Cl   8.166338   6.710805   6.345437   7.514657   8.517207
    20  C    6.093188   4.796345   4.968998   6.412027   7.299432
    21  C    4.846552   3.671332   4.146736   5.648926   6.438628
    22  C    3.722269   2.386444   2.739377   4.242535   5.044701
    23  N    2.418005   1.362384   2.389081   3.801311   4.384867
    24  O    2.680187   2.302051   3.571870   4.874943   5.293723
    25  H    1.086943   2.145350   2.703283   2.662532   2.390307
    26  H    1.095405   2.128037   3.274264   3.857103   3.653450
    27  H    1.095035   2.123088   3.284284   3.878296   4.010084
    28  H    6.687984   6.213756   5.128803   4.171410   4.809955
    29  H    8.819759   8.354721   7.139579   6.000140   6.380645
    30  H    9.336918   8.863099   7.568477   6.325002   6.413979
    31  H    7.984923   7.507002   6.254702   5.057138   4.916159
    32  H    5.567907   5.047012   3.835108   2.675662   2.599841
    33  H    6.290561   4.809429   3.981889   4.866335   5.896354
    34  H    6.988461   5.766446   6.030791   7.485938   8.357233
    35  H    4.900789   3.986897   4.759970   6.258774   6.942690
                    6          7          8          9         10
     6  C    0.000000
     7  O    1.224808   0.000000
     8  C    1.478351   2.393968   0.000000
     9  C    2.474296   2.843607   1.405868   0.000000
    10  C    3.759858   4.233781   2.424502   1.391890   0.000000
    11  C    4.273887   5.046878   2.796231   2.417236   1.400247
    12  C    3.792903   4.814112   2.423287   2.797633   2.425500
    13  C    2.523119   3.652214   1.404451   2.430519   2.801091
    14  N    2.955183   3.218736   4.010655   5.082614   6.227702
    15  O    2.706387   3.202333   3.330949   4.342430   5.330121
    16  C    4.258778   4.287661   5.347854   6.325015   7.474286
    17  C    5.118556   5.136015   5.992835   6.836091   7.863459
    18  C    6.415557   6.320805   7.350283   8.156781   9.196988
    19  Cl   7.704727   7.616177   8.451550   9.124475  10.024293
    20  C    6.971789   6.788931   8.085003   8.953352  10.095243
    21  C    6.387074   6.194148   7.633832   8.582565   9.805199
    22  C    5.038048   4.933805   6.301328   7.307175   8.539603
    23  N    4.821361   4.724111   6.186766   7.250069   8.533004
    24  O    5.934904   5.755610   7.333799   8.376876   9.683824
    25  H    3.815578   3.985040   5.000457   6.066772   7.267574
    26  H    5.207021   5.369975   6.436069   7.599767   8.803392
    27  H    4.835501   4.601703   6.220339   7.156247   8.469403
    28  H    2.648498   2.515659   2.149700   1.085019   2.162336
    29  H    4.624362   4.893402   3.408857   2.150891   1.085856
    30  H    5.360117   6.112177   3.882527   3.400617   2.158205
    31  H    4.671055   5.766857   3.406611   3.883302   3.409612
    32  H    2.754720   3.974953   2.163371   3.414932   3.884689
    33  H    4.952702   5.072725   5.589084   6.348278   7.248991
    34  H    8.040951   7.815050   9.155424   9.995112  11.131065
    35  H    7.091362   6.847604   8.408588   9.371631  10.634880
                   11         12         13         14         15
    11  C    0.000000
    12  C    1.397845   0.000000
    13  C    2.419438   1.394658   0.000000
    14  N    6.486531   5.692810   4.409204   0.000000
    15  O    5.500469   4.748348   3.603917   1.289501   0.000000
    16  C    7.773281   7.007772   5.764883   1.393113   2.330694
    17  C    8.136679   7.447088   6.352424   2.422777   2.751811
    18  C    9.499324   8.821208   7.730308   3.667702   4.129348
    19  Cl  10.294427   9.706039   8.774215   5.132622   5.274286
    20  C   10.441033   9.712538   8.518525   4.179924   4.971518
    21  C   10.168642   9.388767   8.101793   3.703020   4.764689
    22  C    8.883147   8.083562   6.766524   2.418541   3.601890
    23  N    8.884531   8.049137   6.670830   2.800447   4.089071
    24  O   10.059273   9.217938   7.830383   4.083342   5.371886
    25  H    7.561432   6.746556   5.427095   4.052997   4.893562
    26  H    9.005086   8.057850   6.717117   4.425140   5.500746
    27  H    8.939294   8.219135   6.854564   4.427805   5.531228
    28  H    3.408707   3.882465   3.405789   5.221082   4.631445
    29  H    2.159833   3.409245   3.886944   7.108132   6.214951
    30  H    1.086296   2.155887   3.402581   7.509366   6.474419
    31  H    2.157771   1.085674   2.151329   6.259436   5.309659
    32  H    3.400003   2.149889   1.083607   4.022305   3.351492
    33  H    7.469363   6.839375   5.876646   2.633794   2.418733
    34  H   11.488172  10.771222   9.591877   5.263843   6.029630
    35  H   11.020091  10.221324   8.897434   4.558479   5.705837
                   16         17         18         19         20
    16  C    0.000000
    17  C    1.406768   0.000000
    18  C    2.391298   1.379793   0.000000
    19  Cl   4.010220   2.710829   1.748815   0.000000
    20  C    2.786928   2.439442   1.414243   2.726918   0.000000
    21  C    2.435167   2.827911   2.419995   4.014798   1.380193
    22  C    1.410097   2.450498   2.783379   4.531919   2.409934
    23  N    2.439233   3.729036   4.183585   5.932136   3.688028
    24  O    3.603664   4.769514   4.947890   6.657170   4.117285
    25  H    4.816290   6.204199   7.111230   8.806712   6.933351
    26  H    4.752184   6.130689   6.773487   8.508192   6.312354
    27  H    4.722743   6.098602   6.722212   8.456936   6.244394
    28  H    6.356113   6.875529   8.125955   9.103892   8.859252
    29  H    8.299808   8.626116   9.922889  10.670109  10.842142
    30  H    8.775382   9.066181  10.417672  11.118553  11.410274
    31  H    7.540531   7.940601   9.294962  10.131566  10.200279
    32  H    5.357206   6.021012   7.373105   8.490658   8.089030
    33  H    2.148528   1.082207   2.168316   2.899420   3.436389
    34  H    3.870775   3.410132   2.165316   2.851731   1.084059
    35  H    3.404633   3.910273   3.418027   4.888128   2.161306
                   21         22         23         24         25
    21  C    0.000000
    22  C    1.407441   0.000000
    23  N    2.430956   1.400239   0.000000
    24  O    2.737954   2.319364   1.282972   0.000000
    25  H    5.758830   4.525876   3.342635   3.756550   0.000000
    26  H    5.022146   4.045890   2.712520   2.657998   1.779588
    27  H    4.950746   3.993166   2.664382   2.587307   1.794315
    28  H    8.477060   7.254828   7.189845   8.261710   6.114761
    29  H   10.593746   9.364839   9.383085  10.517632   8.131397
    30  H   11.187160   9.917639   9.947228  11.127497   8.595695
    31  H    9.899246   8.614369   8.588935   9.744612   7.290309
    32  H    7.620426   6.286425   6.147417   7.280846   4.966939
    33  H    3.909736   3.419358   4.585893   5.713934   6.661367
    34  H    2.143826   3.398536   4.571168   4.782056   7.882053
    35  H    1.082759   2.142384   2.629642   2.392898   5.913008
                   26         27         28         29         30
    26  H    0.000000
    27  H    1.752434   0.000000
    28  H    7.671640   6.984475   0.000000
    29  H    9.710861   9.250898   2.495083   0.000000
    30  H   10.035658  10.006898   4.307916   2.486564   0.000000
    31  H    8.483423   8.840235   4.968124   4.306460   2.484217
    32  H    6.070466   6.455818   4.301564   4.970539   4.295078
    33  H    6.797770   6.779110   6.461849   7.985906   8.339842
    34  H    7.139759   7.063590   9.870717  11.854579  12.446273
    35  H    4.937870   4.854244   9.227683  11.424611  12.057080
                   31         32         33         34         35
    31  H    0.000000
    32  H    2.472774   0.000000
    33  H    7.313800   5.636241   0.000000
    34  H   11.246534   9.158897   4.323570   0.000000
    35  H   10.731544   8.383128   4.991799   2.506853   0.000000
 Stoichiometry    C17H11ClN2O4
 Framework group  C1[X(C17H11ClN2O4)]
 Deg. of freedom    99
 Full point group                 C1      NOp   1
 Largest Abelian subgroup         C1      NOp   1
 Largest concise Abelian subgroup C1      NOp   1
                         Standard orientation:                         
 ---------------------------------------------------------------------
 Center     Atomic      Atomic             Coordinates (Angstroms)
 Number     Number       Type             X           Y           Z
 ---------------------------------------------------------------------
      1          6           0       -0.349190    3.755486   -0.027166
      2          6           0       -0.813492    2.338243   -0.090288
      3          6           0        0.026540    1.219011   -0.230618
      4          6           0        1.528386    1.294502   -0.329821
      5          8           0        2.093550    2.102799   -1.041231
      6          6           0        2.300080    0.434599    0.690127
      7          8           0        1.899210    0.541780    1.842503
      8          6           0        3.510274   -0.316141    0.293463
      9          6           0        4.307234   -0.873365    1.308757
     10          6           0        5.447323   -1.601694    0.981507
     11          6           0        5.798898   -1.783069   -0.361694
     12          6           0        5.007472   -1.235524   -1.375504
     13          6           0        3.866103   -0.502080   -1.052381
     14          7           0       -0.450489   -0.047250   -0.276982
     15          8           0        0.350068   -1.039221   -0.471699
     16          6           0       -1.820092   -0.258791   -0.134847
     17          6           0       -2.332500   -1.568640   -0.161844
     18          6           0       -3.694118   -1.739585   -0.018311
     19         17           0       -4.370078   -3.352355   -0.038427
     20          6           0       -4.566908   -0.638664    0.143840
     21          6           0       -4.061588    0.645575    0.161557
     22          6           0       -2.676148    0.850644    0.022301
     23          7           0       -2.157269    2.151146    0.033597
     24          8           0       -2.952263    3.148713    0.170931
     25          1           0        0.733572    3.824551   -0.092760
     26          1           0       -0.798068    4.327290   -0.846593
     27          1           0       -0.709680    4.213410    0.899902
     28          1           0        4.014650   -0.724338    2.342900
     29          1           0        6.062399   -2.028759    1.767879
     30          1           0        6.688289   -2.352237   -0.616785
     31          1           0        5.278880   -1.380061   -2.416722
     32          1           0        3.254763   -0.081171   -1.841877
     33          1           0       -1.645053   -2.394527   -0.290297
     34          1           0       -5.631651   -0.811386    0.251881
     35          1           0       -4.696636    1.514386    0.280924
 ---------------------------------------------------------------------
 Rotational constants (GHZ):           0.3564958           0.1298537           0.1019632
 Standard basis: 6-31+G(d,p) (6D, 7F)
 There are   515 symmetry adapted cartesian basis functions of A   symmetry.
 There are   515 symmetry adapted basis functions of A   symmetry.
   515 basis functions,   869 primitive gaussians,   515 cartesian basis functions
    88 alpha electrons       88 beta electrons
       nuclear repulsion energy      2069.1459299196 Hartrees.
 NAtoms=   35 NActive=   35 NUniq=   35 SFac= 1.00D+00 NAtFMM=   60 NAOKFM=F Big=F
 Integral buffers will be    131072 words long.
 Regular integral format.
 Two-electron integral symmetry is turned on.
 One-electron integrals computed using PRISM.
 NBasis=   515 RedAO= T EigKep=  1.11D-06  NBF=   515
 NBsUse=   513 1.00D-06 EigRej=  6.36D-07 NBFU=   513
 ExpMin= 4.38D-02 ExpMax= 2.52D+04 ExpMxC= 3.78D+03 IAcc=3 IRadAn=         5 AccDes= 0.00D+00
 Harris functional with IExCor=  402 and IRadAn=       5 diagonalized for initial guess.
 HarFok:  IExCor=  402 AccDes= 0.00D+00 IRadAn=         5 IDoV= 1 UseB2=F ITyADJ=14
 ICtDFT=  3500011 ScaDFX=  1.000000  1.000000  1.000000  1.000000
 FoFCou: FMM=F IPFlag=           0 FMFlag=      100000 FMFlg1=           0
         NFxFlg=           0 DoJE=T BraDBF=F KetDBF=T FulRan=T
         wScrn=  0.000000 ICntrl=       500 IOpCl=  0 I1Cent=   200000004 NGrid=           0
         NMat0=    1 NMatS0=      1 NMatT0=    0 NMatD0=    1 NMtDS0=    0 NMtDT0=    0
 Petite list used in FoFCou.
 Requested convergence on RMS density matrix=1.00D-08 within 128 cycles.
 Requested convergence on MAX density matrix=1.00D-06.
 Requested convergence on             energy=1.00D-06.
 No special actions if energy rises.
 SCF Done:  E(RB3LYP) =  -1524.96445836     A.U. after   17 cycles
            NFock= 17  Conv=0.94D-08     -V/T= 2.0074
 DoSCS=F DFT=T ScalE2(SS,OS)=  1.000000  1.000000
 ExpMin= 4.38D-02 ExpMax= 2.52D+04 ExpMxC= 3.78D+03 IAcc=3 IRadAn=         5 AccDes= 0.00D+00
 HarFok:  IExCor=  205 AccDes= 0.00D+00 IRadAn=         5 IDoV=-2 UseB2=F ITyADJ=14
 ICtDFT= 12500011 ScaDFX=  1.000000  1.000000  1.000000  1.000000
 GSVD:  LWork=       -1008 too small for GESVD, short by        4340 words or        4340 for optimal perf.
 Range of M.O.s used for correlation:    29   513
 NBasis=   515 NAE=    88 NBE=    88 NFC=    28 NFV=     0
 NROrb=    485 NOA=    60 NOB=    60 NVA=   425 NVB=   425

 **** Warning!!: The largest alpha MO coefficient is  0.24744159D+03

 Orbital symmetries:
       Occupied  (A) (A) (A) (A) (A) (A) (A) (A) (A) (A) (A) (A)
                 (A) (A) (A) (A) (A) (A) (A) (A) (A) (A) (A) (A)
                 (A) (A) (A) (A) (A) (A) (A) (A) (A) (A) (A) (A)
                 (A) (A) (A) (A) (A) (A) (A) (A) (A) (A) (A) (A)
                 (A) (A) (A) (A) (A) (A) (A) (A) (A) (A) (A) (A)
                 (A) (A) (A) (A) (A) (A) (A) (A) (A) (A) (A) (A)
                 (A) (A) (A) (A) (A) (A) (A) (A) (A) (A) (A) (A)
                 (A) (A) (A) (A)
       Virtual   (A) (A) (A) (A) (A) (A) (A) (A) (A) (A) (A) (A)
                 (A) (A) (A) (A) (A) (A) (A) (A) (A) (A) (A) (A)
                 (A) (A) (A) (A) (A) (A) (A) (A) (A) (A) (A) (A)
                 (A) (A) (A) (A) (A) (A) (A) (A) (A) (A) (A) (A)
                 (A) (A) (A) (A) (A) (A) (A) (A) (A) (A) (A) (A)
                 (A) (A) (A) (A) (A) (A) (A) (A) (A) (A) (A) (A)
                 (A) (A) (A) (A) (A) (A) (A) (A) (A) (A) (A) (A)
                 (A) (A) (A) (A) (A) (A) (A) (A) (A) (A) (A) (A)
                 (A) (A) (A) (A) (A) (A) (A) (A) (A) (A) (A) (A)
                 (A) (A) (A) (A) (A) (A) (A) (A) (A) (A) (A) (A)
                 (A) (A) (A) (A) (A) (A) (A) (A) (A) (A) (A) (A)
                 (A) (A) (A) (A) (A) (A) (A) (A) (A) (A) (A) (A)
                 (A) (A) (A) (A) (A) (A) (A) (A) (A) (A) (A) (A)
                 (A) (A) (A) (A) (A) (A) (A) (A) (A) (A) (A) (A)
                 (A) (A) (A) (A) (A) (A) (A) (A) (A) (A) (A) (A)
                 (A) (A) (A) (A) (A) (A) (A) (A) (A) (A) (A) (A)
                 (A) (A) (A) (A) (A) (A) (A) (A) (A) (A) (A) (A)
                 (A) (A) (A) (A) (A) (A) (A) (A) (A) (A) (A) (A)
                 (A) (A) (A) (A) (A) (A) (A) (A) (A) (A) (A) (A)
                 (A) (A) (A) (A) (A) (A) (A) (A) (A) (A) (A) (A)
                 (A) (A) (A) (A) (A) (A) (A) (A) (A) (A) (A) (A)
                 (A) (A) (A) (A) (A) (A) (A) (A) (A) (A) (A) (A)
                 (A) (A) (A) (A) (A) (A) (A) (A) (A) (A) (A) (A)
                 (A) (A) (A) (A) (A) (A) (A) (A) (A) (A) (A) (A)
                 (A) (A) (A) (A) (A) (A) (A) (A) (A) (A) (A) (A)
                 (A) (A) (A) (A) (A) (A) (A) (A) (A) (A) (A) (A)
                 (A) (A) (A) (A) (A) (A) (A) (A) (A) (A) (A) (A)
                 (A) (A) (A) (A) (A) (A) (A) (A) (A) (A) (A) (A)
                 (A) (A) (A) (A) (A) (A) (A) (A) (A) (A) (A) (A)
                 (A) (A) (A) (A) (A) (A) (A) (A) (A) (A) (A) (A)
                 (A) (A) (A) (A) (A) (A) (A) (A) (A) (A) (A) (A)
                 (A) (A) (A) (A) (A) (A) (A) (A) (A) (A) (A) (A)
                 (A) (A) (A) (A) (A) (A) (A) (A) (A) (A) (A) (A)
                 (A) (A) (A) (A) (A) (A) (A) (A) (A) (A) (A) (A)
                 (A) (A) (A) (A) (A) (A) (A) (A) (A) (A) (A) (A)
                 (A) (A) (A) (A) (A)
    24 initial guesses have been made.
 Convergence on wavefunction:    0.001000000000000
 Iteration     1 Dimension    24 NMult     0 NNew     24
 CISAX will form    24 AO SS matrices at one time.
 New state      1 was old state      2
 New state      2 was old state      6
 New state      3 was old state      4
 New state      4 was old state      3
 New state      6 was old state     18
 New state      7 was old state     12
 New state      8 was old state     16
 New state      9 was old state     17
 New state     11 was old state      9
 New state     12 was old state     14
 Vector   6 SDiff=2.26D+00 TDiff=3.03D+00 assumed to be singlet.
 Vector  12 SDiff=2.36D+00 TDiff=2.66D+00 assumed to be singlet.
 Iteration     2 Dimension    36 NMult    24 NNew     12
 New state      6 was old state      9
 Iteration     3 Dimension    48 NMult    36 NNew     12
 Iteration     4 Dimension    60 NMult    48 NNew     12
 Iteration     5 Dimension    72 NMult    60 NNew     12
 Iteration     6 Dimension    84 NMult    72 NNew     12
 Iteration     7 Dimension    88 NMult    84 NNew      4
 Iteration     8 Dimension    90 NMult    88 NNew      2
 ***********************************************************************
 Excited states from <AA,BB:AA,BB> singles matrix:
 ***********************************************************************
 
 Ground to excited state transition densities written to RWF  633
 Ground to excited state transition electric dipole moments (Au):
       state          X           Y           Z        Dip. S.      Osc.
         1         0.0000     -0.0000     -0.0000      0.0000      0.0000
         2        -0.0000     -0.0000     -0.0000      0.0000      0.0000
         3        -0.0000      0.0000      0.0000      0.0000      0.0000
         4         0.0465     -0.7720     -0.0840      0.6053      0.0402
         5         0.2905      0.0248      0.0743      0.0905      0.0064
         6         0.9741     -0.6165     -0.0632      1.3329      0.1030
 Ground to excited state transition velocity dipole moments (Au):
       state          X           Y           Z        Dip. S.      Osc.
         1        -0.0000     -0.0000     -0.0000      0.0000      0.0000
         2        -0.0000      0.0000      0.0000      0.0000      0.0000
         3         0.0000     -0.0000     -0.0000      0.0000      0.0000
         4        -0.0058      0.0821      0.0102      0.0069      0.0460
         5        -0.0295     -0.0009     -0.0087      0.0009      0.0060
         6        -0.1123      0.0757      0.0068      0.0184      0.1058
 Ground to excited state transition magnetic dipole moments (Au):
       state          X           Y           Z
         1        -0.0000      0.0000      0.0000
         2         0.0000      0.0000     -0.0000
         3        -0.0000      0.0000      0.0000
         4         0.0780     -0.0988     -0.3120
         5         0.1133      0.2625     -0.0543
         6         0.0628      0.1131      0.0198
 Ground to excited state transition velocity quadrupole moments (Au):
       state          XX          YY          ZZ          XY          XZ          YZ
         1         0.0000      0.0000     -0.0000      0.0000     -0.0000     -0.0000
         2        -0.0000     -0.0000     -0.0000      0.0000      0.0000      0.0000
         3        -0.0000     -0.0000      0.0000      0.0000      0.0000      0.0000
         4         0.1130      0.2636      0.0007     -0.2519     -0.0165     -0.0231
         5        -0.0204      0.0596     -0.0567     -0.0052     -0.0363      0.0104
         6         0.2005      0.3128     -0.0541     -0.2881     -0.0295      0.0062
 <0|del|b> * <b|rxdel|0> + <0|del|b> * <b|delr+rdel|0>
 Rotatory Strengths (R) in cgs (10**-40 erg-esu-cm/Gauss)
       state          XX          YY          ZZ    R(velocity)    E-M Angle
         1        -0.0000      0.0000     -0.0000     -0.0000       90.00
         2         0.0000     -0.0000     -0.0000     -0.0000       90.00
         3        -0.0000     -0.0000     -0.0000     -0.0000       90.00
         4       -44.4359     -3.3159    -35.6431    -27.7983      114.93
         5         0.8525    -10.7336    -10.7909     -6.8906      110.25
         6        27.3546    -17.2081     -0.0738      3.3576       84.66
 1/2[<0|r|b>*<b|rxdel|0> + (<0|rxdel|b>*<b|r|0>)*]
 Rotatory Strengths (R) in cgs (10**-40 erg-esu-cm/Gauss)
       state          XX          YY          ZZ     R(length)
         1         0.0000      0.0000      0.0000      0.0000
         2         0.0000      0.0000     -0.0000      0.0000
         3        -0.0000     -0.0000     -0.0000     -0.0000
         4        -2.5659    -53.9361    -18.5364    -25.0128
         5       -23.2759     -4.6024      2.8553     -8.3410
         6       -43.2345     49.3228      0.8848      2.3244
  1/2[<0|del|b>*<b|r|0> + (<0|r|b>*<b|del|0>)*] (Au)
       state          X           Y           Z        Dip. S.   Osc.(frdel)
         1        -0.0000      0.0000      0.0000     -0.0000     -0.0000
         2         0.0000     -0.0000     -0.0000     -0.0000     -0.0000
         3        -0.0000     -0.0000     -0.0000      0.0000      0.0000
         4        -0.0003     -0.0633     -0.0009      0.0645      0.0430
         5        -0.0086     -0.0000     -0.0006      0.0092      0.0062
         6        -0.1094     -0.0467     -0.0004      0.1565      0.1044

 Excitation energies and oscillator strengths:
 
 Excited State   1:      Triplet-A      0.9500 eV 1305.04 nm  f=0.0000  <S**2>=2.000
      88 -> 89         0.72101
      88 -> 90         0.16174
      88 -> 93         0.15566
      88 <- 89         0.27143
 This state for optimization and/or second-order correction.
 Total Energy, E(TD-HF/TD-DFT) =  -1524.92954505    
 Copying the excited state density for this state as the 1-particle RhoCI density.
 
 Excited State   2:      Triplet-A      2.4264 eV  510.99 nm  f=0.0000  <S**2>=2.000
      87 -> 89         0.48809
      87 -> 90        -0.44047
      87 -> 92         0.10705
      88 -> 90         0.13632
 
 Excited State   3:      Triplet-A      2.6499 eV  467.89 nm  f=0.0000  <S**2>=2.000
      80 -> 89         0.12539
      87 -> 90         0.12054
      88 -> 89        -0.16496
      88 -> 90         0.58846
      88 -> 91         0.27564
 
 Excited State   4:      Singlet-A      2.7122 eV  457.14 nm  f=0.0402  <S**2>=0.000
      88 -> 89         0.58918
      88 -> 90        -0.36032
 
 Excited State   5:      Singlet-A      2.8890 eV  429.16 nm  f=0.0064  <S**2>=0.000
      85 -> 89        -0.10959
      87 -> 89         0.61936
      87 -> 90        -0.27974
 
 Excited State   6:      Singlet-A      3.1549 eV  392.99 nm  f=0.1030  <S**2>=0.000
      88 -> 89         0.33130
      88 -> 90         0.59126
      88 -> 91        -0.10668
      88 -> 93        -0.10190
 SavETr:  write IOETrn=   770 NScale= 10 NData=  16 NLR=1 NState=    6 LETran=     118.

 **********************************************************************

            Population analysis using the SCF Density.

 **********************************************************************

 Orbital symmetries:
       Occupied  (A) (A) (A) (A) (A) (A) (A) (A) (A) (A) (A) (A)
                 (A) (A) (A) (A) (A) (A) (A) (A) (A) (A) (A) (A)
                 (A) (A) (A) (A) (A) (A) (A) (A) (A) (A) (A) (A)
                 (A) (A) (A) (A) (A) (A) (A) (A) (A) (A) (A) (A)
                 (A) (A) (A) (A) (A) (A) (A) (A) (A) (A) (A) (A)
                 (A) (A) (A) (A) (A) (A) (A) (A) (A) (A) (A) (A)
                 (A) (A) (A) (A) (A) (A) (A) (A) (A) (A) (A) (A)
                 (A) (A) (A) (A)
       Virtual   (A) (A) (A) (A) (A) (A) (A) (A) (A) (A) (A) (A)
                 (A) (A) (A) (A) (A) (A) (A) (A) (A) (A) (A) (A)
                 (A) (A) (A) (A) (A) (A) (A) (A) (A) (A) (A) (A)
                 (A) (A) (A) (A) (A) (A) (A) (A) (A) (A) (A) (A)
                 (A) (A) (A) (A) (A) (A) (A) (A) (A) (A) (A) (A)
                 (A) (A) (A) (A) (A) (A) (A) (A) (A) (A) (A) (A)
                 (A) (A) (A) (A) (A) (A) (A) (A) (A) (A) (A) (A)
                 (A) (A) (A) (A) (A) (A) (A) (A) (A) (A) (A) (A)
                 (A) (A) (A) (A) (A) (A) (A) (A) (A) (A) (A) (A)
                 (A) (A) (A) (A) (A) (A) (A) (A) (A) (A) (A) (A)
                 (A) (A) (A) (A) (A) (A) (A) (A) (A) (A) (A) (A)
                 (A) (A) (A) (A) (A) (A) (A) (A) (A) (A) (A) (A)
                 (A) (A) (A) (A) (A) (A) (A) (A) (A) (A) (A) (A)
                 (A) (A) (A) (A) (A) (A) (A) (A) (A) (A) (A) (A)
                 (A) (A) (A) (A) (A) (A) (A) (A) (A) (A) (A) (A)
                 (A) (A) (A) (A) (A) (A) (A) (A) (A) (A) (A) (A)
                 (A) (A) (A) (A) (A) (A) (A) (A) (A) (A) (A) (A)
                 (A) (A) (A) (A) (A) (A) (A) (A) (A) (A) (A) (A)
                 (A) (A) (A) (A) (A) (A) (A) (A) (A) (A) (A) (A)
                 (A) (A) (A) (A) (A) (A) (A) (A) (A) (A) (A) (A)
                 (A) (A) (A) (A) (A) (A) (A) (A) (A) (A) (A) (A)
                 (A) (A) (A) (A) (A) (A) (A) (A) (A) (A) (A) (A)
                 (A) (A) (A) (A) (A) (A) (A) (A) (A) (A) (A) (A)
                 (A) (A) (A) (A) (A) (A) (A) (A) (A) (A) (A) (A)
                 (A) (A) (A) (A) (A) (A) (A) (A) (A) (A) (A) (A)
                 (A) (A) (A) (A) (A) (A) (A) (A) (A) (A) (A) (A)
                 (A) (A) (A) (A) (A) (A) (A) (A) (A) (A) (A) (A)
                 (A) (A) (A) (A) (A) (A) (A) (A) (A) (A) (A) (A)
                 (A) (A) (A) (A) (A) (A) (A) (A) (A) (A) (A) (A)
                 (A) (A) (A) (A) (A) (A) (A) (A) (A) (A) (A) (A)
                 (A) (A) (A) (A) (A) (A) (A) (A) (A) (A) (A) (A)
                 (A) (A) (A) (A) (A) (A) (A) (A) (A) (A) (A) (A)
                 (A) (A) (A) (A) (A) (A) (A) (A) (A) (A) (A) (A)
                 (A) (A) (A) (A) (A) (A) (A) (A) (A) (A) (A) (A)
                 (A) (A) (A) (A) (A) (A) (A) (A) (A) (A) (A) (A)
                 (A) (A) (A) (A) (A)
 The electronic state is 1-A.
 Alpha  occ. eigenvalues -- -101.58135 -19.19664 -19.17382 -19.17099 -19.16237
 Alpha  occ. eigenvalues --  -14.51931 -14.51330 -10.32669 -10.30664 -10.29673
 Alpha  occ. eigenvalues --  -10.29080 -10.29013 -10.28837 -10.28765 -10.24826
 Alpha  occ. eigenvalues --  -10.24560 -10.24429 -10.22070 -10.21794 -10.21713
 Alpha  occ. eigenvalues --  -10.21431 -10.21237 -10.21227 -10.21071  -9.49630
 Alpha  occ. eigenvalues --   -7.26054  -7.25066  -7.25018  -1.15330  -1.13945
 Alpha  occ. eigenvalues --   -1.09596  -1.06694  -0.96073  -0.92700  -0.88328
 Alpha  occ. eigenvalues --   -0.87777  -0.87449  -0.82441  -0.81188  -0.78492
 Alpha  occ. eigenvalues --   -0.76758  -0.75271  -0.74037  -0.68901  -0.67122
 Alpha  occ. eigenvalues --   -0.65020  -0.63885  -0.62901  -0.62185  -0.58568
 Alpha  occ. eigenvalues --   -0.56569  -0.54863  -0.53466  -0.52598  -0.50900
 Alpha  occ. eigenvalues --   -0.50390  -0.50048  -0.49405  -0.48577  -0.48358
 Alpha  occ. eigenvalues --   -0.47993  -0.47482  -0.46154  -0.45116  -0.44858
 Alpha  occ. eigenvalues --   -0.44211  -0.43691  -0.43103  -0.42661  -0.42148
 Alpha  occ. eigenvalues --   -0.41861  -0.40742  -0.40293  -0.37807  -0.37533
 Alpha  occ. eigenvalues --   -0.36416  -0.36211  -0.34273  -0.33524  -0.31287
 Alpha  occ. eigenvalues --   -0.30796  -0.30038  -0.28913  -0.28829  -0.27510
 Alpha  occ. eigenvalues --   -0.27291  -0.26525  -0.23266
 Alpha virt. eigenvalues --   -0.12232  -0.09742  -0.07807  -0.04872  -0.03562
 Alpha virt. eigenvalues --   -0.02654  -0.01026  -0.00564   0.00202   0.00684
 Alpha virt. eigenvalues --    0.01199   0.01966   0.02342   0.02706   0.03161
 Alpha virt. eigenvalues --    0.03401   0.04087   0.04334   0.04870   0.05122
 Alpha virt. eigenvalues --    0.05420   0.05861   0.06000   0.06655   0.06903
 Alpha virt. eigenvalues --    0.07451   0.07651   0.07988   0.08868   0.09059
 Alpha virt. eigenvalues --    0.09538   0.09618   0.09778   0.10526   0.10699
 Alpha virt. eigenvalues --    0.11347   0.11690   0.12238   0.12291   0.12651
 Alpha virt. eigenvalues --    0.12813   0.13119   0.13279   0.13480   0.13652
 Alpha virt. eigenvalues --    0.14215   0.14257   0.14822   0.15220   0.15291
 Alpha virt. eigenvalues --    0.15719   0.16458   0.16614   0.16846   0.17090
 Alpha virt. eigenvalues --    0.17422   0.17544   0.17561   0.17934   0.18336
 Alpha virt. eigenvalues --    0.18842   0.19335   0.19494   0.19822   0.20058
 Alpha virt. eigenvalues --    0.20066   0.20320   0.20575   0.20802   0.20906
 Alpha virt. eigenvalues --    0.21555   0.21933   0.22158   0.22524   0.22859
 Alpha virt. eigenvalues --    0.22953   0.23051   0.23619   0.23796   0.24135
 Alpha virt. eigenvalues --    0.24560   0.24872   0.25124   0.25238   0.25918
 Alpha virt. eigenvalues --    0.26234   0.26640   0.26833   0.26947   0.27489
 Alpha virt. eigenvalues --    0.27853   0.28372   0.28534   0.28700   0.29457
 Alpha virt. eigenvalues --    0.29800   0.30114   0.30309   0.30598   0.30865
 Alpha virt. eigenvalues --    0.31266   0.31518   0.32098   0.32609   0.32966
 Alpha virt. eigenvalues --    0.33098   0.33570   0.34090   0.34496   0.35073
 Alpha virt. eigenvalues --    0.35255   0.35781   0.36403   0.37220   0.37463
 Alpha virt. eigenvalues --    0.37661   0.38011   0.38920   0.39275   0.39885
 Alpha virt. eigenvalues --    0.40607   0.40853   0.42139   0.42541   0.42692
 Alpha virt. eigenvalues --    0.43168   0.44156   0.45893   0.46127   0.47050
 Alpha virt. eigenvalues --    0.47325   0.49540   0.50233   0.51053   0.53325
 Alpha virt. eigenvalues --    0.53691   0.55747   0.56533   0.57696   0.59214
 Alpha virt. eigenvalues --    0.59994   0.60597   0.61654   0.61787   0.64078
 Alpha virt. eigenvalues --    0.65462   0.66522   0.67141   0.67534   0.68031
 Alpha virt. eigenvalues --    0.68536   0.68951   0.69529   0.70845   0.71375
 Alpha virt. eigenvalues --    0.71697   0.71809   0.72241   0.73308   0.73446
 Alpha virt. eigenvalues --    0.74166   0.74418   0.75188   0.75908   0.76095
 Alpha virt. eigenvalues --    0.76880   0.77445   0.77940   0.79113   0.80761
 Alpha virt. eigenvalues --    0.80895   0.81236   0.82079   0.82566   0.83762
 Alpha virt. eigenvalues --    0.84531   0.85062   0.85501   0.85973   0.87641
 Alpha virt. eigenvalues --    0.88007   0.88877   0.89231   0.90401   0.91280
 Alpha virt. eigenvalues --    0.91593   0.92061   0.92661   0.93797   0.94356
 Alpha virt. eigenvalues --    0.94981   0.96079   0.97485   0.97864   0.98704
 Alpha virt. eigenvalues --    0.99958   1.01419   1.02309   1.02827   1.04197
 Alpha virt. eigenvalues --    1.04397   1.06935   1.08173   1.09180   1.09880
 Alpha virt. eigenvalues --    1.10773   1.12718   1.13989   1.14431   1.15390
 Alpha virt. eigenvalues --    1.16222   1.17167   1.17932   1.18481   1.19368
 Alpha virt. eigenvalues --    1.19520   1.21755   1.22289   1.23162   1.24432
 Alpha virt. eigenvalues --    1.25404   1.25705   1.26646   1.27359   1.27473
 Alpha virt. eigenvalues --    1.28581   1.29727   1.31519   1.32132   1.32759
 Alpha virt. eigenvalues --    1.33482   1.33576   1.33977   1.34387   1.35376
 Alpha virt. eigenvalues --    1.35701   1.36482   1.36582   1.37033   1.38017
 Alpha virt. eigenvalues --    1.38371   1.38971   1.39807   1.40598   1.40774
 Alpha virt. eigenvalues --    1.41849   1.42617   1.43452   1.44018   1.45673
 Alpha virt. eigenvalues --    1.46349   1.46807   1.47974   1.48799   1.50404
 Alpha virt. eigenvalues --    1.50609   1.51698   1.52748   1.57091   1.58117
 Alpha virt. eigenvalues --    1.60888   1.63385   1.66056   1.68769   1.69076
 Alpha virt. eigenvalues --    1.72013   1.72907   1.74292   1.75266   1.75741
 Alpha virt. eigenvalues --    1.77282   1.78158   1.79471   1.79637   1.80590
 Alpha virt. eigenvalues --    1.81550   1.81981   1.83309   1.84122   1.85632
 Alpha virt. eigenvalues --    1.87427   1.88256   1.88561   1.89863   1.90372
 Alpha virt. eigenvalues --    1.91612   1.92098   1.93515   1.93944   1.94603
 Alpha virt. eigenvalues --    1.94966   1.95429   1.97126   1.97928   1.98159
 Alpha virt. eigenvalues --    1.98526   1.98954   2.00037   2.00419   2.01725
 Alpha virt. eigenvalues --    2.02559   2.03250   2.03684   2.05116   2.05795
 Alpha virt. eigenvalues --    2.06612   2.07302   2.09723   2.10123   2.11009
 Alpha virt. eigenvalues --    2.11328   2.11838   2.15379   2.17712   2.18564
 Alpha virt. eigenvalues --    2.20111   2.20685   2.22522   2.24140   2.26646
 Alpha virt. eigenvalues --    2.26904   2.28362   2.28892   2.30076   2.32040
 Alpha virt. eigenvalues --    2.35029   2.36870   2.37273   2.37421   2.37695
 Alpha virt. eigenvalues --    2.38557   2.39782   2.41037   2.41804   2.43411
 Alpha virt. eigenvalues --    2.44422   2.45645   2.45899   2.46491   2.48097
 Alpha virt. eigenvalues --    2.49487   2.50815   2.51952   2.52236   2.52501
 Alpha virt. eigenvalues --    2.54085   2.54712   2.55393   2.56201   2.57087
 Alpha virt. eigenvalues --    2.58425   2.59236   2.59549   2.60362   2.60874
 Alpha virt. eigenvalues --    2.65482   2.65906   2.67959   2.68353   2.69119
 Alpha virt. eigenvalues --    2.70060   2.70165   2.71757   2.73623   2.74167
 Alpha virt. eigenvalues --    2.75171   2.78657   2.79477   2.80923   2.85276
 Alpha virt. eigenvalues --    2.85835   2.86546   2.90275   2.94679   2.97592
 Alpha virt. eigenvalues --    2.99656   3.03961   3.05748   3.07666   3.09158
 Alpha virt. eigenvalues --    3.13606   3.14330   3.15795   3.17118   3.18324
 Alpha virt. eigenvalues --    3.18530   3.25529   3.25646   3.26794   3.28858
 Alpha virt. eigenvalues --    3.30046   3.34497   3.38130   3.43577   3.44150
 Alpha virt. eigenvalues --    3.45979   3.46845   3.53179   3.53877   3.73080
 Alpha virt. eigenvalues --    3.88726   4.17891   4.25606   4.27270   4.28325
 Alpha virt. eigenvalues --    4.30148   4.32138   4.35609   4.36228   4.38131
 Alpha virt. eigenvalues --    4.41340   4.44797   4.47796   4.49467   4.51536
 Alpha virt. eigenvalues --    4.52930   4.54797   4.56291   4.66845   4.71559
 Alpha virt. eigenvalues --    4.76585   4.78484   4.86461   4.88268   5.02813
          Condensed to atoms (all electrons):
               1          2          3          4          5          6
     1  C    8.547787  -2.715948   1.773298  -1.506958  -0.067060  -0.573082
     2  C   -2.715948  20.230107 -12.346118   1.069675   0.115654   0.305584
     3  C    1.773298 -12.346118  23.888655  -2.479405  -0.172201  -3.607979
     4  C   -1.506958   1.069675  -2.479405  11.561620   0.445731  -0.030687
     5  O   -0.067060   0.115654  -0.172201   0.445731   8.034544  -0.233415
     6  C   -0.573082   0.305584  -3.607979  -0.030687  -0.233415  18.093440
     7  O    0.044103  -0.049565   0.113472  -0.165010  -0.010511   0.662056
     8  C    0.084294  -0.031962   1.456032  -2.326870   0.209083  -9.158046
     9  C   -0.012747  -0.009857  -0.763218   0.425691  -0.086960   7.362670
    10  C   -0.011301  -0.011845  -0.263234  -0.380466   0.017606  -1.677066
    11  C    0.005576  -0.012264   0.044141   0.172145  -0.005476  -0.225080
    12  C   -0.020721   0.115412  -0.428150  -0.562095   0.017994   1.308116
    13  C    0.007933  -0.059100   0.691663   0.457675   0.054996  -5.337677
    14  N    0.077178   0.066774  -1.081716   0.120795   0.026356   0.173330
    15  O   -0.032996   0.380892  -0.451021  -0.105534   0.006617   0.136763
    16  C    0.517605  -6.393329   5.429362  -0.978651  -0.050870  -0.740738
    17  C   -0.452824  -2.457847   2.412625   0.816806   0.000467  -0.009859
    18  C    0.049736  -0.103309   0.104050  -0.112083  -0.000168  -0.054690
    19  Cl  -0.000403   0.003193  -0.014974   0.001479   0.000003  -0.002636
    20  C    0.002842   0.009104   0.291999  -0.021694   0.000961   0.074423
    21  C   -0.072433   2.003391  -2.726380   0.219568  -0.001976  -0.386716
    22  C   -0.204988   6.557447  -7.185803  -0.035518   0.024177  -0.363093
    23  N   -0.249290  -0.228995   0.240167  -0.074057   0.001647   0.108336
    24  O    0.093844  -0.441690   0.226122  -0.000290  -0.000317  -0.002601
    25  H    0.437245  -0.076447  -0.027160  -0.044099  -0.000298   0.053931
    26  H    0.469646  -0.078749  -0.004073   0.013834  -0.002191  -0.013520
    27  H    0.522657  -0.155811   0.020044  -0.004212   0.001501   0.003013
    28  H    0.000077   0.000687   0.000987   0.017787   0.000031   0.099300
    29  H    0.000000  -0.000004   0.000125  -0.000367  -0.000000  -0.016976
    30  H    0.000000  -0.000006  -0.000130   0.000346  -0.000001  -0.000586
    31  H   -0.000011   0.000007  -0.000870  -0.002566  -0.000037   0.007144
    32  H    0.000233   0.010392   0.051117  -0.046931   0.001025  -0.071049
    33  H    0.001135   0.030539  -0.046394  -0.011006   0.000009   0.001538
    34  H   -0.000239  -0.000733   0.002329   0.000263  -0.000000  -0.000012
    35  H   -0.000001  -0.028029   0.010145  -0.001339   0.000001   0.000225
               7          8          9         10         11         12
     1  C    0.044103   0.084294  -0.012747  -0.011301   0.005576  -0.020721
     2  C   -0.049565  -0.031962  -0.009857  -0.011845  -0.012264   0.115412
     3  C    0.113472   1.456032  -0.763218  -0.263234   0.044141  -0.428150
     4  C   -0.165010  -2.326870   0.425691  -0.380466   0.172145  -0.562095
     5  O   -0.010511   0.209083  -0.086960   0.017606  -0.005476   0.017994
     6  C    0.662056  -9.158046   7.362670  -1.677066  -0.225080   1.308116
     7  O    8.110615  -0.436127   0.115158   0.068531   0.001355   0.033536
     8  C   -0.436127  23.028180 -12.055478   1.804337  -0.933586  -0.657008
     9  C    0.115158 -12.055478  27.048468  -5.825476   0.518641  -0.060703
    10  C    0.068531   1.804337  -5.825476  10.007895   0.433070   0.237001
    11  C    0.001355  -0.933586   0.518641   0.433070   5.677039   0.074291
    12  C    0.033536  -0.657008  -0.060703   0.237001   0.074291  11.664541
    13  C   -0.098274   3.982987 -11.298670   1.488426   0.033144  -5.802283
    14  N    0.002681   0.016972   0.013007   0.014209   0.000098   0.051549
    15  O   -0.007884   0.045687  -0.050493   0.020653  -0.002118  -0.016939
    16  C   -0.024610   0.167225   0.128463  -0.038187   0.025856  -0.111624
    17  C   -0.017014   0.008116  -0.132853   0.016996  -0.007081   0.000280
    18  C    0.005713   0.009746   0.003886   0.003726  -0.001102   0.006643
    19  Cl   0.000010   0.000669  -0.000163  -0.000036   0.000007  -0.000190
    20  C    0.000222  -0.013546   0.000496   0.001033  -0.000223   0.002218
    21  C   -0.002575   0.057906  -0.012041  -0.003476   0.000295  -0.002490
    22  C   -0.017445   0.146978  -0.050082  -0.025964   0.002123   0.005537
    23  N   -0.004037   0.027840   0.006283   0.002040  -0.000141  -0.002619
    24  O    0.000556  -0.002375   0.000402  -0.000011  -0.000003   0.000070
    25  H   -0.000439   0.007431   0.004818   0.000417  -0.000007  -0.001307
    26  H   -0.000076   0.000433  -0.000216  -0.000023   0.000001  -0.000017
    27  H    0.000476  -0.001499   0.000310   0.000020  -0.000001   0.000050
    28  H   -0.000899  -0.025024   0.310809  -0.132408  -0.004542  -0.003393
    29  H    0.000211   0.033869  -0.022287   0.307737   0.006869   0.009357
    30  H    0.000000   0.008387  -0.017138   0.037447   0.255461   0.015264
    31  H    0.000014  -0.009510   0.008477  -0.000618   0.031792   0.296567
    32  H    0.000083   0.219685   0.029587   0.000742  -0.016132  -0.098349
    33  H    0.000061  -0.001230  -0.000322   0.000031  -0.000019   0.000351
    34  H   -0.000000  -0.000003  -0.000000  -0.000000   0.000000   0.000000
    35  H    0.000000  -0.000014   0.000002   0.000000  -0.000000   0.000000
              13         14         15         16         17         18
     1  C    0.007933   0.077178  -0.032996   0.517605  -0.452824   0.049736
     2  C   -0.059100   0.066774   0.380892  -6.393329  -2.457847  -0.103309
     3  C    0.691663  -1.081716  -0.451021   5.429362   2.412625   0.104050
     4  C    0.457675   0.120795  -0.105534  -0.978651   0.816806  -0.112083
     5  O    0.054996   0.026356   0.006617  -0.050870   0.000467  -0.000168
     6  C   -5.337677   0.173330   0.136763  -0.740738  -0.009859  -0.054690
     7  O   -0.098274   0.002681  -0.007884  -0.024610  -0.017014   0.005713
     8  C    3.982987   0.016972   0.045687   0.167225   0.008116   0.009746
     9  C  -11.298670   0.013007  -0.050493   0.128463  -0.132853   0.003886
    10  C    1.488426   0.014209   0.020653  -0.038187   0.016996   0.003726
    11  C    0.033144   0.000098  -0.002118   0.025856  -0.007081  -0.001102
    12  C   -5.802283   0.051549  -0.016939  -0.111624   0.000280   0.006643
    13  C   22.325398  -0.029119   0.083959  -0.018058   0.108045  -0.007604
    14  N   -0.029119   8.205453   0.157550  -0.816488   0.076937  -0.124889
    15  O    0.083959   0.157550   7.829380  -0.566832  -0.013299   0.107331
    16  C   -0.018058  -0.816488  -0.566832  27.403991  -8.014898  -0.045568
    17  C    0.108045   0.076937  -0.013299  -8.014898  18.887772  -1.941415
    18  C   -0.007604  -0.124889   0.107331  -0.045568  -1.941415   9.128265
    19  Cl  -0.000106  -0.006064  -0.000175   0.015109  -0.066463  -0.101725
    20  C    0.005213   0.012257  -0.006151   0.618060  -2.191500   0.304852
    21  C   -0.012438   0.022707   0.010122  -1.260838  -1.135722   0.993643
    22  C   -0.000002   0.727961   0.344113 -10.408313   0.376342  -2.647785
    23  N   -0.006806  -0.060746  -0.040414   0.286260   0.070299   0.055114
    24  O   -0.000521  -0.046464  -0.007457   0.401108  -0.103565   0.018266
    25  H   -0.007066   0.001143  -0.000111  -0.000735  -0.001170   0.000078
    26  H   -0.000373  -0.004240   0.000008   0.001210  -0.001518   0.000169
    27  H    0.000306  -0.000414  -0.000028   0.001701  -0.004314   0.000356
    28  H    0.042008  -0.000062   0.000006  -0.000101   0.000009  -0.000011
    29  H   -0.007123  -0.000004   0.000004  -0.000007   0.000006   0.000000
    30  H    0.010823  -0.000001   0.000000  -0.000002   0.000003   0.000000
    31  H   -0.018803  -0.000023  -0.000045  -0.000088   0.000024   0.000000
    32  H    0.222788  -0.002036   0.000359  -0.001101  -0.001630   0.000139
    33  H    0.000562  -0.048951   0.013615   0.191925   0.053140  -0.004142
    34  H    0.000000   0.000360   0.000019  -0.036997   0.113253   0.049861
    35  H    0.000001  -0.002106   0.000022   0.151773  -0.048958  -0.010273
              19         20         21         22         23         24
     1  C   -0.000403   0.002842  -0.072433  -0.204988  -0.249290   0.093844
     2  C    0.003193   0.009104   2.003391   6.557447  -0.228995  -0.441690
     3  C   -0.014974   0.291999  -2.726380  -7.185803   0.240167   0.226122
     4  C    0.001479  -0.021694   0.219568  -0.035518  -0.074057  -0.000290
     5  O    0.000003   0.000961  -0.001976   0.024177   0.001647  -0.000317
     6  C   -0.002636   0.074423  -0.386716  -0.363093   0.108336  -0.002601
     7  O    0.000010   0.000222  -0.002575  -0.017445  -0.004037   0.000556
     8  C    0.000669  -0.013546   0.057906   0.146978   0.027840  -0.002375
     9  C   -0.000163   0.000496  -0.012041  -0.050082   0.006283   0.000402
    10  C   -0.000036   0.001033  -0.003476  -0.025964   0.002040  -0.000011
    11  C    0.000007  -0.000223   0.000295   0.002123  -0.000141  -0.000003
    12  C   -0.000190   0.002218  -0.002490   0.005537  -0.002619   0.000070
    13  C   -0.000106   0.005213  -0.012438  -0.000002  -0.006806  -0.000521
    14  N   -0.006064   0.012257   0.022707   0.727961  -0.060746  -0.046464
    15  O   -0.000175  -0.006151   0.010122   0.344113  -0.040414  -0.007457
    16  C    0.015109   0.618060  -1.260838 -10.408313   0.286260   0.401108
    17  C   -0.066463  -2.191500  -1.135722   0.376342   0.070299  -0.103565
    18  C   -0.101725   0.304852   0.993643  -2.647785   0.055114   0.018266
    19  Cl  16.958020  -0.138842   0.118665  -0.045177  -0.000133  -0.000151
    20  C   -0.138842   8.540374  -0.837153  -0.865628   0.032618   0.074069
    21  C    0.118665  -0.837153  14.146836  -4.668049  -0.050494   0.052932
    22  C   -0.045177  -0.865628  -4.668049  25.093332  -0.517402  -0.557457
    23  N   -0.000133   0.032618  -0.050494  -0.517402   7.578929   0.361078
    24  O   -0.000151   0.074069   0.052932  -0.557457   0.361078   7.834357
    25  H    0.000000  -0.000261  -0.002280  -0.002516   0.010498   0.003177
    26  H   -0.000000  -0.000381   0.005233  -0.011994  -0.024236   0.002567
    27  H    0.000000  -0.000630  -0.004573  -0.008910  -0.026530   0.006513
    28  H    0.000000  -0.000004   0.000029   0.000246  -0.000009   0.000000
    29  H    0.000000   0.000000  -0.000000  -0.000001   0.000000  -0.000000
    30  H    0.000000   0.000000  -0.000000  -0.000001   0.000000   0.000000
    31  H    0.000000  -0.000000   0.000000  -0.000005  -0.000000  -0.000000
    32  H   -0.000001   0.000022  -0.000051   0.001195   0.000016  -0.000000
    33  H    0.001742   0.034136  -0.030058   0.130770  -0.001790   0.000020
    34  H   -0.008474   0.243028  -0.060193   0.017363  -0.000174  -0.000032
    35  H    0.001319  -0.082978   0.275987   0.082417  -0.041172   0.010730
              25         26         27         28         29         30
     1  C    0.437245   0.469646   0.522657   0.000077   0.000000   0.000000
     2  C   -0.076447  -0.078749  -0.155811   0.000687  -0.000004  -0.000006
     3  C   -0.027160  -0.004073   0.020044   0.000987   0.000125  -0.000130
     4  C   -0.044099   0.013834  -0.004212   0.017787  -0.000367   0.000346
     5  O   -0.000298  -0.002191   0.001501   0.000031  -0.000000  -0.000001
     6  C    0.053931  -0.013520   0.003013   0.099300  -0.016976  -0.000586
     7  O   -0.000439  -0.000076   0.000476  -0.000899   0.000211   0.000000
     8  C    0.007431   0.000433  -0.001499  -0.025024   0.033869   0.008387
     9  C    0.004818  -0.000216   0.000310   0.310809  -0.022287  -0.017138
    10  C    0.000417  -0.000023   0.000020  -0.132408   0.307737   0.037447
    11  C   -0.000007   0.000001  -0.000001  -0.004542   0.006869   0.255461
    12  C   -0.001307  -0.000017   0.000050  -0.003393   0.009357   0.015264
    13  C   -0.007066  -0.000373   0.000306   0.042008  -0.007123   0.010823
    14  N    0.001143  -0.004240  -0.000414  -0.000062  -0.000004  -0.000001
    15  O   -0.000111   0.000008  -0.000028   0.000006   0.000004   0.000000
    16  C   -0.000735   0.001210   0.001701  -0.000101  -0.000007  -0.000002
    17  C   -0.001170  -0.001518  -0.004314   0.000009   0.000006   0.000003
    18  C    0.000078   0.000169   0.000356  -0.000011   0.000000   0.000000
    19  Cl   0.000000  -0.000000   0.000000   0.000000   0.000000   0.000000
    20  C   -0.000261  -0.000381  -0.000630  -0.000004   0.000000   0.000000
    21  C   -0.002280   0.005233  -0.004573   0.000029  -0.000000  -0.000000
    22  C   -0.002516  -0.011994  -0.008910   0.000246  -0.000001  -0.000001
    23  N    0.010498  -0.024236  -0.026530  -0.000009   0.000000   0.000000
    24  O    0.003177   0.002567   0.006513   0.000000  -0.000000   0.000000
    25  H    0.526481  -0.024771  -0.025245  -0.000000   0.000000  -0.000000
    26  H   -0.024771   0.506118  -0.021462   0.000000  -0.000000  -0.000000
    27  H   -0.025245  -0.021462   0.506699  -0.000000   0.000000  -0.000000
    28  H   -0.000000   0.000000  -0.000000   0.544830  -0.005102  -0.000142
    29  H    0.000000  -0.000000   0.000000  -0.005102   0.565597  -0.005534
    30  H   -0.000000  -0.000000  -0.000000  -0.000142  -0.005534   0.569472
    31  H    0.000000   0.000000  -0.000000   0.000014  -0.000153  -0.005585
    32  H    0.000002   0.000000   0.000000  -0.000133   0.000015  -0.000152
    33  H   -0.000000   0.000000   0.000000   0.000000   0.000000  -0.000000
    34  H    0.000000  -0.000000  -0.000000   0.000000  -0.000000   0.000000
    35  H   -0.000000   0.000000   0.000000  -0.000000  -0.000000   0.000000
              31         32         33         34         35
     1  C   -0.000011   0.000233   0.001135  -0.000239  -0.000001
     2  C    0.000007   0.010392   0.030539  -0.000733  -0.028029
     3  C   -0.000870   0.051117  -0.046394   0.002329   0.010145
     4  C   -0.002566  -0.046931  -0.011006   0.000263  -0.001339
     5  O   -0.000037   0.001025   0.000009  -0.000000   0.000001
     6  C    0.007144  -0.071049   0.001538  -0.000012   0.000225
     7  O    0.000014   0.000083   0.000061  -0.000000   0.000000
     8  C   -0.009510   0.219685  -0.001230  -0.000003  -0.000014
     9  C    0.008477   0.029587  -0.000322  -0.000000   0.000002
    10  C   -0.000618   0.000742   0.000031  -0.000000   0.000000
    11  C    0.031792  -0.016132  -0.000019   0.000000  -0.000000
    12  C    0.296567  -0.098349   0.000351   0.000000   0.000000
    13  C   -0.018803   0.222788   0.000562   0.000000   0.000001
    14  N   -0.000023  -0.002036  -0.048951   0.000360  -0.002106
    15  O   -0.000045   0.000359   0.013615   0.000019   0.000022
    16  C   -0.000088  -0.001101   0.191925  -0.036997   0.151773
    17  C    0.000024  -0.001630   0.053140   0.113253  -0.048958
    18  C    0.000000   0.000139  -0.004142   0.049861  -0.010273
    19  Cl   0.000000  -0.000001   0.001742  -0.008474   0.001319
    20  C   -0.000000   0.000022   0.034136   0.243028  -0.082978
    21  C    0.000000  -0.000051  -0.030058  -0.060193   0.275987
    22  C   -0.000005   0.001195   0.130770   0.017363   0.082417
    23  N   -0.000000   0.000016  -0.001790  -0.000174  -0.041172
    24  O   -0.000000  -0.000000   0.000020  -0.000032   0.010730
    25  H    0.000000   0.000002  -0.000000   0.000000  -0.000000
    26  H    0.000000   0.000000   0.000000  -0.000000   0.000000
    27  H   -0.000000   0.000000   0.000000  -0.000000   0.000000
    28  H    0.000014  -0.000133   0.000000   0.000000  -0.000000
    29  H   -0.000153   0.000015   0.000000  -0.000000  -0.000000
    30  H   -0.005585  -0.000152  -0.000000   0.000000   0.000000
    31  H    0.566263  -0.005805  -0.000000   0.000000  -0.000000
    32  H   -0.005805   0.572979   0.000000  -0.000000   0.000000
    33  H   -0.000000   0.000000   0.491453  -0.000133   0.000009
    34  H    0.000000  -0.000000  -0.000133   0.524566  -0.004631
    35  H   -0.000000   0.000000   0.000009  -0.004631   0.499579
 Mulliken charges:
               1
     1  C   -0.714186
     2  C    0.302749
     3  C    0.842490
     4  C   -0.433577
     5  O   -0.326923
     6  C    0.115636
     7  O   -0.324387
     8  C    0.336422
     9  C    0.421537
    10  C   -0.091808
    11  C   -0.074129
    12  C   -0.070889
    13  C   -0.811907
    14  N   -0.543992
    15  O    0.164395
    16  C    0.168387
    17  C   -0.339188
    18  C    0.313189
    19  Cl   0.285495
    20  C   -0.088936
    21  C   -0.637378
    22  C    0.106129
    23  N   -0.452081
    24  O    0.077122
    25  H    0.168692
    26  H    0.188621
    27  H    0.189980
    28  H    0.155010
    29  H    0.133769
    30  H    0.132076
    31  H    0.133815
    32  H    0.132989
    33  H    0.193010
    34  H    0.160578
    35  H    0.187290
 Sum of Mulliken charges =  -0.00000
 Mulliken charges with hydrogens summed into heavy atoms:
               1
     1  C   -0.166891
     2  C    0.302749
     3  C    0.842490
     4  C   -0.433577
     5  O   -0.326923
     6  C    0.115636
     7  O   -0.324387
     8  C    0.336422
     9  C    0.576548
    10  C    0.041960
    11  C    0.057947
    12  C    0.062926
    13  C   -0.678919
    14  N   -0.543992
    15  O    0.164395
    16  C    0.168387
    17  C   -0.146178
    18  C    0.313189
    19  Cl   0.285495
    20  C    0.071642
    21  C   -0.450088
    22  C    0.106129
    23  N   -0.452081
    24  O    0.077122
 Electronic spatial extent (au):  <R**2>=           9935.0260
 Charge=             -0.0000 electrons
 Dipole moment (field-independent basis, Debye):
    X=              0.0281    Y=             -1.5097    Z=             -0.8541  Tot=              1.7348
 Quadrupole moment (field-independent basis, Debye-Ang):
   XX=           -124.2260   YY=           -151.4822   ZZ=           -145.9584
   XY=             -3.4342   XZ=             -1.0265   YZ=             -0.0696
 Traceless Quadrupole moment (field-independent basis, Debye-Ang):
   XX=             16.3295   YY=            -10.9267   ZZ=             -5.4029
   XY=             -3.4342   XZ=             -1.0265   YZ=             -0.0696
 Octapole moment (field-independent basis, Debye-Ang**2):
  XXX=             27.5910  YYY=             -4.4299  ZZZ=             -9.9425  XYY=             34.7557
  XXY=            -86.3076  XXZ=              4.8864  XZZ=             10.4519  YZZ=             -7.1188
  YYZ=              5.2843  XYZ=              6.0799
 Hexadecapole moment (field-independent basis, Debye-Ang**3):
 XXXX=          -8733.0113 YYYY=          -3206.9118 ZZZZ=           -600.5785 XXXY=           -300.4577
 XXXZ=            -35.6000 YYYX=            158.4403 YYYZ=              5.6646 ZZZX=            -16.7171
 ZZZY=             -5.4928 XXYY=          -2257.3035 XXZZ=          -1657.7669 YYZZ=           -640.4890
 XXYZ=              4.7860 YYXZ=             30.4253 ZZXY=            -38.3683
 N-N= 2.069145929920D+03 E-N=-7.708631697934D+03  KE= 1.513700802915D+03
 Unable to Open any file for archive entry.
 1\1\GINC-N2\SP\RB3LYP TD-FC\6-31+G(d,p)\C17H11Cl1N2O4\HPCMGAC13\19-Sep
 -2025\0\\# td=(50-50,nstates=3) b3lyp/6-31+g(d,p) geom=connectivity\\T
 itle Card Required\\0,1\C,0,-0.34919,3.755486,-0.027166\C,0,-0.813492,
 2.338243,-0.090288\C,0,0.02654,1.219011,-0.230618\C,0,1.528386,1.29450
 2,-0.329821\O,0,2.09355,2.102799,-1.041231\C,0,2.30008,0.434599,0.6901
 27\O,0,1.89921,0.54178,1.842503\C,0,3.510274,-0.316141,0.293463\C,0,4.
 307234,-0.873365,1.308757\C,0,5.447323,-1.601694,0.981507\C,0,5.798898
 ,-1.783069,-0.361694\C,0,5.007472,-1.235524,-1.375504\C,0,3.866103,-0.
 50208,-1.052381\N,0,-0.450489,-0.04725,-0.276982\O,0,0.350068,-1.03922
 1,-0.471699\C,0,-1.820092,-0.258791,-0.134847\C,0,-2.3325,-1.56864,-0.
 161844\C,0,-3.694118,-1.739585,-0.018311\Cl,0,-4.370078,-3.352355,-0.0
 38427\C,0,-4.566908,-0.638664,0.14384\C,0,-4.061588,0.645575,0.161557\
 C,0,-2.676148,0.850644,0.022301\N,0,-2.157269,2.151146,0.033597\O,0,-2
 .952263,3.148713,0.170931\H,0,0.733572,3.824551,-0.09276\H,0,-0.798068
 ,4.32729,-0.846593\H,0,-0.70968,4.21341,0.899902\H,0,4.01465,-0.724338
 ,2.3429\H,0,6.062399,-2.028759,1.767879\H,0,6.688289,-2.352237,-0.6167
 85\H,0,5.27888,-1.380061,-2.416722\H,0,3.254763,-0.081171,-1.841877\H,
 0,-1.645053,-2.394527,-0.290297\H,0,-5.631651,-0.811386,0.251881\H,0,-
 4.696636,1.514386,0.280924\\Version=ES64L-G16RevC.02\State=1-A\HF=-152
 4.9644584\RMSD=9.360e-09\PG=C01 [X(C17H11Cl1N2O4)]\\@
 The archive entry for this job was punched.


 IN THE UNIVERSE THE DIFFICULT THINGS ARE DONE AS IF THEY WERE EASY.

                                                          -- LAO-TSU
 Job cpu time:       0 days  1 hours 28 minutes  1.4 seconds.
 Elapsed time:       0 days  0 hours 11 minutes 10.7 seconds.
 File lengths (MBytes):  RWF=   1453 Int=      0 D2E=      0 Chk=     69 Scr=      2
 Normal termination of Gaussian 16 at Fri Sep 19 01:24:39 2025.
