 Entering Gaussian System, Link 0=g16
 Input=M2266e.gjf
 Output=M2266e.log
 Initial command:
 /hpc/softwares/Gaussian/g16/l1.exe "/hpc/home/hpcmgac13/pbs.12644.admin1.x8z/Gau-2148975.inp" -scrdir="/hpc/home/hpcmgac13/pbs.12644.admin1.x8z/"
 Default linda workers: n1
 Default is to use  16 SMP processors on each worker.
 Entering Link 1 = /hpc/softwares/Gaussian/g16/l1.exe PID=   2148976.
  
 Copyright (c) 1988-2021, Gaussian, Inc.  All Rights Reserved.
  
 This is part of the Gaussian(R) 16 program.  It is based on
 the Gaussian(R) 09 system (copyright 2009, Gaussian, Inc.),
 the Gaussian(R) 03 system (copyright 2003, Gaussian, Inc.),
 the Gaussian(R) 98 system (copyright 1998, Gaussian, Inc.),
 the Gaussian(R) 94 system (copyright 1995, Gaussian, Inc.),
 the Gaussian 92(TM) system (copyright 1992, Gaussian, Inc.),
 the Gaussian 90(TM) system (copyright 1990, Gaussian, Inc.),
 the Gaussian 88(TM) system (copyright 1988, Gaussian, Inc.),
 the Gaussian 86(TM) system (copyright 1986, Carnegie Mellon
 University), and the Gaussian 82(TM) system (copyright 1983,
 Carnegie Mellon University). Gaussian is a federally registered
 trademark of Gaussian, Inc.
  
 This software contains proprietary and confidential information,
 including trade secrets, belonging to Gaussian, Inc.
  
 This software is provided under written license and may be
 used, copied, transmitted, or stored only in accord with that
 written license.
  
 The following legend is applicable only to US Government
 contracts under FAR:
  
                    RESTRICTED RIGHTS LEGEND
  
 Use, reproduction and disclosure by the US Government is
 subject to restrictions as set forth in subparagraphs (a)
 and (c) of the Commercial Computer Software - Restricted
 Rights clause in FAR 52.227-19.
  
 Gaussian, Inc.
 340 Quinnipiac St., Bldg. 40, Wallingford CT 06492
  
  
 ---------------------------------------------------------------
 Warning -- This program may not be used in any manner that
 competes with the business of Gaussian, Inc. or will provide
 assistance to any competitor of Gaussian, Inc.  The licensee
 of this program is prohibited from giving any competitor of
 Gaussian, Inc. access to this program.  By using this program,
 the user acknowledges that Gaussian, Inc. is engaged in the
 business of creating and licensing software in the field of
 computational chemistry and represents and warrants to the
 licensee that it is not a competitor of Gaussian, Inc. and that
 it will not use this program in any manner prohibited above.
 ---------------------------------------------------------------
  

 Cite this work as:
 Gaussian 16, Revision C.02,
 M. J. Frisch, G. W. Trucks, H. B. Schlegel, G. E. Scuseria, 
 M. A. Robb, J. R. Cheeseman, G. Scalmani, V. Barone, 
 G. A. Petersson, H. Nakatsuji, X. Li, M. Caricato, A. V. Marenich, 
 J. Bloino, B. G. Janesko, R. Gomperts, B. Mennucci, H. P. Hratchian, 
 J. V. Ortiz, A. F. Izmaylov, J. L. Sonnenberg, D. Williams-Young, 
 F. Ding, F. Lipparini, F. Egidi, J. Goings, B. Peng, A. Petrone, 
 T. Henderson, D. Ranasinghe, V. G. Zakrzewski, J. Gao, N. Rega, 
 G. Zheng, W. Liang, M. Hada, M. Ehara, K. Toyota, R. Fukuda, 
 J. Hasegawa, M. Ishida, T. Nakajima, Y. Honda, O. Kitao, H. Nakai, 
 T. Vreven, K. Throssell, J. A. Montgomery, Jr., J. E. Peralta, 
 F. Ogliaro, M. J. Bearpark, J. J. Heyd, E. N. Brothers, K. N. Kudin, 
 V. N. Staroverov, T. A. Keith, R. Kobayashi, J. Normand, 
 K. Raghavachari, A. P. Rendell, J. C. Burant, S. S. Iyengar, 
 J. Tomasi, M. Cossi, J. M. Millam, M. Klene, C. Adamo, R. Cammi, 
 J. W. Ochterski, R. L. Martin, K. Morokuma, O. Farkas, 
 J. B. Foresman, and D. J. Fox, Gaussian, Inc., Wallingford CT, 2019.
 
 ******************************************
 Gaussian 16:  ES64L-G16RevC.02  7-Dec-2021
                31-Jul-2025 
 ******************************************
 SetLPE:    new flags="-opt 'Tsnet.Node.lindarsharg: ssh'  -nodelist 'n1' -env GAUSS_MDEF=2147483648 -env GAUSS_EXEDIR="/hpc/softwares/Gaussian/g16/bsd:/hpc/softwares/Gaussian/g16""
 Will use up to    1 processors via Linda.
 ----------------------------------------------------------
 # td=(50-50,nstates=3) b3lyp/6-31+g(d,p) geom=connectivity
 ----------------------------------------------------------
 1/38=1,57=2,172=1/1;
 2/12=2,17=6,18=5,40=1/2;
 3/5=1,6=6,7=111,11=9,25=1,30=1,74=-5/1,2,3,8;
 4//1;
 5/5=2,38=5/2;
 8/6=1,10=2,108=3/1;
 9/41=3,42=1,48=2,70=2/14;
 6/7=2,8=2,9=2,10=2/1;
 99/5=1,9=1/99;
 -------------------
 Title Card Required
 -------------------
 Symbolic Z-matrix:
 Charge =  0 Multiplicity = 1
 C                     7.19976   1.70284   0.99117 
 C                     5.71179   2.06815   1.03893 
 C                     4.83081   1.11217   0.22239 
 C                     3.3453    1.49356   0.26552 
 C                     2.44203   0.58373  -0.61133 
 C                     2.49011  -0.87821  -0.19359 
 C                     2.35849  -1.27168   1.19013 
 C                     2.40365  -2.5882    1.50466 
 O                     2.55957  -3.56042   0.59042 
 C                     2.70264  -3.26879  -0.79108 
 O                     2.84331  -4.20447  -1.54217 
 C                     2.65746  -1.85967  -1.1292 
 C                     1.01732   1.17972  -0.71158 
 S                     0.77122   2.59051  -1.5731 
 N                     0.03998   0.51496  -0.06779 
 C                    -1.37341   0.89397  -0.03689 
 C                    -2.15532   0.28064  -1.20956 
 C                    -3.64364   0.61898  -1.10694 
 N                    -4.18917   0.15579   0.18422 
 C                    -5.64312   0.35204   0.25581 
 C                    -6.19491  -0.14044   1.53896 
 N                    -6.63549  -0.49309   2.55188 
 C                    -6.33994  -0.3424   -0.85099 
 N                    -6.90072  -0.85576  -1.7264 
 C                    -3.50053   0.80617   1.31311 
 C                    -2.00652   0.47268   1.29373 
 H                     7.80004   2.40215   1.58261 
 H                     7.37467   0.69569   1.38759 
 H                     7.58002   1.7248   -0.03676 
 H                     5.57325   3.0925    0.66784 
 H                     5.36981   2.07271   2.08336 
 H                     4.9743    0.08766   0.59132 
 H                     5.17002   1.11175  -0.82333 
 H                     3.21762   2.51571  -0.10274 
 H                     2.98505   1.48949   1.30293 
 H                     2.83147   0.63896  -1.63223 
 H                     2.25338  -0.54285   1.98429 
 H                     2.32516  -2.98499   2.51099 
 H                     2.76897  -1.63178  -2.18354 
 H                     0.2737   -0.37062   0.36702 
 H                    -1.39954   1.98479  -0.12902 
 H                    -1.76042   0.66202  -2.15591 
 H                    -2.03359  -0.80925  -1.20429 
 H                    -4.18552   0.12388  -1.91646 
 H                    -3.7906    1.71017  -1.22528 
 H                    -5.92572   1.42345   0.18241 
 H                    -3.93893   0.44961   2.2484 
 H                    -3.63756   1.90482   1.27825 
 H                    -1.88708  -0.60861   1.44434 
 H                    -1.51493   0.98417   2.12891 
 
                          Input orientation:                          
 ---------------------------------------------------------------------
 Center     Atomic      Atomic             Coordinates (Angstroms)
 Number     Number       Type             X           Y           Z
 ---------------------------------------------------------------------
      1          6           0        7.199758    1.702839    0.991166
      2          6           0        5.711792    2.068149    1.038930
      3          6           0        4.830810    1.112170    0.222388
      4          6           0        3.345296    1.493556    0.265521
      5          6           0        2.442034    0.583729   -0.611325
      6          6           0        2.490111   -0.878213   -0.193585
      7          6           0        2.358489   -1.271675    1.190128
      8          6           0        2.403654   -2.588197    1.504657
      9          8           0        2.559565   -3.560421    0.590418
     10          6           0        2.702637   -3.268789   -0.791084
     11          8           0        2.843308   -4.204469   -1.542171
     12          6           0        2.657456   -1.859673   -1.129197
     13          6           0        1.017320    1.179715   -0.711580
     14         16           0        0.771220    2.590510   -1.573098
     15          7           0        0.039978    0.514958   -0.067786
     16          6           0       -1.373414    0.893974   -0.036889
     17          6           0       -2.155325    0.280642   -1.209557
     18          6           0       -3.643642    0.618975   -1.106937
     19          7           0       -4.189167    0.155789    0.184219
     20          6           0       -5.643122    0.352037    0.255811
     21          6           0       -6.194911   -0.140437    1.538958
     22          7           0       -6.635491   -0.493086    2.551879
     23          6           0       -6.339942   -0.342403   -0.850987
     24          7           0       -6.900719   -0.855764   -1.726402
     25          6           0       -3.500532    0.806170    1.313108
     26          6           0       -2.006516    0.472675    1.293732
     27          1           0        7.800036    2.402153    1.582610
     28          1           0        7.374674    0.695687    1.387589
     29          1           0        7.580020    1.724800   -0.036763
     30          1           0        5.573251    3.092504    0.667837
     31          1           0        5.369805    2.072705    2.083357
     32          1           0        4.974302    0.087659    0.591323
     33          1           0        5.170017    1.111748   -0.823328
     34          1           0        3.217621    2.515714   -0.102744
     35          1           0        2.985046    1.489489    1.302931
     36          1           0        2.831473    0.638956   -1.632226
     37          1           0        2.253375   -0.542853    1.984291
     38          1           0        2.325164   -2.984991    2.510991
     39          1           0        2.768970   -1.631783   -2.183543
     40          1           0        0.273700   -0.370618    0.367015
     41          1           0       -1.399535    1.984788   -0.129019
     42          1           0       -1.760422    0.662021   -2.155908
     43          1           0       -2.033594   -0.809253   -1.204292
     44          1           0       -4.185517    0.123876   -1.916458
     45          1           0       -3.790595    1.710166   -1.225280
     46          1           0       -5.925716    1.423445    0.182406
     47          1           0       -3.938929    0.449611    2.248397
     48          1           0       -3.637559    1.904819    1.278253
     49          1           0       -1.887083   -0.608612    1.444335
     50          1           0       -1.514930    0.984173    2.128906
 ---------------------------------------------------------------------
                    Distance matrix (angstroms):
                    1          2          3          4          5
     1  C    0.000000
     2  C    1.532898   0.000000
     3  C    2.559653   1.535176   0.000000
     4  C    3.927752   2.555117   1.534297   0.000000
     5  C    5.143571   3.951982   2.584681   1.553231   0.000000
     6  C    5.499658   4.536449   3.100569   2.562695   1.521214
     7  C    5.685526   4.735180   3.568138   3.078179   2.587419
     8  C    6.455949   5.730815   4.607387   4.368393   3.813131
     9  O    7.028079   6.466722   5.208369   5.124999   4.316478
    10  C    6.936685   6.394284   4.974841   4.920300   3.865504
    11  O    7.764840   7.364511   5.943945   5.998936   4.894317
    12  C    6.149792   5.427479   3.922002   3.696283   2.506953
    13  C    6.433937   5.088386   3.926775   2.544149   1.547598
    14  S    6.977787   5.612914   4.678625   3.348088   2.782768
    15  N    7.334500   5.983870   4.836624   3.463217   2.463745
    16  C    8.672395   7.261971   6.213472   4.766254   3.870901
    17  C    9.715112   8.375106   7.179693   5.822701   4.646015
    18  C   11.097573   9.707162   8.592246   7.175917   6.105925
    19  N   11.521811  10.120111   9.070618   7.652736   6.692447
    20  C   12.934643  11.510534  10.501532   9.060619   8.134824
    21  C   13.531995  12.120126  11.174476   9.762537   8.930003
    22  N   14.095106  12.700564  11.810141  10.430258   9.672996
    23  C   13.816657  12.434904  11.316078   9.920744   8.833927
    24  N   14.586126  13.239024  12.054017  10.698967   9.518538
    25  C   10.742619   9.302402   8.408006   6.959547   6.250361
    26  C    9.293026   7.885603   6.950234   5.544484   4.840576
    27  H    1.095071   2.183554   3.511490   4.733390   6.068624
    28  H    1.096404   2.184123   2.828851   4.258112   5.323451
    29  H    1.096230   2.182952   2.828539   4.251792   5.294437
    30  H    2.163616   1.098274   2.161334   2.771692   4.211262
    31  H    2.162963   1.099001   2.162487   2.781830   4.248553
    32  H    2.778729   2.160228   1.098329   2.176317   2.846898
    33  H    2.785969   2.162459   1.099356   2.158929   2.786690
    34  H    4.208898   2.779321   2.162874   1.093950   2.143072
    35  H    4.231609   2.799944   2.171817   1.098188   2.186239
    36  H    5.205377   4.180180   2.767828   2.143781   1.094053
    37  H    5.522331   4.435278   3.533635   2.879830   2.835842
    38  H    6.931615   6.258629   5.320028   5.112748   4.743235
    39  H    6.389864   5.721366   4.191535   4.012208   2.736284
    40  H    7.256657   5.997658   4.794458   3.594461   2.563123
    41  H    8.676529   7.207082   6.300964   4.786480   4.117431
    42  H    9.553649   8.247313   7.021628   5.711666   4.478002
    43  H    9.817608   8.561687   7.269617   6.032888   4.724749
    44  H   11.856302  10.510530   9.319095   7.959284   6.770470
    45  H   11.211625   9.774976   8.762532   7.293171   6.363290
    46  H   13.153335  11.686782  10.761103   9.271650   8.447152
    47  H   11.279253   9.859964   9.025077   7.621125   6.993761
    48  H   10.843000   9.353840   8.570672   7.067887   6.502095
    49  H    9.387164   8.066741   7.041614   5.760773   4.938489
    50  H    8.817977   7.388407   6.627187   5.230055   4.829781
                    6          7          8          9         10
     6  C    0.000000
     7  C    1.444575   0.000000
     8  C    2.411544   1.354326   0.000000
     9  O    2.795304   2.374540   1.343637   0.000000
    10  C    2.473262   2.834097   2.413094   1.419178   0.000000
    11  O    3.606579   4.037547   3.476894   2.245717   1.208063
    12  C    1.366250   2.411305   2.744513   2.420579   1.449817
    13  C    2.583118   3.380021   4.585934   5.151952   4.757710
    14  S    4.109706   5.007126   6.241508   6.761134   6.218786
    15  N    2.821330   3.185891   4.205843   4.836348   4.682911
    16  C    4.253472   4.485834   5.363592   5.975238   5.874657
    17  C    4.894407   5.342536   6.031707   6.342229   6.031034
    18  C    6.379554   6.699003   7.326402   7.669951   7.449143
    19  N    6.769391   6.776526   7.262114   7.714959   7.757314
    20  C    8.238019   8.217978   8.657667   9.094139   9.157405
    21  C    8.886823   8.634931   8.940248   9.446527   9.715042
    22  N    9.537427   9.129745   9.337682   9.889637  10.299542
    23  C    8.870688   8.982895   9.329690   9.572592   9.504502
    24  N    9.515131   9.716587  10.000621  10.108402   9.945952
    25  C    6.402740   6.217772   6.813063   7.504277   7.714416
    26  C    4.925106   4.701783   5.372432   6.132667   6.365621
    27  H    6.489297   6.577347   7.350552   7.999954   7.986081
    28  H    5.369937   5.391810   5.958913   6.475740   6.503200
    29  H    5.719042   6.143982   6.911779   7.316549   7.020954
    30  H    5.100431   5.445506   6.558733   7.304088   7.129861
    31  H    4.710098   4.588111   5.554904   6.469809   6.626293
    32  H    2.778524   3.008128   3.821337   4.374865   4.282202
    33  H    3.396825   4.199929   5.173188   5.535549   5.027734
    34  H    3.472213   4.093158   5.412595   6.150848   5.848033
    35  H    2.844386   2.833606   4.123861   5.117646   5.206329
    36  H    2.118494   3.440917   4.520794   4.759081   3.999324
    37  H    2.216225   1.083017   2.106197   3.338016   3.916027
    38  H    3.432266   2.163618   1.084580   2.018580   3.335675
    39  H    2.146058   3.417576   3.827663   3.385019   2.150147
    40  H    2.341880   2.415733   3.278504   3.930640   3.954785
    41  H    4.830144   5.144652   6.168090   6.851380   6.698225
    42  H    4.928495   5.648059   6.426755   6.635783   6.101877
    43  H    4.635751   5.023691   5.494744   5.646859   5.352751
    44  H    6.966813   7.377158   7.904210   8.084219   7.760368
    45  H    6.871053   7.248228   8.018554   8.449874   8.193936
    46  H    8.732992   8.769677   9.339166   9.849131   9.869813
    47  H    7.004209   6.613640   7.071760   7.814069   8.196057
    48  H    6.889116   6.786050   7.532244   8.291340   8.440762
    49  H    4.681377   4.304551   4.725761   5.405093   5.756663
    50  H    4.990270   4.579687   5.339177   6.294584   6.663475
                   11         12         13         14         15
    11  O    0.000000
    12  C    2.388128   0.000000
    13  C    5.745742   3.478840   0.000000
    14  S    7.103960   4.853768   1.671263   0.000000
    15  N    5.683789   3.690075   1.345946   2.666195   0.000000
    16  C    6.785333   5.002362   2.500493   3.136499   1.463655
    17  C    6.724075   5.267852   3.334965   3.745974   2.485538
    18  C    8.095404   6.771117   4.711189   4.857496   3.828800
    19  N    8.452691   7.256955   5.381300   5.798402   4.251844
    20  C    9.798672   8.701121   6.781031   7.035585   5.694636
    21  C   10.377818   9.404213   7.669680   8.103699   6.471863
    22  N   10.971930  10.088446   8.486103   9.021273   7.241594
    23  C    9.986259   9.128673   7.514358   7.726063   6.484740
    24  N   10.305039   9.629288   8.238227   8.411834   7.266578
    25  C    8.573414   7.140896   4.964865   5.455449   3.811415
    26  C    7.310186   5.750049   3.696588   4.518822   2.458385
    27  H    8.830677   7.208550   7.263807   7.707024   8.154987
    28  H    7.288916   5.925894   6.712432   7.480750   7.479876
    29  H    7.736855   6.186558   6.619783   7.033458   7.636551
    30  H    8.098305   6.021233   5.130113   5.322902   6.148333
    31  H    7.676624   5.756817   5.249117   5.897861   5.954918
    32  H    5.245502   3.481389   4.306721   5.349288   4.996455
    33  H    5.847433   3.903314   4.154756   4.700884   5.219607
    34  H    6.882799   4.528952   2.645165   2.855243   3.755218
    35  H    6.366777   4.152041   2.833048   3.792732   3.391460
    36  H    4.844277   2.554695   2.105032   2.838433   3.202389
    37  H    5.117752   3.404571   3.429693   4.966867   3.198298
    38  H    4.264238   3.824621   5.425882   7.083836   4.911396
    39  H    2.652470   1.084442   3.624841   4.710776   4.065996
    40  H    4.994626   3.184058   2.029746   3.574891   1.013865
    41  H    7.635812   5.677976   2.613180   2.676647   2.058239
    42  H    6.727089   5.189482   3.173317   3.235421   2.761036
    43  H    5.951960   4.807803   3.675165   4.422826   2.710144
    44  H    8.263113   7.168021   5.443899   5.547199   4.628752
    45  H    8.893368   7.370912   4.864290   4.658985   4.176315
    46  H   10.561409   9.282780   7.004596   7.020882   6.039656
    47  H    9.056909   7.762295   5.818842   6.432167   4.604419
    48  H    9.342367   7.719743   5.114011   5.295064   4.155456
    49  H    6.650264   5.370387   4.035051   5.138663   2.694900
    50  H    7.706689   6.009284   3.810366   4.638064   2.731915
                   16         17         18         19         20
    16  C    0.000000
    17  C    1.537111   0.000000
    18  C    2.524790   1.529734   0.000000
    19  N    2.919293   2.468747   1.476219   0.000000
    20  C    4.313905   3.783798   2.434391   1.468885   0.000000
    21  C    5.176885   4.904069   3.753191   2.438458   1.481036
    22  N    6.026202   5.900758   4.855386   3.465740   2.640257
    23  C    5.182450   4.245913   2.873985   2.438376   1.480813
    24  N    6.038803   4.906864   3.628656   3.467885   2.639981
    25  C    2.520879   2.906820   2.431489   1.473636   2.432037
    26  C    1.532600   2.515050   2.909432   2.468887   3.783746
    27  H    9.436608  10.554914  11.889960  12.277729  13.663157
    28  H    8.865523   9.886269  11.297426  11.638815  13.071420
    29  H    8.991899   9.911507  11.328668  11.875369  13.297427
    30  H    7.320268   8.435761   9.706662  10.206027  11.553655
    31  H    7.166300   8.407280   9.671274   9.932534  11.295361
    32  H    6.429486   7.356085   8.799735   9.172761  10.626013
    33  H    6.594119   7.382448   8.831979   9.461677  10.893378
    34  H    4.869495   5.923608   7.189086   7.778953   9.128134
    35  H    4.598470   5.847848   7.106670   7.382385   8.765588
    36  H    4.504576   5.017489   6.496418   7.267896   8.687103
    37  H    4.393545   5.505946   6.758724   6.725675   8.132843
    38  H    5.934437   6.676947   7.855229   7.597031   8.928335
    39  H    5.305367   5.371657   6.880885   7.564217   8.980495
    40  H    2.115494   2.968144   4.300860   4.497522   5.961827
    41  H    1.095009   2.154738   2.803174   3.350433   4.563113
    42  H    2.166522   1.094065   2.156087   3.410464   4.581249
    43  H    2.167868   1.096685   2.154430   2.739665   4.063150
    44  H    3.468970   2.155450   1.092738   2.100923   2.625914
    45  H    2.814464   2.172071   1.107383   2.135798   2.733130
    46  H    4.588233   4.178446   2.741795   2.150013   1.110479
    47  H    3.464370   3.894514   3.372558   2.099948   2.623775
    48  H    2.806735   3.320266   2.709716   2.135483   2.734740
    49  H    2.171554   2.811738   3.331885   2.733458   4.055030
    50  H    2.172287   3.471368   3.890432   3.408749   4.577122
                   21         22         23         24         25
    21  C    0.000000
    22  N    1.159518   0.000000
    23  C    2.402844   3.418999   0.000000
    24  N    3.416494   4.301810   1.159466   0.000000
    25  C    2.864743   3.612560   3.750303   4.854062   0.000000
    26  C    4.240129   4.893162   4.903341   5.902473   1.530908
    27  H   14.224107  14.754875  14.608010  15.416737  11.415894
    28  H   13.596163  14.108631  13.934832  14.693222  10.876022
    29  H   13.989665  14.618510  14.096157  14.805607  11.200208
    30  H   12.235211  12.863104  12.491180  13.301170   9.379618
    31  H   11.787155  12.285354  12.311023  13.177858   8.993346
    32  H   11.211662  11.788483  11.413909  12.135816   8.535809
    33  H   11.675185  12.382953  11.601486  12.263332   8.935108
    34  H    9.916959  10.638784  10.003785  10.788139   7.075363
    35  H    9.326520   9.901778   9.744259  10.602142   6.521484
    36  H    9.598931  10.412092   9.256795   9.846757   6.985502
    37  H    8.469581   8.907108   9.051192   9.882540   5.947924
    38  H    9.034822   9.300785   9.662827  10.373332   7.053124
    39  H    9.819994  10.590786   9.295724   9.711543   7.581348
    40  H    6.577945   7.247451   6.724923   7.489329   4.065064
    41  H    5.504031   6.382970   5.508600   6.394012   2.807679
    42  H    5.827578   6.874869   4.866589   5.376876   3.883662
    43  H    5.028846   5.948633   4.345964   4.895270   3.331486
    44  H    4.005924   5.133133   2.448304   2.892773   3.371176
    45  H    4.104446   5.216769   3.294284   4.063003   2.710122
    46  H    2.087684   3.129101   2.087511   3.128733   2.746094
    47  H    2.437399   2.872669   3.999791   5.125937   1.092745
    48  H    3.284979   4.044709   4.109324   5.224652   1.107710
    49  H    4.334227   4.877231   5.016704   5.937272   2.149894
    50  H    4.849228   5.346152   5.824114   6.874263   2.154026
                   26         27         28         29         30
    26  C    0.000000
    27  H    9.998740   0.000000
    28  H    9.384310   1.769461   0.000000
    29  H    9.759083   1.769063   1.769186   0.000000
    30  H    8.044136   2.504389   3.083488   2.528675   0.000000
    31  H    7.589052   2.503059   2.529777   3.082369   1.756439
    32  H    7.026623   3.784746   2.601062   3.140778   3.064912
    33  H    7.509526   3.790868   3.149885   2.608186   2.511885
    34  H    5.780637   4.883835   4.776472   4.434008   2.544695
    35  H    5.094083   4.908697   4.461628   4.792070   3.109953
    36  H    5.656414   6.175002   5.455564   5.125745   4.339071
    37  H    4.433378   6.292842   5.302616   6.131888   5.096121
    38  H    5.674559   7.736759   6.348777   7.502446   7.133248
    39  H    6.271001   7.467809   6.275557   6.246720   6.189770
    40  H    2.601794   8.112439   7.252752   7.611578   6.337898
    41  H    2.163130   9.366748   8.997145   8.983792   7.105052
    42  H    3.463586  10.411865   9.798341   9.636604   8.225785
    43  H    2.807881  10.713554   9.874118  10.010301   8.751724
    44  H    3.895514  12.692025  12.036682  12.021816  10.522589
    45  H    3.325619  11.945954  11.511711  11.432571   9.652790
    46  H    4.183197  13.831656  13.374695  13.510875  11.629602
    47  H    2.155490  11.918850  11.348972  11.812462   9.998231
    48  H    2.170617  11.452447  11.078954  11.295829   9.307106
    49  H    1.098238  10.145152   9.353318   9.862277   8.364077
    50  H    1.095811   9.438098   8.925124   9.378527   7.538043
                   31         32         33         34         35
    31  H    0.000000
    32  H    2.514557   0.000000
    33  H    3.067926   1.757356   0.000000
    34  H    3.099547   3.076217   2.510421   0.000000
    35  H    2.576098   2.535479   3.072094   1.755890   0.000000
    36  H    4.722745   3.136848   2.519253   2.451662   3.059761
    37  H    4.069778   3.121113   4.373469   3.826267   2.264952
    38  H    5.918868   4.488233   5.999512   6.155148   4.681434
    39  H    6.220451   3.939524   3.891295   4.661839   4.684499
    40  H    5.906432   4.728212   5.252451   4.149489   3.418674
    41  H    7.122240   6.689080   6.663578   4.647656   4.639003
    42  H    8.414365   7.296141   7.071705   5.694960   5.930239
    43  H    8.597944   7.289670   7.465078   6.312216   6.062766
    44  H   10.540429   9.496976   9.470842   7.988548   7.977866
    45  H    9.746355   9.097032   8.989563   7.143115   7.235320
    46  H   11.472748  10.989173  11.145580   9.212761   8.981181
    47  H    9.450619   9.073180   9.635705   7.811072   7.065174
    48  H    9.044832   8.828255   9.089499   7.019533   6.635662
    49  H    7.762747   6.949175   7.609507   6.181656   5.306568
    50  H    6.970405   6.728895   7.308931   5.451873   4.602973
                   36         37         38         39         40
    36  H    0.000000
    37  H    3.848385   0.000000
    38  H    5.527711   2.499321   0.000000
    39  H    2.337544   4.338484   4.905791   0.000000
    40  H    3.399766   2.562101   3.954755   3.784476   0.000000
    41  H    4.687465   4.919228   6.748462   5.888726   2.931502
    42  H    4.621718   5.890971   7.195322   5.077174   3.401343
    43  H    5.094047   5.349405   6.126658   4.969920   2.825776
    44  H    7.041608   7.557758   8.465006   7.177643   5.034222
    45  H    6.720482   7.204652   8.567773   7.423933   4.835655
    46  H    8.977565   8.602944   9.640209   9.514710   6.456431
    47  H    7.805987   6.276891   7.148728   8.304830   4.686002
    48  H    7.205669   6.418153   7.809222   8.095381   4.615833
    49  H    5.769439   4.176035   4.952571   5.990593   2.426158
    50  H    5.758169   4.068519   5.535935   6.617571   2.852879
                   41         42         43         44         45
    41  H    0.000000
    42  H    2.447086   0.000000
    43  H    3.060214   1.773371   0.000000
    44  H    3.797318   2.495601   2.451261   0.000000
    45  H    2.644688   2.467038   3.071639   1.774826   0.000000
    46  H    4.571477   4.837060   4.696433   3.020331   2.573428
    47  H    3.802288   4.918223   4.139577   4.184845   3.698301
    48  H    2.644912   4.106294   4.012720   3.698404   2.515748
    49  H    3.072274   3.819987   2.660253   4.136939   4.015835
    50  H    2.472402   4.303914   3.820419   4.923121   4.117800
                   46         47         48         49         50
    46  H    0.000000
    47  H    3.027209   0.000000
    48  H    2.582298   1.774721   0.000000
    49  H    4.693855   2.444672   3.067423   0.000000
    50  H    4.841163   2.485117   2.465107   1.773161   0.000000
 Stoichiometry    C19H24N4O2S
 Framework group  C1[X(C19H24N4O2S)]
 Deg. of freedom   144
 Full point group                 C1      NOp   1
 Largest Abelian subgroup         C1      NOp   1
 Largest concise Abelian subgroup C1      NOp   1
                         Standard orientation:                         
 ---------------------------------------------------------------------
 Center     Atomic      Atomic             Coordinates (Angstroms)
 Number     Number       Type             X           Y           Z
 ---------------------------------------------------------------------
      1          6           0       -7.199758   -1.702839    0.991166
      2          6           0       -5.711792   -2.068149    1.038930
      3          6           0       -4.830810   -1.112170    0.222388
      4          6           0       -3.345296   -1.493556    0.265521
      5          6           0       -2.442034   -0.583729   -0.611325
      6          6           0       -2.490111    0.878213   -0.193585
      7          6           0       -2.358489    1.271675    1.190128
      8          6           0       -2.403654    2.588197    1.504657
      9          8           0       -2.559565    3.560421    0.590418
     10          6           0       -2.702637    3.268789   -0.791084
     11          8           0       -2.843308    4.204469   -1.542171
     12          6           0       -2.657456    1.859673   -1.129197
     13          6           0       -1.017320   -1.179715   -0.711580
     14         16           0       -0.771220   -2.590510   -1.573098
     15          7           0       -0.039978   -0.514958   -0.067786
     16          6           0        1.373414   -0.893974   -0.036889
     17          6           0        2.155325   -0.280642   -1.209557
     18          6           0        3.643642   -0.618975   -1.106937
     19          7           0        4.189167   -0.155789    0.184219
     20          6           0        5.643122   -0.352037    0.255811
     21          6           0        6.194911    0.140437    1.538958
     22          7           0        6.635491    0.493086    2.551879
     23          6           0        6.339942    0.342403   -0.850987
     24          7           0        6.900719    0.855764   -1.726402
     25          6           0        3.500532   -0.806170    1.313108
     26          6           0        2.006516   -0.472675    1.293732
     27          1           0       -7.800036   -2.402153    1.582610
     28          1           0       -7.374674   -0.695687    1.387589
     29          1           0       -7.580020   -1.724800   -0.036763
     30          1           0       -5.573251   -3.092504    0.667837
     31          1           0       -5.369805   -2.072705    2.083357
     32          1           0       -4.974302   -0.087659    0.591323
     33          1           0       -5.170017   -1.111748   -0.823328
     34          1           0       -3.217621   -2.515714   -0.102744
     35          1           0       -2.985046   -1.489489    1.302931
     36          1           0       -2.831473   -0.638956   -1.632226
     37          1           0       -2.253375    0.542853    1.984291
     38          1           0       -2.325164    2.984991    2.510991
     39          1           0       -2.768970    1.631783   -2.183543
     40          1           0       -0.273700    0.370618    0.367015
     41          1           0        1.399535   -1.984788   -0.129019
     42          1           0        1.760422   -0.662021   -2.155908
     43          1           0        2.033594    0.809253   -1.204292
     44          1           0        4.185517   -0.123876   -1.916458
     45          1           0        3.790595   -1.710166   -1.225280
     46          1           0        5.925716   -1.423445    0.182406
     47          1           0        3.938929   -0.449611    2.248397
     48          1           0        3.637559   -1.904819    1.278253
     49          1           0        1.887083    0.608612    1.444335
     50          1           0        1.514930   -0.984173    2.128906
 ---------------------------------------------------------------------
 Rotational constants (GHZ):           0.2872978           0.0789320           0.0710738
 Standard basis: 6-31+G(d,p) (6D, 7F)
 There are   618 symmetry adapted cartesian basis functions of A   symmetry.
 There are   618 symmetry adapted basis functions of A   symmetry.
   618 basis functions,  1024 primitive gaussians,   618 cartesian basis functions
    99 alpha electrons       99 beta electrons
       nuclear repulsion energy      2364.3069658900 Hartrees.
 NAtoms=   50 NActive=   50 NUniq=   50 SFac= 1.00D+00 NAtFMM=   60 NAOKFM=F Big=F
 Integral buffers will be    131072 words long.
 Regular integral format.
 Two-electron integral symmetry is turned on.
 One-electron integrals computed using PRISM.
 NBasis=   618 RedAO= T EigKep=  1.36D-06  NBF=   618
 NBsUse=   618 1.00D-06 EigRej= -1.00D+00 NBFU=   618
 ExpMin= 4.05D-02 ExpMax= 2.19D+04 ExpMxC= 3.30D+03 IAcc=3 IRadAn=         5 AccDes= 0.00D+00
 Harris functional with IExCor=  402 and IRadAn=       5 diagonalized for initial guess.
 HarFok:  IExCor=  402 AccDes= 0.00D+00 IRadAn=         5 IDoV= 1 UseB2=F ITyADJ=14
 ICtDFT=  3500011 ScaDFX=  1.000000  1.000000  1.000000  1.000000
 FoFCou: FMM=F IPFlag=           0 FMFlag=      100000 FMFlg1=           0
         NFxFlg=           0 DoJE=T BraDBF=F KetDBF=T FulRan=T
         wScrn=  0.000000 ICntrl=       500 IOpCl=  0 I1Cent=   200000004 NGrid=           0
         NMat0=    1 NMatS0=      1 NMatT0=    0 NMatD0=    1 NMtDS0=    0 NMtDT0=    0
 Petite list used in FoFCou.
 Requested convergence on RMS density matrix=1.00D-08 within 128 cycles.
 Requested convergence on MAX density matrix=1.00D-06.
 Requested convergence on             energy=1.00D-06.
 No special actions if energy rises.
 SCF Done:  E(RB3LYP) =  -1506.13248278     A.U. after   18 cycles
            NFock= 18  Conv=0.16D-08     -V/T= 2.0080
 DoSCS=F DFT=T ScalE2(SS,OS)=  1.000000  1.000000
 ExpMin= 4.05D-02 ExpMax= 2.19D+04 ExpMxC= 3.30D+03 IAcc=3 IRadAn=         5 AccDes= 0.00D+00
 HarFok:  IExCor=  205 AccDes= 0.00D+00 IRadAn=         5 IDoV=-2 UseB2=F ITyADJ=14
 ICtDFT= 12500011 ScaDFX=  1.000000  1.000000  1.000000  1.000000
 GSVD:  LWork=       -1140 too small for GESVD, short by        4950 words or        4950 for optimal perf.
 Range of M.O.s used for correlation:    31   618
 NBasis=   618 NAE=    99 NBE=    99 NFC=    30 NFV=     0
 NROrb=    588 NOA=    69 NOB=    69 NVA=   519 NVB=   519

 **** Warning!!: The largest alpha MO coefficient is  0.20631585D+03

 Orbital symmetries:
       Occupied  (A) (A) (A) (A) (A) (A) (A) (A) (A) (A) (A) (A)
                 (A) (A) (A) (A) (A) (A) (A) (A) (A) (A) (A) (A)
                 (A) (A) (A) (A) (A) (A) (A) (A) (A) (A) (A) (A)
                 (A) (A) (A) (A) (A) (A) (A) (A) (A) (A) (A) (A)
                 (A) (A) (A) (A) (A) (A) (A) (A) (A) (A) (A) (A)
                 (A) (A) (A) (A) (A) (A) (A) (A) (A) (A) (A) (A)
                 (A) (A) (A) (A) (A) (A) (A) (A) (A) (A) (A) (A)
                 (A) (A) (A) (A) (A) (A) (A) (A) (A) (A) (A) (A)
                 (A) (A) (A)
       Virtual   (A) (A) (A) (A) (A) (A) (A) (A) (A) (A) (A) (A)
                 (A) (A) (A) (A) (A) (A) (A) (A) (A) (A) (A) (A)
                 (A) (A) (A) (A) (A) (A) (A) (A) (A) (A) (A) (A)
                 (A) (A) (A) (A) (A) (A) (A) (A) (A) (A) (A) (A)
                 (A) (A) (A) (A) (A) (A) (A) (A) (A) (A) (A) (A)
                 (A) (A) (A) (A) (A) (A) (A) (A) (A) (A) (A) (A)
                 (A) (A) (A) (A) (A) (A) (A) (A) (A) (A) (A) (A)
                 (A) (A) (A) (A) (A) (A) (A) (A) (A) (A) (A) (A)
                 (A) (A) (A) (A) (A) (A) (A) (A) (A) (A) (A) (A)
                 (A) (A) (A) (A) (A) (A) (A) (A) (A) (A) (A) (A)
                 (A) (A) (A) (A) (A) (A) (A) (A) (A) (A) (A) (A)
                 (A) (A) (A) (A) (A) (A) (A) (A) (A) (A) (A) (A)
                 (A) (A) (A) (A) (A) (A) (A) (A) (A) (A) (A) (A)
                 (A) (A) (A) (A) (A) (A) (A) (A) (A) (A) (A) (A)
                 (A) (A) (A) (A) (A) (A) (A) (A) (A) (A) (A) (A)
                 (A) (A) (A) (A) (A) (A) (A) (A) (A) (A) (A) (A)
                 (A) (A) (A) (A) (A) (A) (A) (A) (A) (A) (A) (A)
                 (A) (A) (A) (A) (A) (A) (A) (A) (A) (A) (A) (A)
                 (A) (A) (A) (A) (A) (A) (A) (A) (A) (A) (A) (A)
                 (A) (A) (A) (A) (A) (A) (A) (A) (A) (A) (A) (A)
                 (A) (A) (A) (A) (A) (A) (A) (A) (A) (A) (A) (A)
                 (A) (A) (A) (A) (A) (A) (A) (A) (A) (A) (A) (A)
                 (A) (A) (A) (A) (A) (A) (A) (A) (A) (A) (A) (A)
                 (A) (A) (A) (A) (A) (A) (A) (A) (A) (A) (A) (A)
                 (A) (A) (A) (A) (A) (A) (A) (A) (A) (A) (A) (A)
                 (A) (A) (A) (A) (A) (A) (A) (A) (A) (A) (A) (A)
                 (A) (A) (A) (A) (A) (A) (A) (A) (A) (A) (A) (A)
                 (A) (A) (A) (A) (A) (A) (A) (A) (A) (A) (A) (A)
                 (A) (A) (A) (A) (A) (A) (A) (A) (A) (A) (A) (A)
                 (A) (A) (A) (A) (A) (A) (A) (A) (A) (A) (A) (A)
                 (A) (A) (A) (A) (A) (A) (A) (A) (A) (A) (A) (A)
                 (A) (A) (A) (A) (A) (A) (A) (A) (A) (A) (A) (A)
                 (A) (A) (A) (A) (A) (A) (A) (A) (A) (A) (A) (A)
                 (A) (A) (A) (A) (A) (A) (A) (A) (A) (A) (A) (A)
                 (A) (A) (A) (A) (A) (A) (A) (A) (A) (A) (A) (A)
                 (A) (A) (A) (A) (A) (A) (A) (A) (A) (A) (A) (A)
                 (A) (A) (A) (A) (A) (A) (A) (A) (A) (A) (A) (A)
                 (A) (A) (A) (A) (A) (A) (A) (A) (A) (A) (A) (A)
                 (A) (A) (A) (A) (A) (A) (A) (A) (A) (A) (A) (A)
                 (A) (A) (A) (A) (A) (A) (A) (A) (A) (A) (A) (A)
                 (A) (A) (A) (A) (A) (A) (A) (A) (A) (A) (A) (A)
                 (A) (A) (A) (A) (A) (A) (A) (A) (A) (A) (A) (A)
                 (A) (A) (A) (A) (A) (A) (A) (A) (A) (A) (A) (A)
                 (A) (A) (A)
    24 initial guesses have been made.
 Convergence on wavefunction:    0.001000000000000
 Iteration     1 Dimension    24 NMult     0 NNew     24
 CISAX will form    24 AO SS matrices at one time.
 New state      1 was old state      8
 New state      3 was old state      6
 New state      4 was old state      1
 New state      5 was old state     14
 New state      6 was old state      5
 New state      7 was old state      4
 New state      8 was old state      3
 New state      9 was old state     24
 New state     10 was old state     23
 New state     11 was old state     10
 New state     12 was old state      9
 Vector   5 SDiff=4.10D-01 TDiff=3.65D+00 assumed to be singlet.
 Vector  11 SDiff=4.02D-01 TDiff=3.42D+00 assumed to be singlet.
 Iteration     2 Dimension    36 NMult    24 NNew     12
 New state      2 was old state      3
 New state      3 was old state      2
 New state      5 was old state      6
 New state      6 was old state      8
 Iteration     3 Dimension    48 NMult    36 NNew     12
 Iteration     4 Dimension    60 NMult    48 NNew     12
 Iteration     5 Dimension    72 NMult    60 NNew     12
 Iteration     6 Dimension    78 NMult    72 NNew      6
 Iteration     7 Dimension    80 NMult    78 NNew      2
 ***********************************************************************
 Excited states from <AA,BB:AA,BB> singles matrix:
 ***********************************************************************
 
 Ground to excited state transition densities written to RWF  633
 Ground to excited state transition electric dipole moments (Au):
       state          X           Y           Z        Dip. S.      Osc.
         1        -0.0000     -0.0000     -0.0000      0.0000      0.0000
         2         0.0000     -0.0000      0.0000      0.0000      0.0000
         3        -0.0000      0.0000      0.0000      0.0000      0.0000
         4        -0.3331      0.5231      0.0871      0.3922      0.0309
         5        -0.0025     -0.0728      0.0129      0.0055      0.0005
         6         0.0213     -0.0815      0.0791      0.0134      0.0012
 Ground to excited state transition velocity dipole moments (Au):
       state          X           Y           Z        Dip. S.      Osc.
         1         0.0000      0.0000      0.0000      0.0000      0.0000
         2         0.0000      0.0000     -0.0000      0.0000      0.0000
         3         0.0000     -0.0000     -0.0000      0.0000      0.0000
         4         0.0381     -0.0614     -0.0103      0.0053      0.0301
         5         0.0026      0.0108     -0.0050      0.0001      0.0008
         6        -0.0026      0.0106     -0.0108      0.0002      0.0012
 Ground to excited state transition magnetic dipole moments (Au):
       state          X           Y           Z
         1         0.0000      0.0000      0.0000
         2        -0.0000     -0.0000      0.0000
         3         0.0000     -0.0000      0.0000
         4         0.0217     -0.0531      0.2912
         5         0.1161     -0.5837     -0.5226
         6        -0.0077     -0.0485     -0.0172
 Ground to excited state transition velocity quadrupole moments (Au):
       state          XX          YY          ZZ          XY          XZ          YZ
         1         0.0000     -0.0000      0.0000      0.0000     -0.0000      0.0000
         2         0.0000      0.0000      0.0000      0.0000      0.0000      0.0000
         3        -0.0000      0.0000      0.0000      0.0000     -0.0000      0.0000
         4        -0.0803     -0.0625      0.0133      0.2091     -0.0004      0.1372
         5        -0.0866     -0.0027      0.0449     -0.0802      0.0957     -0.0113
         6         0.0139      0.0000      0.0076     -0.0420      0.0552     -0.0546
 <0|del|b> * <b|rxdel|0> + <0|del|b> * <b|delr+rdel|0>
 Rotatory Strengths (R) in cgs (10**-40 erg-esu-cm/Gauss)
       state          XX          YY          ZZ    R(velocity)    E-M Angle
         1         0.0000      0.0000      0.0000      0.0000       90.00
         2        -0.0000     -0.0000      0.0000     -0.0000       90.00
         3        -0.0000     -0.0000      0.0000     -0.0000       90.00
         4        -5.7668     15.6090     -3.3424      2.1666       87.13
         5       -12.1439      7.0168    -13.9188     -6.3486      110.50
         6        -1.2115     -0.2814     -0.1344     -0.5424      112.67
 1/2[<0|r|b>*<b|rxdel|0> + (<0|rxdel|b>*<b|r|0>)*]
 Rotatory Strengths (R) in cgs (10**-40 erg-esu-cm/Gauss)
       state          XX          YY          ZZ     R(length)
         1         0.0000      0.0000      0.0000      0.0000
         2         0.0000     -0.0000     -0.0000     -0.0000
         3         0.0000      0.0000     -0.0000     -0.0000
         4         5.1028     19.6532    -17.9295      2.2755
         5         0.2057    -30.0577      4.7746     -8.3591
         6         0.1163     -2.7979      0.9651     -0.5722
  1/2[<0|del|b>*<b|r|0> + (<0|r|b>*<b|del|0>)*] (Au)
       state          X           Y           Z        Dip. S.   Osc.(frdel)
         1        -0.0000     -0.0000     -0.0000      0.0000      0.0000
         2         0.0000     -0.0000     -0.0000      0.0000      0.0000
         3        -0.0000     -0.0000     -0.0000      0.0000      0.0000
         4        -0.0127     -0.0321     -0.0009      0.0457      0.0305
         5        -0.0000     -0.0008     -0.0001      0.0009      0.0006
         6        -0.0001     -0.0009     -0.0009      0.0018      0.0012

 Excitation energies and oscillator strengths:
 
 Excited State   1:      Triplet-A      2.6611 eV  465.91 nm  f=0.0000  <S**2>=2.000
      97 ->100         0.67178
      98 ->100        -0.12900
      99 ->100         0.14343
 This state for optimization and/or second-order correction.
 Total Energy, E(TD-HF/TD-DFT) =  -1506.03468925    
 Copying the excited state density for this state as the 1-particle RhoCI density.
 
 Excited State   2:      Triplet-A      3.1062 eV  399.15 nm  f=0.0000  <S**2>=2.000
      98 ->101         0.29389
      99 ->100        -0.14187
      99 ->101         0.61825
 
 Excited State   3:      Triplet-A      3.1186 eV  397.57 nm  f=0.0000  <S**2>=2.000
      97 ->100        -0.13339
      98 ->101        -0.11059
      99 ->100         0.64939
      99 ->101         0.20599
 
 Excited State   4:      Singlet-A      3.2118 eV  386.02 nm  f=0.0309  <S**2>=0.000
      99 ->100         0.70372
 
 Excited State   5:      Singlet-A      3.4191 eV  362.63 nm  f=0.0005  <S**2>=0.000
      99 ->101         0.69989
 
 Excited State   6:      Singlet-A      3.6524 eV  339.46 nm  f=0.0012  <S**2>=0.000
      98 ->100         0.70413
 SavETr:  write IOETrn=   770 NScale= 10 NData=  16 NLR=1 NState=    6 LETran=     118.

 **********************************************************************

            Population analysis using the SCF Density.

 **********************************************************************

 Orbital symmetries:
       Occupied  (A) (A) (A) (A) (A) (A) (A) (A) (A) (A) (A) (A)
                 (A) (A) (A) (A) (A) (A) (A) (A) (A) (A) (A) (A)
                 (A) (A) (A) (A) (A) (A) (A) (A) (A) (A) (A) (A)
                 (A) (A) (A) (A) (A) (A) (A) (A) (A) (A) (A) (A)
                 (A) (A) (A) (A) (A) (A) (A) (A) (A) (A) (A) (A)
                 (A) (A) (A) (A) (A) (A) (A) (A) (A) (A) (A) (A)
                 (A) (A) (A) (A) (A) (A) (A) (A) (A) (A) (A) (A)
                 (A) (A) (A) (A) (A) (A) (A) (A) (A) (A) (A) (A)
                 (A) (A) (A)
       Virtual   (A) (A) (A) (A) (A) (A) (A) (A) (A) (A) (A) (A)
                 (A) (A) (A) (A) (A) (A) (A) (A) (A) (A) (A) (A)
                 (A) (A) (A) (A) (A) (A) (A) (A) (A) (A) (A) (A)
                 (A) (A) (A) (A) (A) (A) (A) (A) (A) (A) (A) (A)
                 (A) (A) (A) (A) (A) (A) (A) (A) (A) (A) (A) (A)
                 (A) (A) (A) (A) (A) (A) (A) (A) (A) (A) (A) (A)
                 (A) (A) (A) (A) (A) (A) (A) (A) (A) (A) (A) (A)
                 (A) (A) (A) (A) (A) (A) (A) (A) (A) (A) (A) (A)
                 (A) (A) (A) (A) (A) (A) (A) (A) (A) (A) (A) (A)
                 (A) (A) (A) (A) (A) (A) (A) (A) (A) (A) (A) (A)
                 (A) (A) (A) (A) (A) (A) (A) (A) (A) (A) (A) (A)
                 (A) (A) (A) (A) (A) (A) (A) (A) (A) (A) (A) (A)
                 (A) (A) (A) (A) (A) (A) (A) (A) (A) (A) (A) (A)
                 (A) (A) (A) (A) (A) (A) (A) (A) (A) (A) (A) (A)
                 (A) (A) (A) (A) (A) (A) (A) (A) (A) (A) (A) (A)
                 (A) (A) (A) (A) (A) (A) (A) (A) (A) (A) (A) (A)
                 (A) (A) (A) (A) (A) (A) (A) (A) (A) (A) (A) (A)
                 (A) (A) (A) (A) (A) (A) (A) (A) (A) (A) (A) (A)
                 (A) (A) (A) (A) (A) (A) (A) (A) (A) (A) (A) (A)
                 (A) (A) (A) (A) (A) (A) (A) (A) (A) (A) (A) (A)
                 (A) (A) (A) (A) (A) (A) (A) (A) (A) (A) (A) (A)
                 (A) (A) (A) (A) (A) (A) (A) (A) (A) (A) (A) (A)
                 (A) (A) (A) (A) (A) (A) (A) (A) (A) (A) (A) (A)
                 (A) (A) (A) (A) (A) (A) (A) (A) (A) (A) (A) (A)
                 (A) (A) (A) (A) (A) (A) (A) (A) (A) (A) (A) (A)
                 (A) (A) (A) (A) (A) (A) (A) (A) (A) (A) (A) (A)
                 (A) (A) (A) (A) (A) (A) (A) (A) (A) (A) (A) (A)
                 (A) (A) (A) (A) (A) (A) (A) (A) (A) (A) (A) (A)
                 (A) (A) (A) (A) (A) (A) (A) (A) (A) (A) (A) (A)
                 (A) (A) (A) (A) (A) (A) (A) (A) (A) (A) (A) (A)
                 (A) (A) (A) (A) (A) (A) (A) (A) (A) (A) (A) (A)
                 (A) (A) (A) (A) (A) (A) (A) (A) (A) (A) (A) (A)
                 (A) (A) (A) (A) (A) (A) (A) (A) (A) (A) (A) (A)
                 (A) (A) (A) (A) (A) (A) (A) (A) (A) (A) (A) (A)
                 (A) (A) (A) (A) (A) (A) (A) (A) (A) (A) (A) (A)
                 (A) (A) (A) (A) (A) (A) (A) (A) (A) (A) (A) (A)
                 (A) (A) (A) (A) (A) (A) (A) (A) (A) (A) (A) (A)
                 (A) (A) (A) (A) (A) (A) (A) (A) (A) (A) (A) (A)
                 (A) (A) (A) (A) (A) (A) (A) (A) (A) (A) (A) (A)
                 (A) (A) (A) (A) (A) (A) (A) (A) (A) (A) (A) (A)
                 (A) (A) (A) (A) (A) (A) (A) (A) (A) (A) (A) (A)
                 (A) (A) (A) (A) (A) (A) (A) (A) (A) (A) (A) (A)
                 (A) (A) (A) (A) (A) (A) (A) (A) (A) (A) (A) (A)
                 (A) (A) (A)
 The electronic state is 1-A.
 Alpha  occ. eigenvalues --  -88.85104 -19.24985 -19.15797 -14.41180 -14.39301
 Alpha  occ. eigenvalues --  -14.38315 -14.38180 -10.34319 -10.34065 -10.30506
 Alpha  occ. eigenvalues --  -10.30484 -10.27423 -10.27281 -10.26275 -10.26085
 Alpha  occ. eigenvalues --  -10.25682 -10.25204 -10.24293 -10.23761 -10.23375
 Alpha  occ. eigenvalues --  -10.22847 -10.21781 -10.21256 -10.20176 -10.19870
 Alpha  occ. eigenvalues --  -10.18817  -7.91181  -5.87685  -5.87229  -5.86779
 Alpha  occ. eigenvalues --   -1.14404  -1.05432  -1.00117  -0.99385  -0.94620
 Alpha  occ. eigenvalues --   -0.94309  -0.88671  -0.85587  -0.82956  -0.80877
 Alpha  occ. eigenvalues --   -0.80154  -0.79929  -0.78241  -0.75108  -0.71758
 Alpha  occ. eigenvalues --   -0.69598  -0.68401  -0.68010  -0.65794  -0.62385
 Alpha  occ. eigenvalues --   -0.61304  -0.60243  -0.59816  -0.59741  -0.56712
 Alpha  occ. eigenvalues --   -0.56352  -0.55811  -0.55422  -0.52940  -0.51297
 Alpha  occ. eigenvalues --   -0.49625  -0.49325  -0.49171  -0.48997  -0.47334
 Alpha  occ. eigenvalues --   -0.47049  -0.45938  -0.45709  -0.45476  -0.44505
 Alpha  occ. eigenvalues --   -0.43352  -0.43016  -0.42583  -0.41478  -0.40855
 Alpha  occ. eigenvalues --   -0.40244  -0.39932  -0.39657  -0.39229  -0.39157
 Alpha  occ. eigenvalues --   -0.38896  -0.38385  -0.37990  -0.37803  -0.37361
 Alpha  occ. eigenvalues --   -0.37236  -0.36638  -0.36409  -0.36227  -0.35678
 Alpha  occ. eigenvalues --   -0.34897  -0.34480  -0.34019  -0.33367  -0.30011
 Alpha  occ. eigenvalues --   -0.27899  -0.26646  -0.24938  -0.22988
 Alpha virt. eigenvalues --   -0.09154  -0.05656  -0.04668  -0.03109  -0.03002
 Alpha virt. eigenvalues --   -0.02389  -0.01023  -0.00562  -0.00068   0.00015
 Alpha virt. eigenvalues --    0.00079   0.00745   0.01012   0.01358   0.01933
 Alpha virt. eigenvalues --    0.01974   0.02245   0.02814   0.02944   0.03473
 Alpha virt. eigenvalues --    0.03792   0.04147   0.04313   0.04818   0.05194
 Alpha virt. eigenvalues --    0.05432   0.05677   0.06006   0.06425   0.06689
 Alpha virt. eigenvalues --    0.07096   0.07116   0.07399   0.07774   0.08015
 Alpha virt. eigenvalues --    0.08120   0.08252   0.08689   0.08932   0.09342
 Alpha virt. eigenvalues --    0.09408   0.09691   0.10076   0.10142   0.10382
 Alpha virt. eigenvalues --    0.10784   0.10893   0.11152   0.11457   0.11805
 Alpha virt. eigenvalues --    0.12071   0.12182   0.12816   0.12970   0.13501
 Alpha virt. eigenvalues --    0.13628   0.13725   0.13828   0.14189   0.14285
 Alpha virt. eigenvalues --    0.14709   0.15008   0.15363   0.15757   0.16070
 Alpha virt. eigenvalues --    0.16111   0.16367   0.16560   0.16915   0.17006
 Alpha virt. eigenvalues --    0.17409   0.17449   0.17846   0.18179   0.18254
 Alpha virt. eigenvalues --    0.18349   0.18601   0.18712   0.19254   0.19388
 Alpha virt. eigenvalues --    0.19514   0.20355   0.20534   0.20571   0.21105
 Alpha virt. eigenvalues --    0.21240   0.21482   0.21598   0.21662   0.21968
 Alpha virt. eigenvalues --    0.21986   0.22670   0.23186   0.23217   0.23600
 Alpha virt. eigenvalues --    0.23796   0.23961   0.24249   0.24540   0.24875
 Alpha virt. eigenvalues --    0.24966   0.25104   0.25474   0.25603   0.25967
 Alpha virt. eigenvalues --    0.26023   0.26081   0.26380   0.26546   0.26982
 Alpha virt. eigenvalues --    0.27133   0.27224   0.27580   0.27744   0.27776
 Alpha virt. eigenvalues --    0.28050   0.28362   0.28760   0.28992   0.29133
 Alpha virt. eigenvalues --    0.29576   0.29915   0.30175   0.30321   0.30739
 Alpha virt. eigenvalues --    0.31209   0.31589   0.31969   0.32491   0.32917
 Alpha virt. eigenvalues --    0.33131   0.33426   0.33663   0.33833   0.34138
 Alpha virt. eigenvalues --    0.34600   0.35239   0.35505   0.35681   0.35988
 Alpha virt. eigenvalues --    0.36413   0.36799   0.37312   0.37722   0.38025
 Alpha virt. eigenvalues --    0.38612   0.39390   0.39631   0.40180   0.40489
 Alpha virt. eigenvalues --    0.40718   0.41358   0.42392   0.42992   0.44179
 Alpha virt. eigenvalues --    0.44537   0.45241   0.47924   0.48723   0.52307
 Alpha virt. eigenvalues --    0.54384   0.54735   0.55666   0.57400   0.59671
 Alpha virt. eigenvalues --    0.60917   0.62176   0.63085   0.63682   0.64495
 Alpha virt. eigenvalues --    0.64942   0.65298   0.65970   0.66736   0.67664
 Alpha virt. eigenvalues --    0.67888   0.68281   0.69355   0.69885   0.70135
 Alpha virt. eigenvalues --    0.70767   0.70965   0.71203   0.72213   0.72508
 Alpha virt. eigenvalues --    0.72793   0.73630   0.73965   0.74650   0.75749
 Alpha virt. eigenvalues --    0.75993   0.76588   0.77236   0.77578   0.78331
 Alpha virt. eigenvalues --    0.79383   0.79581   0.79955   0.80838   0.81204
 Alpha virt. eigenvalues --    0.81997   0.82297   0.82675   0.83215   0.83298
 Alpha virt. eigenvalues --    0.84017   0.85641   0.85980   0.86309   0.86433
 Alpha virt. eigenvalues --    0.87055   0.87721   0.88674   0.88986   0.90570
 Alpha virt. eigenvalues --    0.91379   0.91487   0.92061   0.92669   0.93048
 Alpha virt. eigenvalues --    0.93583   0.94468   0.95275   0.95813   0.96337
 Alpha virt. eigenvalues --    0.96960   0.97455   0.97778   0.98183   0.98651
 Alpha virt. eigenvalues --    1.00210   1.00368   1.01103   1.01313   1.01874
 Alpha virt. eigenvalues --    1.02844   1.03368   1.04246   1.05075   1.05169
 Alpha virt. eigenvalues --    1.05798   1.06941   1.07140   1.07695   1.08224
 Alpha virt. eigenvalues --    1.09191   1.09951   1.10127   1.10567   1.11079
 Alpha virt. eigenvalues --    1.11727   1.12253   1.12484   1.12934   1.13931
 Alpha virt. eigenvalues --    1.14287   1.15147   1.15657   1.16315   1.17123
 Alpha virt. eigenvalues --    1.18030   1.18292   1.18989   1.19951   1.20579
 Alpha virt. eigenvalues --    1.21134   1.21633   1.23416   1.23968   1.25962
 Alpha virt. eigenvalues --    1.27762   1.28212   1.28714   1.30281   1.30950
 Alpha virt. eigenvalues --    1.32044   1.33894   1.34202   1.35403   1.35702
 Alpha virt. eigenvalues --    1.36889   1.37426   1.38978   1.39300   1.40677
 Alpha virt. eigenvalues --    1.41806   1.42757   1.45041   1.45319   1.46176
 Alpha virt. eigenvalues --    1.47015   1.48028   1.48712   1.49497   1.49941
 Alpha virt. eigenvalues --    1.50232   1.50894   1.51416   1.52422   1.53384
 Alpha virt. eigenvalues --    1.53553   1.54996   1.56556   1.57725   1.58625
 Alpha virt. eigenvalues --    1.59177   1.60450   1.61459   1.61480   1.63953
 Alpha virt. eigenvalues --    1.64443   1.64488   1.68098   1.68922   1.69989
 Alpha virt. eigenvalues --    1.71471   1.72772   1.74617   1.75201   1.76279
 Alpha virt. eigenvalues --    1.77503   1.78096   1.79019   1.79434   1.80505
 Alpha virt. eigenvalues --    1.81533   1.81768   1.82344   1.83540   1.84623
 Alpha virt. eigenvalues --    1.84836   1.86302   1.86589   1.86735   1.87916
 Alpha virt. eigenvalues --    1.88457   1.88806   1.89288   1.89931   1.90997
 Alpha virt. eigenvalues --    1.92026   1.92115   1.93389   1.93874   1.94515
 Alpha virt. eigenvalues --    1.95517   1.95612   1.96365   1.97761   1.97855
 Alpha virt. eigenvalues --    1.98312   1.99188   2.00436   2.00778   2.01435
 Alpha virt. eigenvalues --    2.02658   2.03516   2.03895   2.06111   2.06884
 Alpha virt. eigenvalues --    2.07443   2.08792   2.09528   2.10506   2.10829
 Alpha virt. eigenvalues --    2.11309   2.11636   2.12167   2.12311   2.12913
 Alpha virt. eigenvalues --    2.13346   2.14038   2.14640   2.15726   2.17070
 Alpha virt. eigenvalues --    2.18270   2.19389   2.21177   2.21933   2.24396
 Alpha virt. eigenvalues --    2.24734   2.25260   2.25655   2.26672   2.27719
 Alpha virt. eigenvalues --    2.28431   2.29948   2.31351   2.31718   2.33058
 Alpha virt. eigenvalues --    2.34279   2.34990   2.35280   2.37039   2.37192
 Alpha virt. eigenvalues --    2.38453   2.39381   2.41398   2.42083   2.43141
 Alpha virt. eigenvalues --    2.45205   2.46302   2.46462   2.47832   2.47998
 Alpha virt. eigenvalues --    2.50108   2.51088   2.51270   2.52748   2.53880
 Alpha virt. eigenvalues --    2.55014   2.55738   2.56517   2.57905   2.58145
 Alpha virt. eigenvalues --    2.58939   2.59834   2.60107   2.60981   2.62603
 Alpha virt. eigenvalues --    2.63053   2.64118   2.66229   2.68449   2.68984
 Alpha virt. eigenvalues --    2.70222   2.70282   2.71390   2.71560   2.73106
 Alpha virt. eigenvalues --    2.74023   2.74738   2.75661   2.76379   2.76998
 Alpha virt. eigenvalues --    2.78812   2.79539   2.79837   2.82349   2.83289
 Alpha virt. eigenvalues --    2.83478   2.84041   2.84859   2.86029   2.86219
 Alpha virt. eigenvalues --    2.86491   2.87359   2.88180   2.88716   2.89118
 Alpha virt. eigenvalues --    2.90814   2.92218   2.93214   2.93566   2.94692
 Alpha virt. eigenvalues --    2.94999   2.98454   2.98804   2.99127   3.01962
 Alpha virt. eigenvalues --    3.02649   3.03218   3.05769   3.10011   3.18017
 Alpha virt. eigenvalues --    3.18934   3.23204   3.23646   3.27020   3.28413
 Alpha virt. eigenvalues --    3.29275   3.31063   3.31479   3.32589   3.33265
 Alpha virt. eigenvalues --    3.34400   3.35387   3.36458   3.38446   3.39077
 Alpha virt. eigenvalues --    3.41741   3.43455   3.44829   3.48265   3.48624
 Alpha virt. eigenvalues --    3.49177   3.49667   3.52815   3.55237   3.56275
 Alpha virt. eigenvalues --    3.57338   3.60244   3.74028   4.02390   4.19604
 Alpha virt. eigenvalues --    4.21655   4.23126   4.25301   4.31326   4.32330
 Alpha virt. eigenvalues --    4.33609   4.36919   4.40154   4.42119   4.44472
 Alpha virt. eigenvalues --    4.46730   4.49686   4.50229   4.51621   4.56449
 Alpha virt. eigenvalues --    4.59828   4.62845   4.66733   4.69944   4.76290
 Alpha virt. eigenvalues --    4.76992   4.80744   4.83262   4.95759
          Condensed to atoms (all electrons):
               1          2          3          4          5          6
     1  C    5.713620  -0.412145   0.316354  -0.193583  -0.108332  -0.045343
     2  C   -0.412145   6.724451  -0.971711   1.064365  -0.500064   0.265202
     3  C    0.316354  -0.971711   8.722230  -3.463478   3.308378  -1.872491
     4  C   -0.193583   1.064365  -3.463478  16.089104  -7.966311   5.271281
     5  C   -0.108332  -0.500064   3.308378  -7.966311  31.506584 -14.847199
     6  C   -0.045343   0.265202  -1.872491   5.271281 -14.847199  30.849729
     7  C    0.060511  -0.027096  -0.395528   1.732029  -1.261716  -1.613881
     8  C    0.003069  -0.008421   0.080553  -0.325769   0.139013  -0.131541
     9  O   -0.000205   0.000493  -0.011411   0.030473  -0.081407   0.382509
    10  C    0.001971  -0.014841   0.052699  -0.329141  -0.461921   0.289803
    11  O    0.000112   0.000182   0.005127  -0.002324   0.005615  -0.113376
    12  C   -0.036368  -0.127277   0.925166  -3.858379   5.211807 -12.330719
    13  C   -0.049117  -0.342295  -1.206975  -2.768538  -9.178757   1.191176
    14  S   -0.000547  -0.011127   0.001056  -0.255228   0.348632  -0.456485
    15  N    0.004070   0.021114   0.068599   0.502256  -0.537583   0.679940
    16  C    0.000725  -0.013583   0.013371   0.434848  -0.764264  -1.432964
    17  C    0.000053   0.001442   0.007517  -0.139632  -0.128919   0.334889
    18  C    0.000015   0.000403   0.001376   0.041653   0.099838   0.072539
    19  N   -0.000000  -0.000004   0.000159  -0.001717   0.009696  -0.005868
    20  C   -0.000000   0.000013  -0.000017  -0.000192   0.001739   0.005465
    21  C   -0.000000   0.000002   0.000020   0.000568   0.003522  -0.000597
    22  N   -0.000000  -0.000000  -0.000000  -0.000004  -0.000032   0.000011
    23  C   -0.000000   0.000003  -0.000028   0.000371  -0.000259   0.001722
    24  N   -0.000000   0.000000   0.000000   0.000001   0.000052  -0.000006
    25  C    0.000004   0.002153  -0.001432   0.065588   0.090810   0.133768
    26  C    0.000028   0.000638   0.013462  -0.158143   0.482044  -0.126285
    27  H    0.462637  -0.091695   0.009650  -0.015862  -0.000131  -0.000982
    28  H    0.471551  -0.119827   0.009149  -0.003505   0.001470  -0.004953
    29  H    0.474588  -0.132616   0.013916   0.004238  -0.009233   0.004681
    30  H   -0.003633   0.435462  -0.128925   0.036755  -0.022400   0.003098
    31  H    0.019320   0.413071  -0.101604   0.015677  -0.045636   0.005192
    32  H   -0.010890   0.026555   0.295461   0.064798  -0.131290   0.089698
    33  H    0.005591   0.008371   0.359814  -0.050374  -0.063532   0.054407
    34  H   -0.001458   0.002515  -0.089559   0.585955  -0.177376  -0.012293
    35  H   -0.001332  -0.001586  -0.072924   0.339439  -0.296970   0.179029
    36  H    0.000879   0.002018  -0.005401  -0.016607   0.137924  -0.103663
    37  H    0.000553  -0.002010   0.034785  -0.025569   0.035843   0.115754
    38  H    0.000008   0.000227   0.000097   0.002306  -0.016157   0.074142
    39  H   -0.000118   0.001540  -0.003239   0.006863  -0.105416  -0.046470
    40  H   -0.000094  -0.001488  -0.009604  -0.074503  -0.125239   0.012944
    41  H   -0.000003  -0.000070  -0.001591  -0.004176  -0.043544   0.010044
    42  H    0.000000   0.000010  -0.000139   0.003849  -0.016989   0.005811
    43  H   -0.000000  -0.000013  -0.000193  -0.004495  -0.010719   0.002863
    44  H    0.000000   0.000000   0.000003   0.000017   0.001121  -0.000477
    45  H   -0.000000  -0.000001  -0.000009  -0.000418  -0.001381   0.000011
    46  H    0.000000   0.000000  -0.000000   0.000001  -0.000031   0.000004
    47  H    0.000000   0.000000  -0.000003   0.000057  -0.000512   0.000201
    48  H   -0.000000  -0.000001  -0.000014  -0.000437  -0.000184   0.000285
    49  H   -0.000001  -0.000021  -0.000251  -0.005747   0.000595  -0.002219
    50  H    0.000002   0.000077   0.000265   0.007597   0.004335  -0.004257
               7          8          9         10         11         12
     1  C    0.060511   0.003069  -0.000205   0.001971   0.000112  -0.036368
     2  C   -0.027096  -0.008421   0.000493  -0.014841   0.000182  -0.127277
     3  C   -0.395528   0.080553  -0.011411   0.052699   0.005127   0.925166
     4  C    1.732029  -0.325769   0.030473  -0.329141  -0.002324  -3.858379
     5  C   -1.261716   0.139013  -0.081407  -0.461921   0.005615   5.211807
     6  C   -1.613881  -0.131541   0.382509   0.289803  -0.113376 -12.330719
     7  C   18.522089  -1.270168  -0.157532   0.299345  -0.070719  -9.372463
     8  C   -1.270168   6.146798   0.039280   0.113370   0.076863   0.637773
     9  O   -0.157532   0.039280   8.487936   0.046873  -0.090065  -0.298846
    10  C    0.299345   0.113370   0.046873   5.962702   0.456486  -0.927390
    11  O   -0.070719   0.076863  -0.090065   0.456486   8.289938  -0.078178
    12  C   -9.372463   0.637773  -0.298846  -0.927390  -0.078178  23.814280
    13  C   -1.142111   0.303046   0.005116   0.153971  -0.008848   1.495988
    14  S    0.172493  -0.024919  -0.000563   0.002219  -0.000341  -0.006305
    15  N    0.421198  -0.039796   0.001055   0.027758   0.001118  -0.544546
    16  C    0.566442  -0.165443  -0.004823   0.001926   0.003157   0.544586
    17  C   -0.149454   0.038330   0.000615   0.002983  -0.001286  -0.031393
    18  C    0.084159  -0.000253  -0.000013   0.004023   0.000020  -0.121099
    19  N   -0.004497   0.000521  -0.000004   0.000059  -0.000003   0.002172
    20  C   -0.004806   0.000760   0.000007  -0.000113  -0.000005  -0.000182
    21  C    0.002706  -0.000047  -0.000001   0.000090   0.000001  -0.001946
    22  N   -0.000025   0.000005   0.000000  -0.000001  -0.000000   0.000010
    23  C   -0.002447   0.000003   0.000003  -0.000111   0.000001   0.000226
    24  N    0.000021  -0.000001   0.000000   0.000001  -0.000000  -0.000007
    25  C   -0.220752   0.000442   0.000958  -0.007334  -0.000091   0.056689
    26  C   -0.146711   0.027839   0.002748  -0.010412  -0.000566   0.029577
    27  H    0.000130   0.000022  -0.000000   0.000009   0.000000   0.000124
    28  H    0.001198   0.000234   0.000000  -0.000290   0.000000  -0.000044
    29  H    0.000315  -0.000009   0.000000   0.000100   0.000000  -0.000828
    30  H   -0.002453   0.000044   0.000000  -0.000124   0.000000   0.000326
    31  H    0.011082   0.000867   0.000002   0.000146   0.000000  -0.005490
    32  H    0.019084  -0.011172   0.000153  -0.004586  -0.000013  -0.015912
    33  H    0.015492   0.003003  -0.000003   0.003064   0.000014  -0.040271
    34  H    0.068018  -0.004395   0.000009  -0.001085  -0.000001  -0.051871
    35  H   -0.056502   0.022634   0.000002   0.005703   0.000005   0.017748
    36  H   -0.027055   0.003273   0.000069   0.016554   0.000070   0.122961
    37  H    0.211902  -0.014234   0.008568   0.001833   0.000090   0.024700
    38  H   -0.153135   0.390313  -0.064180   0.006236  -0.001051   0.060628
    39  H   -0.000952  -0.005441   0.009704   0.024305  -0.008939   0.368843
    40  H    0.001730   0.000561  -0.000715   0.002389   0.000004   0.019193
    41  H    0.003906   0.000016  -0.000000   0.000115   0.000000  -0.008335
    42  H    0.002073  -0.000154   0.000001   0.000079   0.000001  -0.004232
    43  H   -0.006192   0.001657  -0.000019   0.000247   0.000001  -0.000772
    44  H   -0.000015  -0.000001   0.000000  -0.000013  -0.000000   0.000289
    45  H   -0.000060   0.000018  -0.000000   0.000004  -0.000000   0.000010
    46  H    0.000004  -0.000001   0.000000   0.000000  -0.000000   0.000000
    47  H    0.000000  -0.000000   0.000000   0.000000   0.000000  -0.000072
    48  H   -0.000169  -0.000022  -0.000000   0.000008  -0.000000   0.000105
    49  H   -0.001194  -0.001407  -0.000028   0.000602  -0.000000   0.000533
    50  H    0.004347  -0.000588   0.000003  -0.000097  -0.000000   0.000229
              13         14         15         16         17         18
     1  C   -0.049117  -0.000547   0.004070   0.000725   0.000053   0.000015
     2  C   -0.342295  -0.011127   0.021114  -0.013583   0.001442   0.000403
     3  C   -1.206975   0.001056   0.068599   0.013371   0.007517   0.001376
     4  C   -2.768538  -0.255228   0.502256   0.434848  -0.139632   0.041653
     5  C   -9.178757   0.348632  -0.537583  -0.764264  -0.128919   0.099838
     6  C    1.191176  -0.456485   0.679940  -1.432964   0.334889   0.072539
     7  C   -1.142111   0.172493   0.421198   0.566442  -0.149454   0.084159
     8  C    0.303046  -0.024919  -0.039796  -0.165443   0.038330  -0.000253
     9  O    0.005116  -0.000563   0.001055  -0.004823   0.000615  -0.000013
    10  C    0.153971   0.002219   0.027758   0.001926   0.002983   0.004023
    11  O   -0.008848  -0.000341   0.001118   0.003157  -0.001286   0.000020
    12  C    1.495988  -0.006305  -0.544546   0.544586  -0.031393  -0.121099
    13  C   20.709145   0.272137  -0.941423  -2.282331   0.604555  -0.310199
    14  S    0.272137  16.325048  -0.365864   0.271317  -0.264910  -0.013353
    15  N   -0.941423  -0.365864   7.815654  -1.048116   0.375700   0.036569
    16  C   -2.282331   0.271317  -1.048116  14.654715  -2.206837   0.357698
    17  C    0.604555  -0.264910   0.375700  -2.206837   7.923438  -1.014340
    18  C   -0.310199  -0.013353   0.036569   0.357698  -1.014340   6.680029
    19  N   -0.008330  -0.005824   0.023415  -0.185833   0.054513   0.073457
    20  C    0.012704  -0.001352   0.023086  -0.065593   0.049921   0.040891
    21  C   -0.007940  -0.001372  -0.000035   0.000314  -0.353106   0.095556
    22  N    0.000120   0.000013   0.000108  -0.000646   0.008877   0.003395
    23  C   -0.008444  -0.000729   0.002837  -0.065552  -0.069600   0.001574
    24  N    0.000266  -0.000038   0.000057  -0.000247  -0.009625  -0.006138
    25  C   -0.295684  -0.024635  -0.024376   0.046101  -0.180022  -0.108979
    26  C    0.580100   0.065240   0.106935  -2.017975   0.224556  -0.355355
    27  H   -0.000255   0.000010   0.000000   0.000000   0.000000   0.000000
    28  H    0.000267   0.000059  -0.000003  -0.000004  -0.000000  -0.000000
    29  H    0.001081  -0.000130   0.000005   0.000004   0.000000  -0.000000
    30  H   -0.000984   0.001114  -0.000127  -0.000136  -0.000002  -0.000001
    31  H    0.001632  -0.001078   0.000338   0.000147  -0.000002  -0.000001
    32  H   -0.008209   0.000170  -0.000876  -0.001076  -0.000021  -0.000010
    33  H    0.012823  -0.004568   0.001868   0.001178  -0.000089   0.000002
    34  H   -0.019934   0.019718   0.009717   0.000410  -0.000541  -0.000227
    35  H    0.148322  -0.010815   0.008235   0.009384  -0.000419   0.000009
    36  H    0.095806  -0.009071   0.023689   0.022368  -0.002220   0.000084
    37  H   -0.098911  -0.003152   0.014624  -0.003812  -0.000002   0.000249
    38  H    0.000685  -0.000092  -0.000541   0.002831  -0.000316  -0.000000
    39  H    0.061763   0.003935  -0.003424   0.004423  -0.000671   0.000280
    40  H    0.314854   0.024557   0.192011  -0.081924  -0.019831  -0.004041
    41  H   -0.004445   0.052041  -0.054830   0.453233  -0.051666   0.014620
    42  H    0.003891   0.005463  -0.007118  -0.032512   0.365622  -0.007011
    43  H    0.029921   0.007654   0.014102  -0.128794   0.496574  -0.074693
    44  H    0.000302  -0.001078   0.000301   0.008626   0.003404   0.391873
    45  H   -0.000225   0.005079  -0.002471   0.017645  -0.046157   0.415433
    46  H    0.000059   0.000167  -0.000451   0.013157   0.012759   0.007144
    47  H    0.000545  -0.000001   0.001244  -0.001235   0.010209   0.001955
    48  H    0.011004   0.001080  -0.000950   0.030724   0.017100  -0.018837
    49  H    0.040366   0.003521   0.019376  -0.182601   0.016591  -0.005989
    50  H   -0.021081  -0.009361  -0.003381  -0.059414   0.013141  -0.003675
              19         20         21         22         23         24
     1  C   -0.000000  -0.000000  -0.000000  -0.000000  -0.000000  -0.000000
     2  C   -0.000004   0.000013   0.000002  -0.000000   0.000003   0.000000
     3  C    0.000159  -0.000017   0.000020  -0.000000  -0.000028   0.000000
     4  C   -0.001717  -0.000192   0.000568  -0.000004   0.000371   0.000001
     5  C    0.009696   0.001739   0.003522  -0.000032  -0.000259   0.000052
     6  C   -0.005868   0.005465  -0.000597   0.000011   0.001722  -0.000006
     7  C   -0.004497  -0.004806   0.002706  -0.000025  -0.002447   0.000021
     8  C    0.000521   0.000760  -0.000047   0.000005   0.000003  -0.000001
     9  O   -0.000004   0.000007  -0.000001   0.000000   0.000003   0.000000
    10  C    0.000059  -0.000113   0.000090  -0.000001  -0.000111   0.000001
    11  O   -0.000003  -0.000005   0.000001  -0.000000   0.000001  -0.000000
    12  C    0.002172  -0.000182  -0.001946   0.000010   0.000226  -0.000007
    13  C   -0.008330   0.012704  -0.007940   0.000120  -0.008444   0.000266
    14  S   -0.005824  -0.001352  -0.001372   0.000013  -0.000729  -0.000038
    15  N    0.023415   0.023086  -0.000035   0.000108   0.002837   0.000057
    16  C   -0.185833  -0.065593   0.000314  -0.000646  -0.065552  -0.000247
    17  C    0.054513   0.049921  -0.353106   0.008877  -0.069600  -0.009625
    18  C    0.073457   0.040891   0.095556   0.003395   0.001574  -0.006138
    19  N    7.152593   0.111040  -0.085160  -0.009804  -0.074884  -0.010748
    20  C    0.111040   7.354264  -1.151271   0.132061  -1.260739   0.144580
    21  C   -0.085160  -1.151271   7.484340   0.219164  -0.250374   0.003202
    22  N   -0.009804   0.132061   0.219164   7.126137   0.011475  -0.000020
    23  C   -0.074884  -1.260739  -0.250374   0.011475   7.732346   0.207509
    24  N   -0.010748   0.144580   0.003202  -0.000020   0.207509   7.119819
    25  C    0.186010   0.043828  -0.027447  -0.010596   0.077515   0.004287
    26  C    0.014869   0.064788  -0.068537  -0.005853  -0.385707   0.010147
    27  H   -0.000000  -0.000000  -0.000000  -0.000000  -0.000000  -0.000000
    28  H   -0.000000   0.000000  -0.000000   0.000000   0.000000   0.000000
    29  H   -0.000000  -0.000000  -0.000000  -0.000000   0.000000  -0.000000
    30  H   -0.000000   0.000000  -0.000000   0.000000   0.000000   0.000000
    31  H   -0.000000  -0.000000  -0.000000  -0.000000   0.000000  -0.000000
    32  H   -0.000000   0.000000  -0.000000  -0.000000  -0.000000   0.000000
    33  H   -0.000000  -0.000000   0.000000  -0.000000   0.000000  -0.000000
    34  H   -0.000001  -0.000001  -0.000000  -0.000000  -0.000000   0.000000
    35  H   -0.000002   0.000000   0.000000   0.000000   0.000000  -0.000000
    36  H    0.000001   0.000001  -0.000000   0.000000  -0.000001   0.000000
    37  H    0.000000   0.000008   0.000002  -0.000000   0.000003  -0.000000
    38  H    0.000001   0.000002  -0.000000   0.000000   0.000001  -0.000000
    39  H    0.000000   0.000002   0.000000  -0.000000  -0.000000  -0.000000
    40  H   -0.001015   0.000187  -0.000088   0.000001   0.000131  -0.000001
    41  H    0.001105  -0.001623   0.001375  -0.000014   0.002575  -0.000023
    42  H    0.004217  -0.003826  -0.000291   0.000004   0.000358   0.000012
    43  H    0.005386  -0.005175   0.000714  -0.000002   0.003745  -0.000342
    44  H   -0.065538   0.036499  -0.014107   0.000206  -0.048719   0.011920
    45  H   -0.082365   0.000521  -0.000382  -0.000059  -0.019794  -0.002043
    46  H   -0.060271   0.464682  -0.102442  -0.005810  -0.115795  -0.004785
    47  H   -0.063880   0.030674  -0.045992   0.011779  -0.013440   0.000168
    48  H   -0.080346   0.001099  -0.012821  -0.001998  -0.000254  -0.000022
    49  H    0.005045  -0.003089   0.002886  -0.000298   0.002664  -0.000014
    50  H    0.006897   0.000148   0.000155   0.000015  -0.000884   0.000006
              25         26         27         28         29         30
     1  C    0.000004   0.000028   0.462637   0.471551   0.474588  -0.003633
     2  C    0.002153   0.000638  -0.091695  -0.119827  -0.132616   0.435462
     3  C   -0.001432   0.013462   0.009650   0.009149   0.013916  -0.128925
     4  C    0.065588  -0.158143  -0.015862  -0.003505   0.004238   0.036755
     5  C    0.090810   0.482044  -0.000131   0.001470  -0.009233  -0.022400
     6  C    0.133768  -0.126285  -0.000982  -0.004953   0.004681   0.003098
     7  C   -0.220752  -0.146711   0.000130   0.001198   0.000315  -0.002453
     8  C    0.000442   0.027839   0.000022   0.000234  -0.000009   0.000044
     9  O    0.000958   0.002748  -0.000000   0.000000   0.000000   0.000000
    10  C   -0.007334  -0.010412   0.000009  -0.000290   0.000100  -0.000124
    11  O   -0.000091  -0.000566   0.000000   0.000000   0.000000   0.000000
    12  C    0.056689   0.029577   0.000124  -0.000044  -0.000828   0.000326
    13  C   -0.295684   0.580100  -0.000255   0.000267   0.001081  -0.000984
    14  S   -0.024635   0.065240   0.000010   0.000059  -0.000130   0.001114
    15  N   -0.024376   0.106935   0.000000  -0.000003   0.000005  -0.000127
    16  C    0.046101  -2.017975   0.000000  -0.000004   0.000004  -0.000136
    17  C   -0.180022   0.224556   0.000000  -0.000000   0.000000  -0.000002
    18  C   -0.108979  -0.355355   0.000000  -0.000000  -0.000000  -0.000001
    19  N    0.186010   0.014869  -0.000000  -0.000000  -0.000000  -0.000000
    20  C    0.043828   0.064788  -0.000000   0.000000  -0.000000   0.000000
    21  C   -0.027447  -0.068537  -0.000000  -0.000000  -0.000000  -0.000000
    22  N   -0.010596  -0.005853  -0.000000   0.000000  -0.000000   0.000000
    23  C    0.077515  -0.385707  -0.000000   0.000000   0.000000   0.000000
    24  N    0.004287   0.010147  -0.000000   0.000000  -0.000000   0.000000
    25  C    7.031385  -1.265220  -0.000000  -0.000000   0.000000   0.000002
    26  C   -1.265220   8.267217  -0.000000   0.000000   0.000000   0.000020
    27  H   -0.000000  -0.000000   0.552621  -0.028903  -0.028314  -0.003269
    28  H   -0.000000   0.000000  -0.028903   0.556170  -0.031227   0.004720
    29  H    0.000000   0.000000  -0.028314  -0.031227   0.551699  -0.005003
    30  H    0.000002   0.000020  -0.003269   0.004720  -0.005003   0.576122
    31  H    0.000001  -0.000019  -0.003315  -0.005112   0.004761  -0.035909
    32  H    0.000011   0.000237   0.000004   0.003295  -0.000549   0.005132
    33  H   -0.000001  -0.000149  -0.000014  -0.000558   0.003169  -0.005910
    34  H   -0.000116  -0.000372   0.000001  -0.000000  -0.000002   0.002977
    35  H   -0.000121  -0.002571   0.000001   0.000000   0.000000  -0.000633
    36  H    0.000227  -0.001471   0.000000   0.000000   0.000000  -0.000007
    37  H    0.002632   0.003511   0.000000  -0.000000   0.000000  -0.000001
    38  H    0.000539  -0.000175  -0.000000   0.000000   0.000000  -0.000000
    39  H   -0.000002  -0.000297  -0.000000   0.000000   0.000000   0.000000
    40  H    0.000632   0.017424   0.000000   0.000000  -0.000000   0.000000
    41  H    0.030807  -0.118398  -0.000000   0.000000   0.000000  -0.000000
    42  H   -0.007718   0.024749   0.000000   0.000000  -0.000000   0.000000
    43  H   -0.001641  -0.013865  -0.000000   0.000000   0.000000  -0.000000
    44  H    0.006715   0.010878  -0.000000   0.000000  -0.000000   0.000000
    45  H   -0.012125  -0.000445   0.000000   0.000000   0.000000   0.000000
    46  H    0.009034   0.004881   0.000000   0.000000   0.000000  -0.000000
    47  H    0.363688   0.047188   0.000000   0.000000  -0.000000  -0.000000
    48  H    0.404604  -0.080560  -0.000000   0.000000  -0.000000  -0.000000
    49  H   -0.035621   0.457421   0.000000   0.000000  -0.000000  -0.000000
    50  H    0.020042   0.374737  -0.000000   0.000000  -0.000000   0.000000
              31         32         33         34         35         36
     1  C    0.019320  -0.010890   0.005591  -0.001458  -0.001332   0.000879
     2  C    0.413071   0.026555   0.008371   0.002515  -0.001586   0.002018
     3  C   -0.101604   0.295461   0.359814  -0.089559  -0.072924  -0.005401
     4  C    0.015677   0.064798  -0.050374   0.585955   0.339439  -0.016607
     5  C   -0.045636  -0.131290  -0.063532  -0.177376  -0.296970   0.137924
     6  C    0.005192   0.089698   0.054407  -0.012293   0.179029  -0.103663
     7  C    0.011082   0.019084   0.015492   0.068018  -0.056502  -0.027055
     8  C    0.000867  -0.011172   0.003003  -0.004395   0.022634   0.003273
     9  O    0.000002   0.000153  -0.000003   0.000009   0.000002   0.000069
    10  C    0.000146  -0.004586   0.003064  -0.001085   0.005703   0.016554
    11  O    0.000000  -0.000013   0.000014  -0.000001   0.000005   0.000070
    12  C   -0.005490  -0.015912  -0.040271  -0.051871   0.017748   0.122961
    13  C    0.001632  -0.008209   0.012823  -0.019934   0.148322   0.095806
    14  S   -0.001078   0.000170  -0.004568   0.019718  -0.010815  -0.009071
    15  N    0.000338  -0.000876   0.001868   0.009717   0.008235   0.023689
    16  C    0.000147  -0.001076   0.001178   0.000410   0.009384   0.022368
    17  C   -0.000002  -0.000021  -0.000089  -0.000541  -0.000419  -0.002220
    18  C   -0.000001  -0.000010   0.000002  -0.000227   0.000009   0.000084
    19  N   -0.000000  -0.000000  -0.000000  -0.000001  -0.000002   0.000001
    20  C   -0.000000   0.000000  -0.000000  -0.000001   0.000000   0.000001
    21  C   -0.000000  -0.000000   0.000000  -0.000000   0.000000  -0.000000
    22  N   -0.000000  -0.000000  -0.000000  -0.000000   0.000000   0.000000
    23  C    0.000000  -0.000000   0.000000  -0.000000   0.000000  -0.000001
    24  N   -0.000000   0.000000  -0.000000   0.000000  -0.000000   0.000000
    25  C    0.000001   0.000011  -0.000001  -0.000116  -0.000121   0.000227
    26  C   -0.000019   0.000237  -0.000149  -0.000372  -0.002571  -0.001471
    27  H   -0.003315   0.000004  -0.000014   0.000001   0.000001   0.000000
    28  H   -0.005112   0.003295  -0.000558  -0.000000   0.000000   0.000000
    29  H    0.004761  -0.000549   0.003169  -0.000002   0.000000   0.000000
    30  H   -0.035909   0.005132  -0.005910   0.002977  -0.000633  -0.000007
    31  H    0.588449  -0.006056   0.005212  -0.000553   0.003472   0.000005
    32  H   -0.006056   0.582226  -0.035370   0.004778  -0.005974  -0.000455
    33  H    0.005212  -0.035370   0.583798  -0.005032   0.005693   0.004692
    34  H   -0.000553   0.004778  -0.005032   0.529742  -0.029784  -0.004546
    35  H    0.003472  -0.005974   0.005693  -0.029784   0.611848   0.005811
    36  H    0.000005  -0.000455   0.004692  -0.004546   0.005811   0.569539
    37  H    0.000006  -0.000263   0.000003   0.000007   0.001343  -0.000026
    38  H    0.000000  -0.000009   0.000000  -0.000000  -0.000000   0.000002
    39  H    0.000000  -0.000000  -0.000005  -0.000006  -0.000004   0.004143
    40  H   -0.000000   0.000003  -0.000002   0.000022  -0.000105   0.000219
    41  H    0.000000  -0.000000   0.000000  -0.000004   0.000004  -0.000012
    42  H    0.000000   0.000000   0.000000  -0.000000  -0.000000   0.000008
    43  H   -0.000000   0.000000   0.000000  -0.000000   0.000000  -0.000002
    44  H   -0.000000   0.000000  -0.000000  -0.000000   0.000000   0.000000
    45  H   -0.000000   0.000000   0.000000   0.000000  -0.000000  -0.000000
    46  H    0.000000  -0.000000   0.000000   0.000000  -0.000000   0.000000
    47  H   -0.000000  -0.000000   0.000000   0.000000   0.000000   0.000000
    48  H   -0.000000  -0.000000   0.000000  -0.000000  -0.000000   0.000000
    49  H   -0.000000  -0.000000   0.000000   0.000000   0.000000  -0.000000
    50  H    0.000000   0.000000   0.000000  -0.000000   0.000001   0.000000
              37         38         39         40         41         42
     1  C    0.000553   0.000008  -0.000118  -0.000094  -0.000003   0.000000
     2  C   -0.002010   0.000227   0.001540  -0.001488  -0.000070   0.000010
     3  C    0.034785   0.000097  -0.003239  -0.009604  -0.001591  -0.000139
     4  C   -0.025569   0.002306   0.006863  -0.074503  -0.004176   0.003849
     5  C    0.035843  -0.016157  -0.105416  -0.125239  -0.043544  -0.016989
     6  C    0.115754   0.074142  -0.046470   0.012944   0.010044   0.005811
     7  C    0.211902  -0.153135  -0.000952   0.001730   0.003906   0.002073
     8  C   -0.014234   0.390313  -0.005441   0.000561   0.000016  -0.000154
     9  O    0.008568  -0.064180   0.009704  -0.000715  -0.000000   0.000001
    10  C    0.001833   0.006236   0.024305   0.002389   0.000115   0.000079
    11  O    0.000090  -0.001051  -0.008939   0.000004   0.000000   0.000001
    12  C    0.024700   0.060628   0.368843   0.019193  -0.008335  -0.004232
    13  C   -0.098911   0.000685   0.061763   0.314854  -0.004445   0.003891
    14  S   -0.003152  -0.000092   0.003935   0.024557   0.052041   0.005463
    15  N    0.014624  -0.000541  -0.003424   0.192011  -0.054830  -0.007118
    16  C   -0.003812   0.002831   0.004423  -0.081924   0.453233  -0.032512
    17  C   -0.000002  -0.000316  -0.000671  -0.019831  -0.051666   0.365622
    18  C    0.000249  -0.000000   0.000280  -0.004041   0.014620  -0.007011
    19  N    0.000000   0.000001   0.000000  -0.001015   0.001105   0.004217
    20  C    0.000008   0.000002   0.000002   0.000187  -0.001623  -0.003826
    21  C    0.000002  -0.000000   0.000000  -0.000088   0.001375  -0.000291
    22  N   -0.000000   0.000000  -0.000000   0.000001  -0.000014   0.000004
    23  C    0.000003   0.000001  -0.000000   0.000131   0.002575   0.000358
    24  N   -0.000000  -0.000000  -0.000000  -0.000001  -0.000023   0.000012
    25  C    0.002632   0.000539  -0.000002   0.000632   0.030807  -0.007718
    26  C    0.003511  -0.000175  -0.000297   0.017424  -0.118398   0.024749
    27  H    0.000000  -0.000000  -0.000000   0.000000  -0.000000   0.000000
    28  H   -0.000000   0.000000   0.000000   0.000000   0.000000   0.000000
    29  H    0.000000   0.000000   0.000000  -0.000000   0.000000  -0.000000
    30  H   -0.000001  -0.000000   0.000000   0.000000  -0.000000   0.000000
    31  H    0.000006   0.000000   0.000000  -0.000000   0.000000   0.000000
    32  H   -0.000263  -0.000009  -0.000000   0.000003  -0.000000   0.000000
    33  H    0.000003   0.000000  -0.000005  -0.000002   0.000000   0.000000
    34  H    0.000007  -0.000000  -0.000006   0.000022  -0.000004  -0.000000
    35  H    0.001343  -0.000000  -0.000004  -0.000105   0.000004  -0.000000
    36  H   -0.000026   0.000002   0.004143   0.000219  -0.000012   0.000008
    37  H    0.556260  -0.002625  -0.000108  -0.001879   0.000004   0.000000
    38  H   -0.002625   0.542526   0.000019   0.000061   0.000000  -0.000000
    39  H   -0.000108   0.000019   0.539687   0.000095   0.000000   0.000000
    40  H   -0.001879   0.000061   0.000095   0.423258   0.004414  -0.000105
    41  H    0.000004   0.000000   0.000000   0.004414   0.534182  -0.005377
    42  H    0.000000  -0.000000   0.000000  -0.000105  -0.005377   0.528038
    43  H   -0.000000   0.000000   0.000000   0.000956   0.004660  -0.028066
    44  H   -0.000000  -0.000000  -0.000000   0.000002  -0.000105  -0.002952
    45  H   -0.000000  -0.000000   0.000000  -0.000003   0.002874  -0.002040
    46  H   -0.000000   0.000000  -0.000000  -0.000000   0.000005   0.000011
    47  H    0.000000  -0.000000   0.000000  -0.000004  -0.000035   0.000006
    48  H   -0.000000  -0.000000  -0.000000   0.000002   0.002658   0.000046
    49  H   -0.000003  -0.000001   0.000000   0.003479   0.004592  -0.000025
    50  H   -0.000019   0.000000  -0.000000  -0.000743  -0.005132  -0.000134
              43         44         45         46         47         48
     1  C   -0.000000   0.000000  -0.000000   0.000000   0.000000  -0.000000
     2  C   -0.000013   0.000000  -0.000001   0.000000   0.000000  -0.000001
     3  C   -0.000193   0.000003  -0.000009  -0.000000  -0.000003  -0.000014
     4  C   -0.004495   0.000017  -0.000418   0.000001   0.000057  -0.000437
     5  C   -0.010719   0.001121  -0.001381  -0.000031  -0.000512  -0.000184
     6  C    0.002863  -0.000477   0.000011   0.000004   0.000201   0.000285
     7  C   -0.006192  -0.000015  -0.000060   0.000004   0.000000  -0.000169
     8  C    0.001657  -0.000001   0.000018  -0.000001  -0.000000  -0.000022
     9  O   -0.000019   0.000000  -0.000000   0.000000   0.000000  -0.000000
    10  C    0.000247  -0.000013   0.000004   0.000000   0.000000   0.000008
    11  O    0.000001  -0.000000  -0.000000  -0.000000   0.000000  -0.000000
    12  C   -0.000772   0.000289   0.000010   0.000000  -0.000072   0.000105
    13  C    0.029921   0.000302  -0.000225   0.000059   0.000545   0.011004
    14  S    0.007654  -0.001078   0.005079   0.000167  -0.000001   0.001080
    15  N    0.014102   0.000301  -0.002471  -0.000451   0.001244  -0.000950
    16  C   -0.128794   0.008626   0.017645   0.013157  -0.001235   0.030724
    17  C    0.496574   0.003404  -0.046157   0.012759   0.010209   0.017100
    18  C   -0.074693   0.391873   0.415433   0.007144   0.001955  -0.018837
    19  N    0.005386  -0.065538  -0.082365  -0.060271  -0.063880  -0.080346
    20  C   -0.005175   0.036499   0.000521   0.464682   0.030674   0.001099
    21  C    0.000714  -0.014107  -0.000382  -0.102442  -0.045992  -0.012821
    22  N   -0.000002   0.000206  -0.000059  -0.005810   0.011779  -0.001998
    23  C    0.003745  -0.048719  -0.019794  -0.115795  -0.013440  -0.000254
    24  N   -0.000342   0.011920  -0.002043  -0.004785   0.000168  -0.000022
    25  C   -0.001641   0.006715  -0.012125   0.009034   0.363688   0.404604
    26  C   -0.013865   0.010878  -0.000445   0.004881   0.047188  -0.080560
    27  H   -0.000000  -0.000000   0.000000   0.000000   0.000000  -0.000000
    28  H    0.000000   0.000000   0.000000   0.000000   0.000000   0.000000
    29  H    0.000000  -0.000000   0.000000   0.000000  -0.000000  -0.000000
    30  H   -0.000000   0.000000   0.000000  -0.000000  -0.000000  -0.000000
    31  H   -0.000000  -0.000000  -0.000000   0.000000  -0.000000  -0.000000
    32  H    0.000000   0.000000   0.000000  -0.000000  -0.000000  -0.000000
    33  H    0.000000  -0.000000   0.000000   0.000000   0.000000   0.000000
    34  H   -0.000000  -0.000000   0.000000   0.000000   0.000000  -0.000000
    35  H    0.000000   0.000000  -0.000000  -0.000000   0.000000  -0.000000
    36  H   -0.000002   0.000000  -0.000000   0.000000   0.000000   0.000000
    37  H   -0.000000  -0.000000  -0.000000  -0.000000   0.000000  -0.000000
    38  H    0.000000  -0.000000  -0.000000   0.000000  -0.000000  -0.000000
    39  H    0.000000  -0.000000   0.000000  -0.000000   0.000000  -0.000000
    40  H    0.000956   0.000002  -0.000003  -0.000000  -0.000004   0.000002
    41  H    0.004660  -0.000105   0.002874   0.000005  -0.000035   0.002658
    42  H   -0.028066  -0.002952  -0.002040   0.000011   0.000006   0.000046
    43  H    0.543641  -0.005455   0.004434   0.000001  -0.000037   0.000062
    44  H   -0.005455   0.544866  -0.040381  -0.001431  -0.000123  -0.000241
    45  H    0.004434  -0.040381   0.600393   0.009306  -0.000259   0.008751
    46  H    0.000001  -0.001431   0.009306   0.556624  -0.001473   0.009205
    47  H   -0.000037  -0.000123  -0.000259  -0.001473   0.547314  -0.040961
    48  H    0.000062  -0.000241   0.008751   0.009205  -0.040961   0.605778
    49  H    0.002529  -0.000045   0.000075   0.000002  -0.005625   0.004618
    50  H   -0.000015   0.000008   0.000037   0.000011  -0.003043  -0.002289
              49         50
     1  C   -0.000001   0.000002
     2  C   -0.000021   0.000077
     3  C   -0.000251   0.000265
     4  C   -0.005747   0.007597
     5  C    0.000595   0.004335
     6  C   -0.002219  -0.004257
     7  C   -0.001194   0.004347
     8  C   -0.001407  -0.000588
     9  O   -0.000028   0.000003
    10  C    0.000602  -0.000097
    11  O   -0.000000  -0.000000
    12  C    0.000533   0.000229
    13  C    0.040366  -0.021081
    14  S    0.003521  -0.009361
    15  N    0.019376  -0.003381
    16  C   -0.182601  -0.059414
    17  C    0.016591   0.013141
    18  C   -0.005989  -0.003675
    19  N    0.005045   0.006897
    20  C   -0.003089   0.000148
    21  C    0.002886   0.000155
    22  N   -0.000298   0.000015
    23  C    0.002664  -0.000884
    24  N   -0.000014   0.000006
    25  C   -0.035621   0.020042
    26  C    0.457421   0.374737
    27  H    0.000000  -0.000000
    28  H    0.000000   0.000000
    29  H   -0.000000  -0.000000
    30  H   -0.000000   0.000000
    31  H   -0.000000   0.000000
    32  H   -0.000000   0.000000
    33  H    0.000000   0.000000
    34  H    0.000000  -0.000000
    35  H    0.000000   0.000001
    36  H   -0.000000   0.000000
    37  H   -0.000003  -0.000019
    38  H   -0.000001   0.000000
    39  H    0.000000  -0.000000
    40  H    0.003479  -0.000743
    41  H    0.004592  -0.005132
    42  H   -0.000025  -0.000134
    43  H    0.002529  -0.000015
    44  H   -0.000045   0.000008
    45  H    0.000075   0.000037
    46  H    0.000002   0.000011
    47  H   -0.005625  -0.003043
    48  H    0.004618  -0.002289
    49  H    0.551746  -0.031817
    50  H   -0.031817   0.558230
 Mulliken charges:
               1
     1  C   -0.672490
     2  C   -0.192416
     3  C    0.097323
     4  C   -0.635960
     5  C    1.514485
     6  C   -0.884130
     7  C   -0.112639
     8  C   -0.026523
     9  O   -0.306760
    10  C    0.279784
    11  O   -0.462999
    12  C    0.528963
    13  C   -1.346609
    14  S   -0.109780
    15  N    0.178932
    16  C   -0.713617
    17  C    0.108277
    18  C   -0.380629
    19  N    0.094934
    20  C   -0.020983
    21  C    0.309342
    22  N   -0.478219
    23  C    0.272701
    24  N   -0.467988
    25  C   -0.354561
    26  C   -0.072151
    27  H    0.147532
    28  H    0.146310
    29  H    0.149354
    30  H    0.143746
    31  H    0.135393
    32  H    0.141126
    33  H    0.137681
    34  H    0.175289
    35  H    0.121056
    36  H    0.160194
    37  H    0.139934
    38  H    0.157660
    39  H    0.149491
    40  H    0.302258
    41  H    0.176154
    42  H    0.174440
    43  H    0.161340
    44  H    0.163650
    45  H    0.146030
    46  H    0.205431
    47  H    0.161664
    48  H    0.142978
    49  H    0.159352
    50  H    0.155648
 Sum of Mulliken charges =  -0.00000
 Mulliken charges with hydrogens summed into heavy atoms:
               1
     1  C   -0.229294
     2  C    0.086724
     3  C    0.376130
     4  C   -0.339615
     5  C    1.674679
     6  C   -0.884130
     7  C    0.027295
     8  C    0.131136
     9  O   -0.306760
    10  C    0.279784
    11  O   -0.462999
    12  C    0.678454
    13  C   -1.346609
    14  S   -0.109780
    15  N    0.481191
    16  C   -0.537463
    17  C    0.444056
    18  C   -0.070949
    19  N    0.094934
    20  C    0.184448
    21  C    0.309342
    22  N   -0.478219
    23  C    0.272701
    24  N   -0.467988
    25  C   -0.049919
    26  C    0.242849
 Electronic spatial extent (au):  <R**2>=          15045.9054
 Charge=             -0.0000 electrons
 Dipole moment (field-independent basis, Debye):
    X=             -2.9947    Y=             -4.2491    Z=              4.2555  Tot=              6.7180
 Quadrupole moment (field-independent basis, Debye-Ang):
   XX=           -197.5162   YY=           -195.1365   ZZ=           -173.7142
   XY=             -9.0190   XZ=            -11.6823   YZ=              5.2964
 Traceless Quadrupole moment (field-independent basis, Debye-Ang):
   XX=             -8.7272   YY=             -6.3476   ZZ=             15.0748
   XY=             -9.0190   XZ=            -11.6823   YZ=              5.2964
 Octapole moment (field-independent basis, Debye-Ang**2):
  XXX=           -360.8048  YYY=            -74.7148  ZZZ=              4.1815  XYY=             62.8175
  XXY=           -165.8175  XXZ=             -3.6242  XZZ=            -87.8730  YZZ=              1.9864
  YYZ=             65.0209  XYZ=            -24.6355
 Hexadecapole moment (field-independent basis, Debye-Ang**3):
 XXXX=         -18697.1764 YYYY=          -3887.1395 ZZZZ=          -1682.7151 XXXY=           -695.5000
 XXXZ=           -153.0519 YYYX=            238.3255 YYYZ=            165.1338 ZZZX=           -152.7543
 ZZZY=             18.5977 XXYY=          -3417.7806 XXZZ=          -3535.6893 YYZZ=           -880.0700
 XXYZ=             83.6005 YYXZ=           -141.2941 ZZXY=            -91.1194
 N-N= 2.364306965890D+03 E-N=-8.243682445467D+03  KE= 1.494226123584D+03
 Unable to Open any file for archive entry.
 1\1\GINC-N1\SP\RB3LYP TD-FC\6-31+G(d,p)\C19H24N4O2S1\HPCMGAC13\31-Jul-
 2025\0\\# td=(50-50,nstates=3) b3lyp/6-31+g(d,p) geom=connectivity\\Ti
 tle Card Required\\0,1\C,0,7.199758,1.702839,0.991166\C,0,5.711792,2.0
 68149,1.03893\C,0,4.83081,1.11217,0.222388\C,0,3.345296,1.493556,0.265
 521\C,0,2.442034,0.583729,-0.611325\C,0,2.490111,-0.878213,-0.193585\C
 ,0,2.358489,-1.271675,1.190128\C,0,2.403654,-2.588197,1.504657\O,0,2.5
 59565,-3.560421,0.590418\C,0,2.702637,-3.268789,-0.791084\O,0,2.843308
 ,-4.204469,-1.542171\C,0,2.657456,-1.859673,-1.129197\C,0,1.01732,1.17
 9715,-0.71158\S,0,0.77122,2.59051,-1.573098\N,0,0.039978,0.514958,-0.0
 67786\C,0,-1.373414,0.893974,-0.036889\C,0,-2.155325,0.280642,-1.20955
 7\C,0,-3.643642,0.618975,-1.106937\N,0,-4.189167,0.155789,0.184219\C,0
 ,-5.643122,0.352037,0.255811\C,0,-6.194911,-0.140437,1.538958\N,0,-6.6
 35491,-0.493086,2.551879\C,0,-6.339942,-0.342403,-0.850987\N,0,-6.9007
 19,-0.855764,-1.726402\C,0,-3.500532,0.80617,1.313108\C,0,-2.006516,0.
 472675,1.293732\H,0,7.800036,2.402153,1.58261\H,0,7.374674,0.695687,1.
 387589\H,0,7.58002,1.7248,-0.036763\H,0,5.573251,3.092504,0.667837\H,0
 ,5.369805,2.072705,2.083357\H,0,4.974302,0.087659,0.591323\H,0,5.17001
 7,1.111748,-0.823328\H,0,3.217621,2.515714,-0.102744\H,0,2.985046,1.48
 9489,1.302931\H,0,2.831473,0.638956,-1.632226\H,0,2.253375,-0.542853,1
 .984291\H,0,2.325164,-2.984991,2.510991\H,0,2.76897,-1.631783,-2.18354
 3\H,0,0.2737,-0.370618,0.367015\H,0,-1.399535,1.984788,-0.129019\H,0,-
 1.760422,0.662021,-2.155908\H,0,-2.033594,-0.809253,-1.204292\H,0,-4.1
 85517,0.123876,-1.916458\H,0,-3.790595,1.710166,-1.22528\H,0,-5.925716
 ,1.423445,0.182406\H,0,-3.938929,0.449611,2.248397\H,0,-3.637559,1.904
 819,1.278253\H,0,-1.887083,-0.608612,1.444335\H,0,-1.51493,0.984173,2.
 128906\\Version=ES64L-G16RevC.02\State=1-A\HF=-1506.1324828\RMSD=1.617
 e-09\PG=C01 [X(C19H24N4O2S1)]\\@
 The archive entry for this job was punched.


 I MET A TRAVELLER FROM AN ANTIQUE LAND
 WHO SAID... TWO VAST AND TRUNKLESS LEGS OF STONE
 STAND IN THE DESERT..... NEAR THEM,  ON THE SAND,
 HALF SUNK,  A SHATTERED VISAGE LIES,  WHOSE FROWN,
 AND WRINKLED LIP,  AND SNEER OF COLD COMMAND
 TELL THAT ITS SCULPTOR WELL THOSE PASSIONS READ
 WHICH YET SURVIVE,  STAMPED ON THESE LIFELESS THINGS
 THE HAND THAT MOCKED THEM,  AND THE HEART THAT FED-
 AND ON THE PEDESTAL THESE WORDS APPEAR 
 MY NAME IS OZYMANDIAS, KING OF KINGS--   
 LOOK ON MY WORKS YE MIGHTY AND DESPAIR. 
 NOTHING BESIDE REMAINS,  ROUND THE DECAY 
 OF THAT COLOSSAL WRECK,  BOUNDLESS AND BARE
 THE LONE AND LEVEL SANDS STRETCH FAR AWAY.
                                    SHELLEY
 Job cpu time:       0 days  3 hours 34 minutes 25.7 seconds.
 Elapsed time:       0 days  0 hours 13 minutes 45.8 seconds.
 File lengths (MBytes):  RWF=   2063 Int=      0 D2E=      0 Chk=     98 Scr=      2
 Normal termination of Gaussian 16 at Thu Jul 31 17:47:33 2025.
