 Entering Gaussian System, Link 0=g16
 Input=M2301e.gjf
 Output=M2301e.log
 Initial command:
 /hpc/softwares/Gaussian/g16/l1.exe "/hpc/home/hpcmgac13/pbs.12590.admin1.x8z/Gau-1236696.inp" -scrdir="/hpc/home/hpcmgac13/pbs.12590.admin1.x8z/"
 Default linda workers: n2
 Default is to use   8 SMP processors on each worker.
 Entering Link 1 = /hpc/softwares/Gaussian/g16/l1.exe PID=   1236697.
  
 Copyright (c) 1988-2021, Gaussian, Inc.  All Rights Reserved.
  
 This is part of the Gaussian(R) 16 program.  It is based on
 the Gaussian(R) 09 system (copyright 2009, Gaussian, Inc.),
 the Gaussian(R) 03 system (copyright 2003, Gaussian, Inc.),
 the Gaussian(R) 98 system (copyright 1998, Gaussian, Inc.),
 the Gaussian(R) 94 system (copyright 1995, Gaussian, Inc.),
 the Gaussian 92(TM) system (copyright 1992, Gaussian, Inc.),
 the Gaussian 90(TM) system (copyright 1990, Gaussian, Inc.),
 the Gaussian 88(TM) system (copyright 1988, Gaussian, Inc.),
 the Gaussian 86(TM) system (copyright 1986, Carnegie Mellon
 University), and the Gaussian 82(TM) system (copyright 1983,
 Carnegie Mellon University). Gaussian is a federally registered
 trademark of Gaussian, Inc.
  
 This software contains proprietary and confidential information,
 including trade secrets, belonging to Gaussian, Inc.
  
 This software is provided under written license and may be
 used, copied, transmitted, or stored only in accord with that
 written license.
  
 The following legend is applicable only to US Government
 contracts under FAR:
  
                    RESTRICTED RIGHTS LEGEND
  
 Use, reproduction and disclosure by the US Government is
 subject to restrictions as set forth in subparagraphs (a)
 and (c) of the Commercial Computer Software - Restricted
 Rights clause in FAR 52.227-19.
  
 Gaussian, Inc.
 340 Quinnipiac St., Bldg. 40, Wallingford CT 06492
  
  
 ---------------------------------------------------------------
 Warning -- This program may not be used in any manner that
 competes with the business of Gaussian, Inc. or will provide
 assistance to any competitor of Gaussian, Inc.  The licensee
 of this program is prohibited from giving any competitor of
 Gaussian, Inc. access to this program.  By using this program,
 the user acknowledges that Gaussian, Inc. is engaged in the
 business of creating and licensing software in the field of
 computational chemistry and represents and warrants to the
 licensee that it is not a competitor of Gaussian, Inc. and that
 it will not use this program in any manner prohibited above.
 ---------------------------------------------------------------
  

 Cite this work as:
 Gaussian 16, Revision C.02,
 M. J. Frisch, G. W. Trucks, H. B. Schlegel, G. E. Scuseria, 
 M. A. Robb, J. R. Cheeseman, G. Scalmani, V. Barone, 
 G. A. Petersson, H. Nakatsuji, X. Li, M. Caricato, A. V. Marenich, 
 J. Bloino, B. G. Janesko, R. Gomperts, B. Mennucci, H. P. Hratchian, 
 J. V. Ortiz, A. F. Izmaylov, J. L. Sonnenberg, D. Williams-Young, 
 F. Ding, F. Lipparini, F. Egidi, J. Goings, B. Peng, A. Petrone, 
 T. Henderson, D. Ranasinghe, V. G. Zakrzewski, J. Gao, N. Rega, 
 G. Zheng, W. Liang, M. Hada, M. Ehara, K. Toyota, R. Fukuda, 
 J. Hasegawa, M. Ishida, T. Nakajima, Y. Honda, O. Kitao, H. Nakai, 
 T. Vreven, K. Throssell, J. A. Montgomery, Jr., J. E. Peralta, 
 F. Ogliaro, M. J. Bearpark, J. J. Heyd, E. N. Brothers, K. N. Kudin, 
 V. N. Staroverov, T. A. Keith, R. Kobayashi, J. Normand, 
 K. Raghavachari, A. P. Rendell, J. C. Burant, S. S. Iyengar, 
 J. Tomasi, M. Cossi, J. M. Millam, M. Klene, C. Adamo, R. Cammi, 
 J. W. Ochterski, R. L. Martin, K. Morokuma, O. Farkas, 
 J. B. Foresman, and D. J. Fox, Gaussian, Inc., Wallingford CT, 2019.
 
 ******************************************
 Gaussian 16:  ES64L-G16RevC.02  7-Dec-2021
                31-Jul-2025 
 ******************************************
 SetLPE:    new flags="-opt 'Tsnet.Node.lindarsharg: ssh'  -nodelist 'n2.head.cm.mguif.local' -env GAUSS_MDEF=2147483648 -env GAUSS_EXEDIR="/hpc/softwares/Gaussian/g16/bsd:/hpc/softwares/Gaussian/g16""
 Will use up to    1 processors via Linda.
 ----------------------------------------------------------
 # td=(50-50,nstates=3) b3lyp/6-31+g(d,p) geom=connectivity
 ----------------------------------------------------------
 1/38=1,57=2,172=1/1;
 2/12=2,17=6,18=5,40=1/2;
 3/5=1,6=6,7=111,11=9,25=1,30=1,74=-5/1,2,3,8;
 4//1;
 5/5=2,38=5/2;
 8/6=1,10=2,108=3/1;
 9/41=3,42=1,48=2,70=2/14;
 6/7=2,8=2,9=2,10=2/1;
 99/5=1,9=1/99;
 -------------------
 Title Card Required
 -------------------
 Symbolic Z-matrix:
 Charge =  0 Multiplicity = 1
 C                    -0.48527   2.63337   1.24959 
 C                     0.29677   1.31605   1.06274 
 C                     0.18604   0.50931   2.37222 
 C                    -0.24258   0.57257  -0.20308 
 N                    -1.66613   0.23855  -0.17835 
 C                    -2.2979   -0.90046   0.29567 
 C                    -1.59533  -1.96753   0.88073 
 N                    -1.02183  -2.86673   1.3581 
 C                    -3.66887  -0.77136   0.00371 
 C                    -4.81744  -1.57099   0.22445 
 C                    -6.03118  -1.09889  -0.23056 
 C                    -6.15121   0.15295  -0.90666 
 C                    -5.05177   0.95316  -1.13803 
 C                    -3.81501   0.4699   -0.67072 
 N                    -2.58051   1.05678  -0.78499 
 O                    -2.26176   2.14291  -1.35383 
 N                     1.68668   1.72156   0.81183 
 C                     2.71978   1.06047   0.45196 
 C                     3.99073   1.90883   0.31076 
 S                     5.11881   1.06586  -0.86707 
 C                     4.24688  -0.45867  -0.63979 
 C                     4.70621  -1.68694  -1.12492 
 C                     3.96874  -2.83997  -0.86117 
 C                     2.79018  -2.76943  -0.10818 
 C                     2.32998  -1.53906   0.35826 
 C                     3.03713  -0.35554   0.0851 
 H                    -0.41882   3.25647   0.356 
 H                    -1.54263   2.44601   1.46152 
 H                    -0.05455   3.18382   2.09043 
 H                     0.7161   -0.44257   2.34814 
 H                    -0.8618    0.31125   2.61714 
 H                     0.60899   1.10655   3.18539 
 H                    -0.10857   1.22532  -1.06853 
 H                     0.28689  -0.36164  -0.38039 
 H                    -4.73744  -2.52447   0.73605 
 H                    -6.92556  -1.69381  -0.07263 
 H                    -7.1307    0.47644  -1.24395 
 H                    -5.11132   1.90643  -1.65022 
 H                     3.74305   2.90939  -0.03986 
 H                     4.4917    1.98228   1.28236 
 H                     5.6349   -1.74041  -1.68494 
 H                     4.32314  -3.79916  -1.22731 
 H                     2.2291   -3.66899   0.12293 
 H                     1.42794  -1.52773   0.953 
 
                          Input orientation:                          
 ---------------------------------------------------------------------
 Center     Atomic      Atomic             Coordinates (Angstroms)
 Number     Number       Type             X           Y           Z
 ---------------------------------------------------------------------
      1          6           0       -0.485266    2.633373    1.249593
      2          6           0        0.296766    1.316051    1.062736
      3          6           0        0.186043    0.509313    2.372216
      4          6           0       -0.242582    0.572566   -0.203082
      5          7           0       -1.666129    0.238546   -0.178347
      6          6           0       -2.297899   -0.900458    0.295672
      7          6           0       -1.595327   -1.967533    0.880728
      8          7           0       -1.021831   -2.866733    1.358098
      9          6           0       -3.668872   -0.771359    0.003714
     10          6           0       -4.817442   -1.570993    0.224449
     11          6           0       -6.031177   -1.098891   -0.230564
     12          6           0       -6.151206    0.152946   -0.906661
     13          6           0       -5.051767    0.953159   -1.138030
     14          6           0       -3.815012    0.469901   -0.670716
     15          7           0       -2.580514    1.056779   -0.784994
     16          8           0       -2.261760    2.142911   -1.353831
     17          7           0        1.686680    1.721560    0.811829
     18          6           0        2.719775    1.060471    0.451963
     19          6           0        3.990725    1.908828    0.310761
     20         16           0        5.118810    1.065864   -0.867067
     21          6           0        4.246876   -0.458673   -0.639789
     22          6           0        4.706206   -1.686936   -1.124915
     23          6           0        3.968741   -2.839965   -0.861166
     24          6           0        2.790182   -2.769427   -0.108184
     25          6           0        2.329984   -1.539063    0.358259
     26          6           0        3.037127   -0.355537    0.085099
     27          1           0       -0.418823    3.256469    0.356002
     28          1           0       -1.542628    2.446006    1.461523
     29          1           0       -0.054548    3.183816    2.090429
     30          1           0        0.716099   -0.442574    2.348138
     31          1           0       -0.861798    0.311254    2.617142
     32          1           0        0.608992    1.106545    3.185385
     33          1           0       -0.108568    1.225317   -1.068530
     34          1           0        0.286885   -0.361636   -0.380390
     35          1           0       -4.737437   -2.524471    0.736053
     36          1           0       -6.925558   -1.693806   -0.072629
     37          1           0       -7.130702    0.476436   -1.243950
     38          1           0       -5.111321    1.906432   -1.650223
     39          1           0        3.743052    2.909393   -0.039856
     40          1           0        4.491697    1.982280    1.282358
     41          1           0        5.634898   -1.740407   -1.684941
     42          1           0        4.323138   -3.799155   -1.227305
     43          1           0        2.229103   -3.668994    0.122927
     44          1           0        1.427944   -1.527728    0.952998
 ---------------------------------------------------------------------
                    Distance matrix (angstroms):
                    1          2          3          4          5
     1  C    0.000000
     2  C    1.543317   0.000000
     3  C    2.494508   1.542019   0.000000
     4  C    2.532999   1.563957   2.611490   0.000000
     5  N    3.027977   2.560129   3.163736   1.462418   0.000000
     6  C    4.084552   3.497654   3.531212   2.577379   1.386058
     7  C    4.747276   3.794083   3.395965   3.075169   2.448150
     8  N    5.527282   4.395636   3.726269   3.856590   3.523995
     9  C    4.824911   4.604899   4.702158   3.686240   2.250341
    10  C    6.123346   5.932358   5.828845   5.070204   3.656152
    11  C    6.846736   6.895465   6.929257   6.025144   4.565644
    12  C    6.550178   6.841614   7.144141   5.965144   4.544632
    13  C    5.420036   5.794986   6.320877   4.913984   3.590851
    14  C    4.410828   4.541756   5.026871   3.604369   2.216676
    15  N    3.318924   3.429296   4.233383   2.457440   1.368804
    16  O    3.189718   3.615183   4.748032   2.804868   2.315846
    17  N    2.395911   1.469440   2.481182   2.464200   3.797513
    18  C    3.658213   2.511839   3.226600   3.072897   4.506551
    19  C    4.630428   3.816043   4.547949   4.468839   5.918536
    20  S    6.192173   5.199889   5.927469   5.424827   6.869803
    21  C    5.960175   4.653129   5.147770   4.627029   5.971823
    22  C    7.159242   5.766013   6.122525   5.517756   6.723848
    23  C    7.365522   5.870031   5.998435   5.460191   6.457185
    24  C    6.462381   4.927404   4.866627   4.513932   5.376944
    25  C    5.111686   3.575184   3.584460   3.375230   4.406445
    26  C    4.764124   3.355527   3.756002   3.420660   4.747942
    27  H    1.091407   2.185581   3.460903   2.747175   3.308952
    28  H    1.094548   2.195268   2.751081   2.823262   2.752691
    29  H    1.093394   2.160583   2.700047   3.480542   4.052055
    30  H    3.480162   2.218301   1.089783   2.908316   3.538652
    31  H    2.721067   2.183590   1.094160   2.899203   2.909810
    32  H    2.697387   2.155694   1.093991   3.534405   4.152625
    33  H    2.738287   2.171364   3.526782   1.092265   2.047471
    34  H    3.496161   2.212994   2.888868   1.088350   2.053120
    35  H    6.704330   6.340310   6.010119   5.538712   4.231232
    36  H    7.870839   7.906343   7.836190   7.058019   5.604173
    37  H    7.418352   7.822598   8.161648   6.966982   5.572581
    38  H    5.507972   6.079153   6.796618   5.251479   4.100928
    39  H    4.429169   3.953648   4.922478   4.623060   6.034223
    40  H    5.019478   4.253180   4.679325   5.158219   6.564533
    41  H    8.074518   6.737011   7.156241   6.487721   7.713046
    42  H    8.404355   6.900818   6.973880   6.403653   7.298949
    43  H    6.953920   5.428429   5.166396   4.919994   5.525619
    44  H    4.589456   3.062464   2.775974   2.922056   3.738041
                    6          7          8          9         10
     6  C    0.000000
     7  C    1.405186   0.000000
     8  N    2.573584   1.168478   0.000000
     9  C    1.407648   2.549426   3.637551   0.000000
    10  C    2.608215   3.312095   4.167825   1.416810   0.000000
    11  C    3.775403   4.654705   5.544606   2.396382   1.379518
    12  C    4.171719   5.333594   6.368523   2.800911   2.455667
    13  C    3.615963   4.955079   6.087907   2.487959   2.877951
    14  C    2.261288   3.643496   4.801153   1.420190   2.443652
    15  N    2.253550   3.590499   4.734584   2.269069   3.595554
    16  O    3.461829   4.725795   5.829967   3.509396   4.776564
    17  N    4.797736   4.938190   5.356013   5.962351   7.313653
    18  C    5.389501   5.288927   5.499421   6.661181   7.986614
    19  C    6.887605   6.823123   7.002044   8.120782   9.471030
    20  S    7.760538   7.572049   7.623920   9.019812  10.337965
    21  C    6.626035   6.222537   6.127771   7.948015   9.173114
    22  C    7.189861   6.618962   6.353557   8.500236   9.619464
    23  C    6.661136   5.895268   5.461837   7.959917   8.943482
    24  C    5.435505   4.566582   4.085449   6.761965   7.708621
    25  C    4.672155   3.983042   3.741263   6.058163   7.148750
    26  C    5.366916   4.969023   4.939815   6.719372   7.949277
    27  H    4.562303   5.380492   6.233893   5.187516   6.532193
    28  H    3.623322   4.451901   5.339206   4.122809   5.328324
    29  H    4.993503   5.511241   6.170988   5.749881   6.983928
    30  H    3.675113   3.133924   3.142790   4.983211   6.033528
    31  H    2.986613   2.957375   3.422047   3.985188   4.991488
    32  H    4.563827   4.429495   4.667494   5.652404   6.736656
    33  H    3.342624   4.025463   4.844321   4.220449   5.627134
    34  H    2.725527   2.777057   3.318221   3.995425   5.280391
    35  H    2.963562   3.194365   3.782831   2.179806   1.085016
    36  H    4.709594   5.421732   6.186819   3.385667   2.132485
    37  H    5.255688   6.413082   7.434093   3.885605   3.420429
    38  H    4.424984   5.811672   6.968287   3.462186   3.961470
    39  H    7.149869   7.289045   7.617218   8.275654   9.665701
    40  H    7.441931   7.267337   7.342864   8.707028  10.020229
    41  H    8.219344   7.675311   7.405453   9.505301  10.626659
    42  H    7.386476   6.544224   6.010192   8.634534   9.519585
    43  H    5.309273   4.253880   3.569011   6.572413   7.352939
    44  H    3.835029   3.055948   2.821070   5.239348   6.287885
                   11         12         13         14         15
    11  C    0.000000
    12  C    1.427799   0.000000
    13  C    2.448193   1.379362   0.000000
    14  C    2.750678   2.369374   1.407652   0.000000
    15  N    4.106261   3.685317   2.498492   1.371667   0.000000
    16  O    5.097010   4.391778   3.040760   2.382897   1.266832
    17  N    8.282925   8.175953   7.056845   5.833798   4.604424
    18  C    9.039239   9.020187   7.933250   6.656773   5.442714
    19  C   10.477496  10.364555   9.207549   7.997708   6.716238
    20  S   11.376006  11.307000  10.174810   8.955831   7.699767
    21  C   10.306101  10.419473   9.418401   8.115248   6.995065
    22  C   10.790600  11.014363  10.108823   8.801670   7.793575
    23  C   10.169924  10.553337   9.789485   8.460396   7.621231
    24  C    8.978978   9.440670   8.741533   7.378230   6.628899
    25  C    8.393419   8.740338   7.933492   6.546427   5.670839
    26  C    9.104194   9.255680   8.284862   6.942940   5.857439
    27  H    7.128235   6.639758   5.385308   4.511453   3.288376
    28  H    5.964606   5.666164   4.615227   3.689873   2.837957
    29  H    7.710297   7.438949   6.353816   5.397254   4.378681
    30  H    7.253012   7.622876   6.882566   5.520603   4.788761
    31  H    6.067983   6.357679   5.662967   4.422290   3.883854
    32  H    7.786174   7.959552   7.124580   5.903104   5.093067
    33  H    6.417276   6.139190   4.951173   3.803503   2.493855
    34  H    6.362696   6.480029   5.550127   4.195391   3.224528
    35  H    2.154156   3.444679   3.962941   3.434550   4.448736
    36  H    1.085719   2.169268   3.413590   3.835992   5.191588
    37  H    2.171995   1.085275   2.135522   3.364883   4.609951
    38  H    3.448700   2.170013   1.083798   2.168749   2.806335
    39  H   10.565901  10.307555   9.076435   7.967022   6.631357
    40  H   11.068578  11.018605   9.899246   8.666210   7.426080
    41  H   11.773872  11.962556  11.034456   9.757813   8.725087
    42  H   10.746942  11.199723  10.511009   9.206743   8.451991
    43  H    8.658095   9.268056   8.715812   7.368287   6.803651
    44  H    7.564602   7.982889   7.246644   5.840852   5.076222
                   16         17         18         19         20
    16  O    0.000000
    17  N    4.523030   0.000000
    18  C    5.408166   1.278213   0.000000
    19  C    6.474506   2.365325   1.534588   0.000000
    20  S    7.474609   3.876615   2.737743   1.835877   0.000000
    21  C    7.045597   3.662679   2.414903   2.564024   1.770914
    22  C    7.954413   4.948369   3.739077   3.937334   2.795467
    23  C    7.993179   5.367888   4.300887   4.891312   4.071633
    24  C    7.155754   4.715199   3.871284   4.847978   4.550590
    25  C    6.129625   3.354285   2.630265   3.827306   4.008069
    26  C    6.032492   2.581894   1.496790   2.467311   2.694514
    27  H    2.749538   2.645159   3.831764   4.611106   6.079476
    28  H    2.921513   3.372737   4.594235   5.677218   7.190402
    29  H    4.221160   2.608618   3.858761   4.599679   6.324250
    30  H    5.408970   2.825907   3.141551   4.516987   5.656571
    31  H    4.591676   3.426785   4.251705   5.605231   6.962530
    32  H    5.469895   2.678325   3.453856   4.510348   6.063207
    33  H    2.357883   2.646681   3.215369   4.378794   5.233688
    34  H    3.703503   2.778582   2.938393   4.398992   5.061829
    35  H    5.681641   7.700896   8.279041   9.798767  10.611602
    36  H    6.173564   9.306860  10.044585  11.501791  12.381991
    37  H    5.147408   9.139080  10.012448  11.320557  12.269475
    38  H    2.874677   7.232475   8.152356   9.310892  10.294439
    39  H    6.194497   2.522891   2.169676   1.088763   2.444501
    40  H    7.251515   2.856132   2.163099   1.095613   2.419322
    41  H    8.806077   5.814422   4.572660   4.472477   2.968235
    42  H    8.870459   6.448819   5.385785   5.920913   4.942800
    43  H    7.491789   5.461399   4.766221   5.852409   5.634658
    44  H    5.692887   3.262629   2.935752   4.334770   4.864345
                   21         22         23         24         25
    21  C    0.000000
    22  C    1.398199   0.000000
    23  C    2.407679   1.393877   0.000000
    24  C    2.782830   2.424186   1.400342   0.000000
    25  C    2.416158   2.805014   2.421749   1.393968   0.000000
    26  C    1.414069   2.454095   2.817038   2.434174   1.405490
    27  H    6.046704   7.272984   7.609121   6.842851   5.527483
    28  H    6.809628   7.925831   7.981952   6.959739   5.665253
    29  H    6.262912   7.531762   7.822065   6.954674   5.567045
    30  H    4.625403   5.434288   5.160116   3.968574   2.786850
    31  H    6.107286   6.999887   6.735200   5.500450   4.325933
    32  H    5.506002   6.570341   6.575517   5.534288   4.237180
    33  H    4.689300   5.627295   5.761421   5.028220   3.952728
    34  H    3.969664   4.673450   4.464227   3.483970   2.471071
    35  H    9.320855   9.661628   8.857098   7.578772   7.145782
    36  H   11.254799  11.679267  10.982769   9.775164   9.266859
    37  H   11.431917  12.033567  11.590629  10.499978   9.804789
    38  H    9.705182  10.467668  10.276109   9.309957   8.442657
    39  H    3.457980   4.819882   5.812108   5.758613   4.684444
    40  H    3.116543   4.393646   5.303039   5.235215   4.234007
    41  H    2.159118   1.085798   2.159563   3.411371   3.890715
    42  H    3.392611   2.149115   1.086140   2.159335   3.405098
    43  H    3.867726   3.409062   2.163809   1.085100   2.145266
    44  H    3.409725   3.884594   3.386563   2.126879   1.080518
                   26         27         28         29         30
    26  C    0.000000
    27  H    5.006353   0.000000
    28  H    5.542323   1.772559   0.000000
    29  H    5.109484   1.773756   1.776026   0.000000
    30  H    3.242852   4.351962   3.772510   3.716317   0.000000
    31  H    4.696538   3.739421   2.521141   3.029966   1.769288
    32  H    4.200631   3.699187   3.065179   2.440137   1.764150
    33  H    3.704775   2.500226   3.154010   3.717211   3.890444
    34  H    2.789363   3.759120   3.823953   4.334946   2.763266
    35  H    8.097645   7.225935   5.953046   7.506552   6.055920
    36  H   10.053404   8.186974   6.961868   8.699471   8.112991
    37  H   10.288017   7.438935   6.513475   8.277678   8.678707
    38  H    8.632789   5.278928   4.765467   6.418344   7.447385
    39  H    3.342710   4.195041   5.514280   4.362933   5.108879
    40  H    3.002431   5.157024   6.054768   4.771269   4.612043
    41  H    3.435014   8.110595   8.884997   8.418503   6.491893
    42  H    3.903170   8.647247   8.979924   8.884446   6.087788
    43  H    3.410767   7.418078   7.308284   7.486463   4.201254
    44  H    2.171808   5.162896   4.987330   5.068548   1.905439
                   31         32         33         34         35
    31  H    0.000000
    32  H    1.765959   0.000000
    33  H    3.871310   4.315645   0.000000
    34  H    3.279855   3.869633   1.774356   0.000000
    35  H    5.157559   6.911426   6.224456   5.582841   0.000000
    36  H    6.929958   8.673296   7.482276   7.340894   2.476256
    37  H    7.364406   8.939738   7.064132   7.514566   4.318978
    38  H    6.230044   7.532921   5.082305   5.991430   5.046484
    39  H    5.917314   4.845077   4.327731   4.770816  10.101862
    40  H    5.764884   4.411782   5.221313   5.093046  10.285240
    41  H    8.057561   7.555458   6.493295   5.674866  10.679949
    42  H    7.652372   7.571830   6.701533   5.368905   9.358077
    43  H    5.622913   5.899931   5.553247   3.868353   7.086504
    44  H    3.375522   3.548750   3.745224   2.107062   6.249199
                   36         37         38         39         40
    36  H    0.000000
    37  H    2.474677   0.000000
    38  H    4.329200   2.507558   0.000000
    39  H   11.619370  11.207482   9.055337   0.000000
    40  H   12.070763  11.988743  10.041102   1.779960   0.000000
    41  H   12.663600  12.964159  11.348210   5.282615   4.895934
    42  H   11.502127  12.225850  11.033658   6.837481   6.304904
    43  H    9.367360  10.327579   9.386760   6.752312   6.196814
    44  H    8.417867   9.060556   7.831488   5.102306   4.670676
                   41         42         43         44
    41  H    0.000000
    42  H    2.483664   0.000000
    43  H    4.311296   2.495005   0.000000
    44  H    4.970153   4.277295   2.432261   0.000000
 Stoichiometry    C20H18N4OS
 Framework group  C1[X(C20H18N4OS)]
 Deg. of freedom   126
 Full point group                 C1      NOp   1
 Largest Abelian subgroup         C1      NOp   1
 Largest concise Abelian subgroup C1      NOp   1
                         Standard orientation:                         
 ---------------------------------------------------------------------
 Center     Atomic      Atomic             Coordinates (Angstroms)
 Number     Number       Type             X           Y           Z
 ---------------------------------------------------------------------
      1          6           0        0.485266   -2.633373    1.249593
      2          6           0       -0.296766   -1.316051    1.062736
      3          6           0       -0.186043   -0.509313    2.372216
      4          6           0        0.242582   -0.572566   -0.203082
      5          7           0        1.666129   -0.238546   -0.178347
      6          6           0        2.297899    0.900458    0.295672
      7          6           0        1.595327    1.967533    0.880728
      8          7           0        1.021831    2.866733    1.358098
      9          6           0        3.668872    0.771359    0.003714
     10          6           0        4.817442    1.570993    0.224449
     11          6           0        6.031177    1.098891   -0.230564
     12          6           0        6.151206   -0.152946   -0.906661
     13          6           0        5.051767   -0.953159   -1.138030
     14          6           0        3.815012   -0.469901   -0.670716
     15          7           0        2.580514   -1.056779   -0.784994
     16          8           0        2.261760   -2.142911   -1.353831
     17          7           0       -1.686680   -1.721560    0.811829
     18          6           0       -2.719775   -1.060471    0.451963
     19          6           0       -3.990725   -1.908828    0.310761
     20         16           0       -5.118810   -1.065864   -0.867067
     21          6           0       -4.246876    0.458673   -0.639789
     22          6           0       -4.706206    1.686936   -1.124915
     23          6           0       -3.968741    2.839965   -0.861166
     24          6           0       -2.790182    2.769427   -0.108184
     25          6           0       -2.329984    1.539063    0.358259
     26          6           0       -3.037127    0.355537    0.085099
     27          1           0        0.418823   -3.256469    0.356002
     28          1           0        1.542628   -2.446006    1.461523
     29          1           0        0.054548   -3.183816    2.090429
     30          1           0       -0.716099    0.442574    2.348138
     31          1           0        0.861798   -0.311254    2.617142
     32          1           0       -0.608992   -1.106545    3.185385
     33          1           0        0.108568   -1.225317   -1.068530
     34          1           0       -0.286885    0.361636   -0.380390
     35          1           0        4.737437    2.524471    0.736053
     36          1           0        6.925558    1.693806   -0.072629
     37          1           0        7.130702   -0.476436   -1.243950
     38          1           0        5.111321   -1.906432   -1.650223
     39          1           0       -3.743052   -2.909393   -0.039856
     40          1           0       -4.491697   -1.982280    1.282358
     41          1           0       -5.634898    1.740407   -1.684941
     42          1           0       -4.323138    3.799155   -1.227305
     43          1           0       -2.229103    3.668994    0.122927
     44          1           0       -1.427944    1.527728    0.952998
 ---------------------------------------------------------------------
 Rotational constants (GHZ):           0.4095749           0.1053191           0.0935969
 Standard basis: 6-31+G(d,p) (6D, 7F)
 There are   588 symmetry adapted cartesian basis functions of A   symmetry.
 There are   588 symmetry adapted basis functions of A   symmetry.
   588 basis functions,   982 primitive gaussians,   588 cartesian basis functions
    95 alpha electrons       95 beta electrons
       nuclear repulsion energy      2365.9085192721 Hartrees.
 NAtoms=   44 NActive=   44 NUniq=   44 SFac= 1.00D+00 NAtFMM=   60 NAOKFM=F Big=F
 Integral buffers will be    131072 words long.
 Regular integral format.
 Two-electron integral symmetry is turned on.
 One-electron integrals computed using PRISM.
 NBasis=   588 RedAO= T EigKep=  1.03D-06  NBF=   588
 NBsUse=   584 1.00D-06 EigRej=  8.15D-07 NBFU=   584
 ExpMin= 4.05D-02 ExpMax= 2.19D+04 ExpMxC= 3.30D+03 IAcc=3 IRadAn=         5 AccDes= 0.00D+00
 Harris functional with IExCor=  402 and IRadAn=       5 diagonalized for initial guess.
 HarFok:  IExCor=  402 AccDes= 0.00D+00 IRadAn=         5 IDoV= 1 UseB2=F ITyADJ=14
 ICtDFT=  3500011 ScaDFX=  1.000000  1.000000  1.000000  1.000000
 FoFCou: FMM=F IPFlag=           0 FMFlag=      100000 FMFlg1=           0
         NFxFlg=           0 DoJE=T BraDBF=F KetDBF=T FulRan=T
         wScrn=  0.000000 ICntrl=       500 IOpCl=  0 I1Cent=   200000004 NGrid=           0
         NMat0=    1 NMatS0=      1 NMatT0=    0 NMatD0=    1 NMtDS0=    0 NMtDT0=    0
 Petite list used in FoFCou.
 Requested convergence on RMS density matrix=1.00D-08 within 128 cycles.
 Requested convergence on MAX density matrix=1.00D-06.
 Requested convergence on             energy=1.00D-06.
 No special actions if energy rises.
 SCF Done:  E(RB3LYP) =  -1465.33625354     A.U. after   17 cycles
            NFock= 17  Conv=0.59D-08     -V/T= 2.0079
 DoSCS=F DFT=T ScalE2(SS,OS)=  1.000000  1.000000
 ExpMin= 4.05D-02 ExpMax= 2.19D+04 ExpMxC= 3.30D+03 IAcc=3 IRadAn=         5 AccDes= 0.00D+00
 HarFok:  IExCor=  205 AccDes= 0.00D+00 IRadAn=         5 IDoV=-2 UseB2=F ITyADJ=14
 ICtDFT= 12500011 ScaDFX=  1.000000  1.000000  1.000000  1.000000
 GSVD:  LWork=       -1140 too small for GESVD, short by        4950 words or        4950 for optimal perf.
 Range of M.O.s used for correlation:    31   584
 NBasis=   588 NAE=    95 NBE=    95 NFC=    30 NFV=     0
 NROrb=    554 NOA=    65 NOB=    65 NVA=   489 NVB=   489

 **** Warning!!: The largest alpha MO coefficient is  0.21180338D+03

 Orbital symmetries:
       Occupied  (A) (A) (A) (A) (A) (A) (A) (A) (A) (A) (A) (A)
                 (A) (A) (A) (A) (A) (A) (A) (A) (A) (A) (A) (A)
                 (A) (A) (A) (A) (A) (A) (A) (A) (A) (A) (A) (A)
                 (A) (A) (A) (A) (A) (A) (A) (A) (A) (A) (A) (A)
                 (A) (A) (A) (A) (A) (A) (A) (A) (A) (A) (A) (A)
                 (A) (A) (A) (A) (A) (A) (A) (A) (A) (A) (A) (A)
                 (A) (A) (A) (A) (A) (A) (A) (A) (A) (A) (A) (A)
                 (A) (A) (A) (A) (A) (A) (A) (A) (A) (A) (A)
       Virtual   (A) (A) (A) (A) (A) (A) (A) (A) (A) (A) (A) (A)
                 (A) (A) (A) (A) (A) (A) (A) (A) (A) (A) (A) (A)
                 (A) (A) (A) (A) (A) (A) (A) (A) (A) (A) (A) (A)
                 (A) (A) (A) (A) (A) (A) (A) (A) (A) (A) (A) (A)
                 (A) (A) (A) (A) (A) (A) (A) (A) (A) (A) (A) (A)
                 (A) (A) (A) (A) (A) (A) (A) (A) (A) (A) (A) (A)
                 (A) (A) (A) (A) (A) (A) (A) (A) (A) (A) (A) (A)
                 (A) (A) (A) (A) (A) (A) (A) (A) (A) (A) (A) (A)
                 (A) (A) (A) (A) (A) (A) (A) (A) (A) (A) (A) (A)
                 (A) (A) (A) (A) (A) (A) (A) (A) (A) (A) (A) (A)
                 (A) (A) (A) (A) (A) (A) (A) (A) (A) (A) (A) (A)
                 (A) (A) (A) (A) (A) (A) (A) (A) (A) (A) (A) (A)
                 (A) (A) (A) (A) (A) (A) (A) (A) (A) (A) (A) (A)
                 (A) (A) (A) (A) (A) (A) (A) (A) (A) (A) (A) (A)
                 (A) (A) (A) (A) (A) (A) (A) (A) (A) (A) (A) (A)
                 (A) (A) (A) (A) (A) (A) (A) (A) (A) (A) (A) (A)
                 (A) (A) (A) (A) (A) (A) (A) (A) (A) (A) (A) (A)
                 (A) (A) (A) (A) (A) (A) (A) (A) (A) (A) (A) (A)
                 (A) (A) (A) (A) (A) (A) (A) (A) (A) (A) (A) (A)
                 (A) (A) (A) (A) (A) (A) (A) (A) (A) (A) (A) (A)
                 (A) (A) (A) (A) (A) (A) (A) (A) (A) (A) (A) (A)
                 (A) (A) (A) (A) (A) (A) (A) (A) (A) (A) (A) (A)
                 (A) (A) (A) (A) (A) (A) (A) (A) (A) (A) (A) (A)
                 (A) (A) (A) (A) (A) (A) (A) (A) (A) (A) (A) (A)
                 (A) (A) (A) (A) (A) (A) (A) (A) (A) (A) (A) (A)
                 (A) (A) (A) (A) (A) (A) (A) (A) (A) (A) (A) (A)
                 (A) (A) (A) (A) (A) (A) (A) (A) (A) (A) (A) (A)
                 (A) (A) (A) (A) (A) (A) (A) (A) (A) (A) (A) (A)
                 (A) (A) (A) (A) (A) (A) (A) (A) (A) (A) (A) (A)
                 (A) (A) (A) (A) (A) (A) (A) (A) (A) (A) (A) (A)
                 (A) (A) (A) (A) (A) (A) (A) (A) (A) (A) (A) (A)
                 (A) (A) (A) (A) (A) (A) (A) (A) (A) (A) (A) (A)
                 (A) (A) (A) (A) (A) (A) (A) (A) (A) (A) (A) (A)
                 (A) (A) (A) (A) (A) (A) (A) (A) (A) (A) (A) (A)
                 (A) (A) (A) (A) (A) (A) (A) (A) (A) (A) (A) (A)
                 (A) (A) (A) (A) (A) (A) (A) (A) (A) (A) (A) (A)
                 (A) (A) (A) (A) (A) (A) (A) (A) (A) (A) (A) (A)
                 (A) (A) (A) (A) (A) (A) (A) (A) (A) (A) (A) (A)
                 (A) (A) (A) (A) (A) (A) (A) (A) (A) (A) (A) (A)
                 (A) (A) (A) (A) (A) (A) (A) (A) (A) (A) (A) (A)
                 (A) (A) (A) (A) (A) (A) (A) (A) (A)
    24 initial guesses have been made.
 Convergence on wavefunction:    0.001000000000000
 Iteration     1 Dimension    24 NMult     0 NNew     24
 CISAX will form    24 AO SS matrices at one time.
 New state      1 was old state      2
 New state      2 was old state      8
 New state      5 was old state      6
 New state      6 was old state      5
 New state      7 was old state     14
 New state      8 was old state     10
 New state      9 was old state     13
 New state     10 was old state      9
 New state     11 was old state     16
 New state     12 was old state     22
 Vector   5 SDiff=3.36D+00 TDiff=1.30D+01 assumed to be singlet.
 Vector  11 SDiff=6.89D+00 TDiff=9.29D+00 assumed to be singlet.
 Iteration     2 Dimension    36 NMult    24 NNew     12
 New state      5 was old state      6
 New state      6 was old state      9
 Iteration     3 Dimension    48 NMult    36 NNew     12
 Iteration     4 Dimension    60 NMult    48 NNew     12
 Iteration     5 Dimension    72 NMult    60 NNew     12
 Iteration     6 Dimension    84 NMult    72 NNew     12
 Iteration     7 Dimension    90 NMult    84 NNew      6
 Iteration     8 Dimension    92 NMult    90 NNew      2
 Iteration     9 Dimension    94 NMult    92 NNew      2
 Iteration    10 Dimension    96 NMult    94 NNew      2
 Iteration    11 Dimension    98 NMult    96 NNew      2
 ***********************************************************************
 Excited states from <AA,BB:AA,BB> singles matrix:
 ***********************************************************************
 
 Ground to excited state transition densities written to RWF  633
 Ground to excited state transition electric dipole moments (Au):
       state          X           Y           Z        Dip. S.      Osc.
         1         0.0000     -0.0000     -0.0000      0.0000      0.0000
         2         0.0000     -0.0000      0.0000      0.0000      0.0000
         3         0.2695     -0.0681      0.0620      0.0811      0.0063
         4         0.0000     -0.0000     -0.0000      0.0000      0.0000
         5        -0.2972      1.0123      0.5917      1.4632      0.1157
         6        -0.6559      0.1965     -0.2381      0.5255      0.0449
 Ground to excited state transition velocity dipole moments (Au):
       state          X           Y           Z        Dip. S.      Osc.
         1         0.0000     -0.0000      0.0000      0.0000      0.0000
         2        -0.0000     -0.0000     -0.0000      0.0000      0.0000
         3        -0.0316      0.0090     -0.0065      0.0011      0.0064
         4         0.0000      0.0000      0.0000      0.0000      0.0000
         5         0.0326     -0.1233     -0.0717      0.0214      0.1203
         6         0.0870     -0.0264      0.0286      0.0091      0.0473
 Ground to excited state transition magnetic dipole moments (Au):
       state          X           Y           Z
         1         0.0000     -0.0000     -0.0000
         2        -0.0000     -0.0000     -0.0000
         3        -0.1245     -0.0613      0.2722
         4         0.0000     -0.0000      0.0000
         5        -0.2424      0.7348     -1.4678
         6         0.6010      0.0691     -0.5107
 Ground to excited state transition velocity quadrupole moments (Au):
       state          XX          YY          ZZ          XY          XZ          YZ
         1        -0.0000     -0.0000     -0.0000      0.0000     -0.0000      0.0000
         2         0.0000      0.0000      0.0000     -0.0000      0.0000     -0.0000
         3         0.2087      0.0031      0.0036      0.0480      0.0862     -0.0098
         4        -0.0000      0.0000      0.0000     -0.0000      0.0000     -0.0000
         5         0.1269     -0.0411      0.0753     -0.6268     -0.3633      0.0686
         6        -0.7113     -0.0766     -0.0154     -0.0057     -0.2003      0.0729
 <0|del|b> * <b|rxdel|0> + <0|del|b> * <b|delr+rdel|0>
 Rotatory Strengths (R) in cgs (10**-40 erg-esu-cm/Gauss)
       state          XX          YY          ZZ    R(velocity)    E-M Angle
         1         0.0000     -0.0000      0.0000      0.0000       90.00
         2         0.0000      0.0000     -0.0000      0.0000       90.00
         3       -10.2750      8.4632     11.6504      3.2795       80.86
         4        -0.0000      0.0000     -0.0000     -0.0000       90.00
         5        44.1191    162.8296   -166.6918     13.4190       88.41
         6       -60.4178    122.0227    136.4373     66.0141       61.63
 1/2[<0|r|b>*<b|rxdel|0> + (<0|rxdel|b>*<b|r|0>)*]
 Rotatory Strengths (R) in cgs (10**-40 erg-esu-cm/Gauss)
       state          XX          YY          ZZ     R(length)
         1        -0.0000     -0.0000     -0.0000     -0.0000
         2         0.0000     -0.0000      0.0000      0.0000
         3        23.7266     -2.9531    -11.9324      2.9470
         4        -0.0000     -0.0000      0.0000     -0.0000
         5       -50.9448   -526.0031    614.1971     12.4164
         6       278.7723     -9.5992    -85.9948     61.0594
  1/2[<0|del|b>*<b|r|0> + (<0|r|b>*<b|del|0>)*] (Au)
       state          X           Y           Z        Dip. S.   Osc.(frdel)
         1         0.0000      0.0000     -0.0000     -0.0000     -0.0000
         2        -0.0000      0.0000     -0.0000      0.0000      0.0000
         3        -0.0085     -0.0006     -0.0004      0.0095      0.0064
         4         0.0000     -0.0000     -0.0000      0.0000      0.0000
         5        -0.0097     -0.1248     -0.0424      0.1769      0.1179
         6        -0.0571     -0.0052     -0.0068      0.0691      0.0461

 Excitation energies and oscillator strengths:
 
 Excited State   1:      Triplet-A      1.5176 eV  816.96 nm  f=0.0000  <S**2>=2.000
      95 -> 96         0.70815
      95 <- 96         0.16560
 This state for optimization and/or second-order correction.
 Total Energy, E(TD-HF/TD-DFT) =  -1465.28048180    
 Copying the excited state density for this state as the 1-particle RhoCI density.
 
 Excited State   2:      Triplet-A      2.8041 eV  442.16 nm  f=0.0000  <S**2>=2.000
      92 -> 97         0.22112
      94 -> 96        -0.23817
      94 -> 97         0.59520
      94 -> 99         0.13285
 
 Excited State   3:      Singlet-A      3.1777 eV  390.17 nm  f=0.0063  <S**2>=0.000
      94 -> 96         0.69805
 
 Excited State   4:      Triplet-A      3.2063 eV  386.69 nm  f=0.0000  <S**2>=2.000
      92 -> 97         0.14646
      93 -> 96         0.16528
      93 -> 97        -0.42400
      94 -> 96         0.46264
      94 -> 97         0.11980
 
 Excited State   5:      Singlet-A      3.2283 eV  384.05 nm  f=0.1157  <S**2>=0.000
      95 -> 96         0.68531
      95 -> 98         0.10623
 
 Excited State   6:      Singlet-A      3.4854 eV  355.72 nm  f=0.0449  <S**2>=0.000
      93 -> 97         0.19869
      94 -> 97         0.64236
      95 -> 97         0.16537
 SavETr:  write IOETrn=   770 NScale= 10 NData=  16 NLR=1 NState=    6 LETran=     118.

 **********************************************************************

            Population analysis using the SCF Density.

 **********************************************************************

 Orbital symmetries:
       Occupied  (A) (A) (A) (A) (A) (A) (A) (A) (A) (A) (A) (A)
                 (A) (A) (A) (A) (A) (A) (A) (A) (A) (A) (A) (A)
                 (A) (A) (A) (A) (A) (A) (A) (A) (A) (A) (A) (A)
                 (A) (A) (A) (A) (A) (A) (A) (A) (A) (A) (A) (A)
                 (A) (A) (A) (A) (A) (A) (A) (A) (A) (A) (A) (A)
                 (A) (A) (A) (A) (A) (A) (A) (A) (A) (A) (A) (A)
                 (A) (A) (A) (A) (A) (A) (A) (A) (A) (A) (A) (A)
                 (A) (A) (A) (A) (A) (A) (A) (A) (A) (A) (A)
       Virtual   (A) (A) (A) (A) (A) (A) (A) (A) (A) (A) (A) (A)
                 (A) (A) (A) (A) (A) (A) (A) (A) (A) (A) (A) (A)
                 (A) (A) (A) (A) (A) (A) (A) (A) (A) (A) (A) (A)
                 (A) (A) (A) (A) (A) (A) (A) (A) (A) (A) (A) (A)
                 (A) (A) (A) (A) (A) (A) (A) (A) (A) (A) (A) (A)
                 (A) (A) (A) (A) (A) (A) (A) (A) (A) (A) (A) (A)
                 (A) (A) (A) (A) (A) (A) (A) (A) (A) (A) (A) (A)
                 (A) (A) (A) (A) (A) (A) (A) (A) (A) (A) (A) (A)
                 (A) (A) (A) (A) (A) (A) (A) (A) (A) (A) (A) (A)
                 (A) (A) (A) (A) (A) (A) (A) (A) (A) (A) (A) (A)
                 (A) (A) (A) (A) (A) (A) (A) (A) (A) (A) (A) (A)
                 (A) (A) (A) (A) (A) (A) (A) (A) (A) (A) (A) (A)
                 (A) (A) (A) (A) (A) (A) (A) (A) (A) (A) (A) (A)
                 (A) (A) (A) (A) (A) (A) (A) (A) (A) (A) (A) (A)
                 (A) (A) (A) (A) (A) (A) (A) (A) (A) (A) (A) (A)
                 (A) (A) (A) (A) (A) (A) (A) (A) (A) (A) (A) (A)
                 (A) (A) (A) (A) (A) (A) (A) (A) (A) (A) (A) (A)
                 (A) (A) (A) (A) (A) (A) (A) (A) (A) (A) (A) (A)
                 (A) (A) (A) (A) (A) (A) (A) (A) (A) (A) (A) (A)
                 (A) (A) (A) (A) (A) (A) (A) (A) (A) (A) (A) (A)
                 (A) (A) (A) (A) (A) (A) (A) (A) (A) (A) (A) (A)
                 (A) (A) (A) (A) (A) (A) (A) (A) (A) (A) (A) (A)
                 (A) (A) (A) (A) (A) (A) (A) (A) (A) (A) (A) (A)
                 (A) (A) (A) (A) (A) (A) (A) (A) (A) (A) (A) (A)
                 (A) (A) (A) (A) (A) (A) (A) (A) (A) (A) (A) (A)
                 (A) (A) (A) (A) (A) (A) (A) (A) (A) (A) (A) (A)
                 (A) (A) (A) (A) (A) (A) (A) (A) (A) (A) (A) (A)
                 (A) (A) (A) (A) (A) (A) (A) (A) (A) (A) (A) (A)
                 (A) (A) (A) (A) (A) (A) (A) (A) (A) (A) (A) (A)
                 (A) (A) (A) (A) (A) (A) (A) (A) (A) (A) (A) (A)
                 (A) (A) (A) (A) (A) (A) (A) (A) (A) (A) (A) (A)
                 (A) (A) (A) (A) (A) (A) (A) (A) (A) (A) (A) (A)
                 (A) (A) (A) (A) (A) (A) (A) (A) (A) (A) (A) (A)
                 (A) (A) (A) (A) (A) (A) (A) (A) (A) (A) (A) (A)
                 (A) (A) (A) (A) (A) (A) (A) (A) (A) (A) (A) (A)
                 (A) (A) (A) (A) (A) (A) (A) (A) (A) (A) (A) (A)
                 (A) (A) (A) (A) (A) (A) (A) (A) (A) (A) (A) (A)
                 (A) (A) (A) (A) (A) (A) (A) (A) (A) (A) (A) (A)
                 (A) (A) (A) (A) (A) (A) (A) (A) (A) (A) (A) (A)
                 (A) (A) (A) (A) (A) (A) (A) (A) (A) (A) (A) (A)
                 (A) (A) (A) (A) (A) (A) (A) (A) (A)
 The electronic state is 1-A.
 Alpha  occ. eigenvalues --  -88.90031 -19.16298 -14.52705 -14.46907 -14.36217
 Alpha  occ. eigenvalues --  -14.34035 -10.28231 -10.26707 -10.25895 -10.25746
 Alpha  occ. eigenvalues --  -10.25743 -10.25463 -10.24550 -10.24156 -10.23114
 Alpha  occ. eigenvalues --  -10.22768 -10.22730 -10.22425 -10.22398 -10.22266
 Alpha  occ. eigenvalues --  -10.21667 -10.21614 -10.21367 -10.20758 -10.19244
 Alpha  occ. eigenvalues --  -10.17661  -7.96018  -5.92510  -5.92181  -5.91523
 Alpha  occ. eigenvalues --   -1.17254  -1.03064  -0.94430  -0.92767  -0.90971
 Alpha  occ. eigenvalues --   -0.88926  -0.85358  -0.83470  -0.82206  -0.79874
 Alpha  occ. eigenvalues --   -0.77588  -0.77294  -0.74550  -0.73886  -0.70003
 Alpha  occ. eigenvalues --   -0.69154  -0.68255  -0.65340  -0.64299  -0.63967
 Alpha  occ. eigenvalues --   -0.61146  -0.60053  -0.58146  -0.56075  -0.55339
 Alpha  occ. eigenvalues --   -0.54552  -0.52379  -0.50348  -0.50205  -0.49071
 Alpha  occ. eigenvalues --   -0.48432  -0.47539  -0.47308  -0.46817  -0.46647
 Alpha  occ. eigenvalues --   -0.46078  -0.45399  -0.45326  -0.43309  -0.41844
 Alpha  occ. eigenvalues --   -0.41172  -0.40612  -0.40008  -0.39370  -0.39115
 Alpha  occ. eigenvalues --   -0.38919  -0.38608  -0.38535  -0.38195  -0.37975
 Alpha  occ. eigenvalues --   -0.37525  -0.36755  -0.35957  -0.35455  -0.34696
 Alpha  occ. eigenvalues --   -0.33557  -0.32173  -0.30478  -0.29609  -0.29156
 Alpha  occ. eigenvalues --   -0.28671  -0.26803  -0.24997  -0.22286  -0.21512
 Alpha virt. eigenvalues --   -0.09073  -0.06841  -0.03199  -0.02876  -0.01582
 Alpha virt. eigenvalues --   -0.01298  -0.00843  -0.00511   0.00137   0.01123
 Alpha virt. eigenvalues --    0.01238   0.01597   0.02080   0.02308   0.02666
 Alpha virt. eigenvalues --    0.03387   0.03629   0.03852   0.04271   0.04497
 Alpha virt. eigenvalues --    0.04735   0.05042   0.05807   0.06155   0.06296
 Alpha virt. eigenvalues --    0.06798   0.06968   0.07333   0.07642   0.07994
 Alpha virt. eigenvalues --    0.08109   0.08329   0.08671   0.09059   0.09404
 Alpha virt. eigenvalues --    0.09837   0.10058   0.10302   0.10357   0.10784
 Alpha virt. eigenvalues --    0.11286   0.11769   0.11985   0.12293   0.12406
 Alpha virt. eigenvalues --    0.12761   0.12898   0.13387   0.13705   0.13907
 Alpha virt. eigenvalues --    0.14015   0.14404   0.14454   0.14790   0.15180
 Alpha virt. eigenvalues --    0.15464   0.15660   0.15757   0.16001   0.16427
 Alpha virt. eigenvalues --    0.16683   0.16765   0.16840   0.17049   0.17506
 Alpha virt. eigenvalues --    0.17744   0.18196   0.18576   0.18897   0.19068
 Alpha virt. eigenvalues --    0.19370   0.19493   0.19950   0.20017   0.20202
 Alpha virt. eigenvalues --    0.20453   0.20628   0.21032   0.21140   0.21420
 Alpha virt. eigenvalues --    0.21519   0.21989   0.22212   0.22602   0.22810
 Alpha virt. eigenvalues --    0.23024   0.23125   0.23661   0.23898   0.24075
 Alpha virt. eigenvalues --    0.24388   0.24629   0.24835   0.24964   0.25186
 Alpha virt. eigenvalues --    0.25457   0.25552   0.25796   0.26378   0.26841
 Alpha virt. eigenvalues --    0.27041   0.27248   0.27481   0.27937   0.28092
 Alpha virt. eigenvalues --    0.28414   0.28630   0.29153   0.29242   0.29511
 Alpha virt. eigenvalues --    0.29609   0.30086   0.30278   0.30513   0.30610
 Alpha virt. eigenvalues --    0.31088   0.31170   0.31567   0.32121   0.32469
 Alpha virt. eigenvalues --    0.32704   0.32881   0.33301   0.33442   0.33779
 Alpha virt. eigenvalues --    0.33981   0.34908   0.35370   0.35970   0.36313
 Alpha virt. eigenvalues --    0.36516   0.37440   0.38259   0.38847   0.38942
 Alpha virt. eigenvalues --    0.39159   0.39620   0.40218   0.41140   0.41437
 Alpha virt. eigenvalues --    0.42927   0.43323   0.43993   0.44642   0.45993
 Alpha virt. eigenvalues --    0.46853   0.47063   0.48076   0.49560   0.50312
 Alpha virt. eigenvalues --    0.50931   0.51642   0.54022   0.54803   0.55294
 Alpha virt. eigenvalues --    0.57345   0.59126   0.59841   0.61906   0.62624
 Alpha virt. eigenvalues --    0.64550   0.65221   0.65725   0.66224   0.66561
 Alpha virt. eigenvalues --    0.67345   0.67836   0.67996   0.69072   0.69693
 Alpha virt. eigenvalues --    0.70072   0.70510   0.70876   0.71072   0.71550
 Alpha virt. eigenvalues --    0.72087   0.72887   0.73587   0.74023   0.74796
 Alpha virt. eigenvalues --    0.74958   0.75303   0.75430   0.76256   0.77148
 Alpha virt. eigenvalues --    0.77796   0.78422   0.79197   0.80583   0.81042
 Alpha virt. eigenvalues --    0.81556   0.82184   0.82354   0.83179   0.84009
 Alpha virt. eigenvalues --    0.85051   0.86162   0.86355   0.86942   0.87591
 Alpha virt. eigenvalues --    0.88241   0.88847   0.89232   0.89645   0.90254
 Alpha virt. eigenvalues --    0.91208   0.91530   0.92061   0.92596   0.93137
 Alpha virt. eigenvalues --    0.93613   0.95312   0.95950   0.96291   0.97370
 Alpha virt. eigenvalues --    0.97585   0.97652   0.98177   0.98365   0.99336
 Alpha virt. eigenvalues --    1.00765   1.01191   1.01892   1.02503   1.03206
 Alpha virt. eigenvalues --    1.04376   1.04707   1.05878   1.06319   1.06746
 Alpha virt. eigenvalues --    1.07624   1.08206   1.08800   1.10330   1.10507
 Alpha virt. eigenvalues --    1.11390   1.12291   1.12475   1.13214   1.13536
 Alpha virt. eigenvalues --    1.14720   1.15835   1.16593   1.16715   1.17967
 Alpha virt. eigenvalues --    1.18995   1.19637   1.20243   1.20738   1.21379
 Alpha virt. eigenvalues --    1.21849   1.23298   1.23647   1.23918   1.25042
 Alpha virt. eigenvalues --    1.26188   1.26748   1.27295   1.27800   1.29167
 Alpha virt. eigenvalues --    1.29996   1.31064   1.32556   1.32986   1.33734
 Alpha virt. eigenvalues --    1.34121   1.35340   1.35473   1.36573   1.37216
 Alpha virt. eigenvalues --    1.37464   1.37885   1.38295   1.38877   1.39330
 Alpha virt. eigenvalues --    1.39721   1.41085   1.42336   1.42967   1.43403
 Alpha virt. eigenvalues --    1.44813   1.45108   1.46652   1.47588   1.49877
 Alpha virt. eigenvalues --    1.50431   1.52275   1.52969   1.54186   1.55283
 Alpha virt. eigenvalues --    1.57873   1.58269   1.59593   1.61332   1.65578
 Alpha virt. eigenvalues --    1.65960   1.68242   1.69649   1.71476   1.72281
 Alpha virt. eigenvalues --    1.73478   1.74890   1.76080   1.76824   1.78032
 Alpha virt. eigenvalues --    1.78918   1.79587   1.81326   1.82211   1.82347
 Alpha virt. eigenvalues --    1.84683   1.85365   1.86052   1.86928   1.87249
 Alpha virt. eigenvalues --    1.87620   1.89022   1.89797   1.90135   1.90621
 Alpha virt. eigenvalues --    1.90885   1.91052   1.92126   1.93005   1.93937
 Alpha virt. eigenvalues --    1.94439   1.95612   1.96136   1.97191   1.97262
 Alpha virt. eigenvalues --    1.98438   1.99481   1.99666   2.00693   2.01383
 Alpha virt. eigenvalues --    2.02652   2.02669   2.03540   2.04407   2.04503
 Alpha virt. eigenvalues --    2.06630   2.07367   2.08276   2.08979   2.09487
 Alpha virt. eigenvalues --    2.10204   2.11302   2.11541   2.12522   2.13102
 Alpha virt. eigenvalues --    2.13468   2.13712   2.15849   2.16099   2.17257
 Alpha virt. eigenvalues --    2.18145   2.19823   2.20206   2.20936   2.21872
 Alpha virt. eigenvalues --    2.24081   2.24682   2.25206   2.25351   2.27020
 Alpha virt. eigenvalues --    2.27595   2.28893   2.29434   2.30150   2.32946
 Alpha virt. eigenvalues --    2.35838   2.36127   2.36816   2.37527   2.38113
 Alpha virt. eigenvalues --    2.38758   2.39166   2.40851   2.41137   2.42247
 Alpha virt. eigenvalues --    2.44210   2.44445   2.45345   2.45762   2.47940
 Alpha virt. eigenvalues --    2.48900   2.49734   2.50023   2.51083   2.52681
 Alpha virt. eigenvalues --    2.53634   2.53909   2.54280   2.55746   2.56537
 Alpha virt. eigenvalues --    2.57416   2.57682   2.58575   2.59850   2.61016
 Alpha virt. eigenvalues --    2.61365   2.63130   2.64158   2.64921   2.65857
 Alpha virt. eigenvalues --    2.67385   2.67919   2.68970   2.70928   2.72672
 Alpha virt. eigenvalues --    2.73691   2.74829   2.75300   2.75701   2.76084
 Alpha virt. eigenvalues --    2.78001   2.79344   2.80481   2.81779   2.82754
 Alpha virt. eigenvalues --    2.84034   2.84751   2.87408   2.88542   2.89058
 Alpha virt. eigenvalues --    2.91836   2.93189   2.93614   2.95092   2.97659
 Alpha virt. eigenvalues --    3.01553   3.03208   3.03805   3.06435   3.09644
 Alpha virt. eigenvalues --    3.11061   3.12078   3.14594   3.19278   3.23285
 Alpha virt. eigenvalues --    3.24844   3.25294   3.26262   3.27067   3.30567
 Alpha virt. eigenvalues --    3.31351   3.31858   3.33078   3.33793   3.35384
 Alpha virt. eigenvalues --    3.37061   3.42883   3.45783   3.46918   3.47520
 Alpha virt. eigenvalues --    3.49404   3.49740   3.51163   3.52561   3.54979
 Alpha virt. eigenvalues --    3.57438   3.82487   3.83678   3.99000   4.23486
 Alpha virt. eigenvalues --    4.28235   4.29464   4.31810   4.32278   4.34959
 Alpha virt. eigenvalues --    4.36757   4.39319   4.40011   4.41741   4.45618
 Alpha virt. eigenvalues --    4.47868   4.48088   4.50304   4.52067   4.53809
 Alpha virt. eigenvalues --    4.58200   4.62381   4.66253   4.67744   4.78467
 Alpha virt. eigenvalues --    4.82265   4.86409   4.94892   4.98278
          Condensed to atoms (all electrons):
               1          2          3          4          5          6
     1  C    8.821506  -2.643378  -1.077405  -0.066677   0.223555   0.533327
     2  C   -2.643378  20.936888  -2.942292  -4.784970  -0.113550  -0.385997
     3  C   -1.077405  -2.942292   7.455933   1.002391   0.009770  -0.286397
     4  C   -0.066677  -4.784970   1.002391  10.022478  -0.129415  -0.626165
     5  N    0.223555  -0.113550   0.009770  -0.129415  10.796854  -1.230762
     6  C    0.533327  -0.385997  -0.286397  -0.626165  -1.230762  10.571265
     7  C    0.035442   0.239371  -0.094531  -0.647725   0.182953  -3.375866
     8  N   -0.003950  -0.094107   0.044287   0.059554  -0.063215   0.233395
     9  C   -0.141412   0.303392   0.011978  -0.264469  -2.654015   1.180615
    10  C   -0.115945   0.409793  -0.044356   0.139115  -0.099134   0.086924
    11  C    0.011933   0.020685  -0.009712  -0.102705  -0.200695   0.239253
    12  C   -0.002807  -0.009565  -0.000766   0.030568   0.153526  -0.199429
    13  C   -0.134615   0.164062   0.021213   0.050158  -0.314494  -0.609823
    14  C    0.276707  -0.383976  -0.107305  -0.077673   3.808730  -1.871552
    15  N   -0.516907   0.223159   0.252301  -0.250133  -2.934970   0.510599
    16  O    0.042462  -0.102966  -0.013297   0.101897  -0.429816   0.220164
    17  N    0.017466  -1.357388   0.296243   0.426974   0.022474   0.056929
    18  C   -0.397528  -1.834243   0.555343   1.096849  -0.033161  -0.288118
    19  C   -0.421092  -0.596204   0.206583   0.098726   0.015659  -0.011096
    20  S   -0.015829   0.121875  -0.002551  -0.016578  -0.003227  -0.005087
    21  C   -0.219430   0.170270   0.034816  -0.005704   0.002140  -0.002027
    22  C   -0.035243  -0.234191   0.104477  -0.006108   0.022937  -0.003561
    23  C    0.010257   0.014557  -0.025960   0.018628  -0.011895   0.016314
    24  C    0.076610   0.090989  -0.319639   0.076402  -0.055738   0.181564
    25  C    0.237389  -0.517992  -0.191300   0.074011   0.104047  -0.079205
    26  C    0.286590   1.024888   0.024742  -0.637545  -0.049759   0.070389
    27  H    0.527265  -0.168807   0.002965   0.005392   0.002062   0.001075
    28  H    0.398037   0.012311  -0.028418  -0.063721   0.030923   0.005697
    29  H    0.488041  -0.086120  -0.034788   0.008155  -0.004802   0.000851
    30  H    0.027801  -0.122952   0.452154   0.024660  -0.010276   0.039427
    31  H   -0.015856  -0.042520   0.438120  -0.024611   0.014539  -0.004281
    32  H   -0.089084  -0.174395   0.520630   0.040215   0.000569  -0.009652
    33  H    0.016539  -0.197792   0.018376   0.469745  -0.006004   0.020319
    34  H    0.007980  -0.085343  -0.020892   0.443552  -0.084884   0.037957
    35  H   -0.000106  -0.000105   0.000078   0.000312  -0.002237  -0.015384
    36  H    0.000002  -0.000011   0.000003   0.000090   0.000702  -0.004647
    37  H    0.000002   0.000002   0.000001   0.000170   0.001210  -0.000425
    38  H   -0.000531   0.000115  -0.000002  -0.000783  -0.006893   0.004334
    39  H    0.004176   0.011597  -0.001465  -0.009489   0.000058   0.000243
    40  H    0.000260  -0.024716   0.004426   0.004048  -0.000021  -0.000128
    41  H    0.000012  -0.000071  -0.000023   0.000005  -0.000002   0.000007
    42  H    0.000007   0.000118   0.000045  -0.000022   0.000005   0.000053
    43  H    0.000129   0.007353  -0.002424  -0.002914  -0.000385  -0.001898
    44  H   -0.002371   0.033953  -0.019123  -0.029704   0.000416  -0.026187
               7          8          9         10         11         12
     1  C    0.035442  -0.003950  -0.141412  -0.115945   0.011933  -0.002807
     2  C    0.239371  -0.094107   0.303392   0.409793   0.020685  -0.009565
     3  C   -0.094531   0.044287   0.011978  -0.044356  -0.009712  -0.000766
     4  C   -0.647725   0.059554  -0.264469   0.139115  -0.102705   0.030568
     5  N    0.182953  -0.063215  -2.654015  -0.099134  -0.200695   0.153526
     6  C   -3.375866   0.233395   1.180615   0.086924   0.239253  -0.199429
     7  C   12.044830  -0.165398  -0.761965  -2.227991   0.025477  -0.126488
     8  N   -0.165398   7.404409  -0.013373   0.117253  -0.002591   0.003262
     9  C   -0.761965  -0.013373  19.089929  -7.627119   0.168731  -1.140447
    10  C   -2.227991   0.117253  -7.627119  20.246910  -0.838872   0.882241
    11  C    0.025477  -0.002591   0.168731  -0.838872   6.662671   0.130983
    12  C   -0.126488   0.003262  -1.140447   0.882241   0.130983   5.836706
    13  C    0.750032  -0.014290  -1.250230   1.666636  -0.082567   0.518195
    14  C    0.683387  -0.062711  -5.083948  -6.192639  -0.170596  -0.132271
    15  N   -0.086604   0.059062   1.900901   0.204119   0.112439   0.019708
    16  O   -0.014396   0.000316   0.222945  -0.094726  -0.010431   0.015437
    17  N   -0.002500   0.004405  -0.033477  -0.016434  -0.000395   0.000555
    18  C   -0.017014   0.018320  -0.051886  -0.042067  -0.003781   0.001576
    19  C    0.004751   0.002516  -0.020451  -0.005385  -0.000131   0.000193
    20  S    0.006154  -0.000630  -0.000902  -0.000067   0.000018  -0.000013
    21  C   -0.169173   0.007170   0.088879   0.031683  -0.000242   0.000004
    22  C   -0.009656   0.001997   0.008826   0.000096  -0.000006  -0.000023
    23  C    0.014630  -0.013867  -0.002704  -0.008479   0.000062   0.000057
    24  C    0.004239  -0.074423   0.006488  -0.042271   0.001982   0.000582
    25  C    0.422812   0.019653  -0.178763  -0.102795   0.000144  -0.000596
    26  C   -0.287687   0.047977   0.114316   0.137582   0.000202  -0.001197
    27  H    0.003277  -0.000023  -0.011964  -0.000849  -0.000102   0.000362
    28  H   -0.002251   0.000006   0.017882  -0.000698   0.000984  -0.001129
    29  H    0.002708  -0.000043   0.000084  -0.000013   0.000006  -0.000028
    30  H   -0.048071   0.001380   0.004077   0.002678   0.000060   0.000015
    31  H   -0.006304   0.000681  -0.002644  -0.003817   0.000023   0.000209
    32  H    0.001421   0.000147   0.001912   0.000052   0.000008  -0.000026
    33  H    0.004676  -0.000111  -0.007583  -0.001752  -0.000177  -0.000230
    34  H   -0.036152   0.005698  -0.008330  -0.006592   0.000439  -0.000100
    35  H    0.028795   0.000748   0.102975   0.186417  -0.033436  -0.006813
    36  H   -0.000210  -0.000006   0.006297   0.024896   0.252520   0.017336
    37  H    0.000196  -0.000001  -0.022531   0.026800  -0.006167   0.301289
    38  H   -0.002665   0.000008   0.077050  -0.039700   0.004856  -0.066758
    39  H    0.000093  -0.000000  -0.000064  -0.000002   0.000000   0.000000
    40  H   -0.000046  -0.000000  -0.000004  -0.000000  -0.000000   0.000000
    41  H   -0.000003   0.000001  -0.000002  -0.000000  -0.000000  -0.000000
    42  H   -0.000287   0.000066   0.000004  -0.000002  -0.000000   0.000000
    43  H    0.008885  -0.003697  -0.000341   0.000286   0.000014  -0.000000
    44  H    0.043168  -0.009945  -0.001158   0.001675   0.000201  -0.000028
              13         14         15         16         17         18
     1  C   -0.134615   0.276707  -0.516907   0.042462   0.017466  -0.397528
     2  C    0.164062  -0.383976   0.223159  -0.102966  -1.357388  -1.834243
     3  C    0.021213  -0.107305   0.252301  -0.013297   0.296243   0.555343
     4  C    0.050158  -0.077673  -0.250133   0.101897   0.426974   1.096849
     5  N   -0.314494   3.808730  -2.934970  -0.429816   0.022474  -0.033161
     6  C   -0.609823  -1.871552   0.510599   0.220164   0.056929  -0.288118
     7  C    0.750032   0.683387  -0.086604  -0.014396  -0.002500  -0.017014
     8  N   -0.014290  -0.062711   0.059062   0.000316   0.004405   0.018320
     9  C   -1.250230  -5.083948   1.900901   0.222945  -0.033477  -0.051886
    10  C    1.666636  -6.192639   0.204119  -0.094726  -0.016434  -0.042067
    11  C   -0.082567  -0.170596   0.112439  -0.010431  -0.000395  -0.003781
    12  C    0.518195  -0.132271   0.019708   0.015437   0.000555   0.001576
    13  C    8.896352  -4.046403   0.937479  -0.094155  -0.005153   0.015182
    14  C   -4.046403  24.594544  -4.266924  -0.295349   0.023555   0.037848
    15  N    0.937479  -4.266924  10.480269   0.532894  -0.014158   0.086030
    16  O   -0.094155  -0.295349   0.532894   7.812196   0.009500  -0.021231
    17  N   -0.005153   0.023555  -0.014158   0.009500   7.013112   0.295489
    18  C    0.015182   0.037848   0.086030  -0.021231   0.295489  13.709431
    19  C    0.000941   0.009501   0.012639  -0.002331   0.024425  -1.142538
    20  S    0.000061   0.001199  -0.001027  -0.000058   0.024566  -0.072979
    21  C    0.001484  -0.066130   0.041597  -0.004387   0.039786   0.446311
    22  C    0.000009  -0.006991   0.008750  -0.000340   0.099045  -1.014757
    23  C   -0.000597   0.010618  -0.003965   0.000246   0.000448   0.098325
    24  C   -0.009549   0.063852  -0.043845   0.002981   0.055006  -0.698382
    25  C   -0.009590   0.172025  -0.095762   0.008038   0.164652  -0.134574
    26  C    0.007635  -0.208287   0.057176   0.009755  -0.353100  -4.116072
    27  H    0.004194   0.007268  -0.004362  -0.005074   0.003396  -0.003805
    28  H   -0.010136  -0.009388  -0.014913   0.003241   0.002825   0.003911
    29  H    0.000481  -0.000362   0.000473   0.001089  -0.012340  -0.008891
    30  H   -0.000278  -0.005808   0.002993  -0.000022  -0.007926  -0.002882
    31  H   -0.000707   0.009270  -0.004339   0.000395   0.005837  -0.012989
    32  H   -0.000014  -0.002078   0.001911  -0.000028   0.012994   0.049175
    33  H   -0.001961   0.007324  -0.032222   0.014251   0.030225  -0.030798
    34  H   -0.000314   0.016570   0.024712  -0.002174  -0.013779   0.087625
    35  H   -0.013967   0.057738   0.000743   0.000040  -0.000000   0.000023
    36  H   -0.012098   0.031254  -0.000390  -0.000003   0.000000   0.000000
    37  H    0.019341  -0.002230  -0.001198  -0.000099   0.000000   0.000000
    38  H    0.229036   0.138292  -0.035739   0.012658   0.000000   0.000010
    39  H    0.000002   0.000008  -0.000010   0.000000  -0.021021  -0.053925
    40  H    0.000001   0.000002   0.000011  -0.000000  -0.008039  -0.054952
    41  H    0.000000   0.000000   0.000000   0.000000   0.000067   0.001277
    42  H    0.000000   0.000000   0.000000   0.000000  -0.000035   0.002272
    43  H    0.000002  -0.000004  -0.000079  -0.000000  -0.000118  -0.005118
    44  H    0.000188  -0.002020   0.001636  -0.000035   0.005690  -0.061057
              19         20         21         22         23         24
     1  C   -0.421092  -0.015829  -0.219430  -0.035243   0.010257   0.076610
     2  C   -0.596204   0.121875   0.170270  -0.234191   0.014557   0.090989
     3  C    0.206583  -0.002551   0.034816   0.104477  -0.025960  -0.319639
     4  C    0.098726  -0.016578  -0.005704  -0.006108   0.018628   0.076402
     5  N    0.015659  -0.003227   0.002140   0.022937  -0.011895  -0.055738
     6  C   -0.011096  -0.005087  -0.002027  -0.003561   0.016314   0.181564
     7  C    0.004751   0.006154  -0.169173  -0.009656   0.014630   0.004239
     8  N    0.002516  -0.000630   0.007170   0.001997  -0.013867  -0.074423
     9  C   -0.020451  -0.000902   0.088879   0.008826  -0.002704   0.006488
    10  C   -0.005385  -0.000067   0.031683   0.000096  -0.008479  -0.042271
    11  C   -0.000131   0.000018  -0.000242  -0.000006   0.000062   0.001982
    12  C    0.000193  -0.000013   0.000004  -0.000023   0.000057   0.000582
    13  C    0.000941   0.000061   0.001484   0.000009  -0.000597  -0.009549
    14  C    0.009501   0.001199  -0.066130  -0.006991   0.010618   0.063852
    15  N    0.012639  -0.001027   0.041597   0.008750  -0.003965  -0.043845
    16  O   -0.002331  -0.000058  -0.004387  -0.000340   0.000246   0.002981
    17  N    0.024425   0.024566   0.039786   0.099045   0.000448   0.055006
    18  C   -1.142538  -0.072979   0.446311  -1.014757   0.098325  -0.698382
    19  C    9.202251  -0.103002   0.164867   0.735552   0.022276  -0.037770
    20  S   -0.103002  16.222878   0.001161  -0.216266  -0.021835   0.025301
    21  C    0.164867   0.001161  11.850304  -1.634999  -0.210196   1.251508
    22  C    0.735552  -0.216266  -1.634999  10.226719   0.512859  -1.122289
    23  C    0.022276  -0.021835  -0.210196   0.512859   5.738993   0.980119
    24  C   -0.037770   0.025301   1.251508  -1.122289   0.980119   9.867214
    25  C    0.130425   0.049293  -2.883688   1.226764  -1.035961  -1.514203
    26  C   -2.348691   0.064372  -2.333198  -2.887954  -0.220885  -2.689807
    27  H   -0.006877   0.000136  -0.001896  -0.000148   0.000043   0.000514
    28  H    0.000669   0.000022   0.000633   0.000045  -0.000015  -0.000281
    29  H   -0.013647  -0.000190  -0.000453  -0.000019   0.000011   0.000169
    30  H    0.004561  -0.000299   0.003094   0.003486  -0.000944  -0.027786
    31  H   -0.001944   0.000059  -0.000980  -0.000094  -0.000201   0.000829
    32  H    0.015553   0.000024   0.007926   0.000505  -0.000134   0.000985
    33  H   -0.008942  -0.001054  -0.010140  -0.000932   0.000780   0.000502
    34  H    0.019446   0.000499  -0.019375  -0.007577  -0.000703   0.011568
    35  H    0.000000   0.000000  -0.000004   0.000000   0.000002   0.000077
    36  H    0.000000   0.000000  -0.000000   0.000000   0.000000   0.000000
    37  H   -0.000000   0.000000   0.000000  -0.000000  -0.000000  -0.000000
    38  H    0.000001  -0.000000  -0.000000   0.000000   0.000000   0.000002
    39  H    0.444489  -0.042798  -0.025683  -0.010026   0.000664   0.000193
    40  H    0.399648  -0.069292  -0.013646  -0.014898   0.001620  -0.006290
    41  H    0.000081   0.010022   0.033019   0.234797  -0.019625   0.006959
    42  H    0.000197  -0.004102  -0.011607  -0.008885   0.278948  -0.007522
    43  H   -0.000546   0.000602  -0.008893   0.007336  -0.014659   0.285576
    44  H    0.001695   0.001265   0.047439  -0.024780   0.042520   0.116364
              25         26         27         28         29         30
     1  C    0.237389   0.286590   0.527265   0.398037   0.488041   0.027801
     2  C   -0.517992   1.024888  -0.168807   0.012311  -0.086120  -0.122952
     3  C   -0.191300   0.024742   0.002965  -0.028418  -0.034788   0.452154
     4  C    0.074011  -0.637545   0.005392  -0.063721   0.008155   0.024660
     5  N    0.104047  -0.049759   0.002062   0.030923  -0.004802  -0.010276
     6  C   -0.079205   0.070389   0.001075   0.005697   0.000851   0.039427
     7  C    0.422812  -0.287687   0.003277  -0.002251   0.002708  -0.048071
     8  N    0.019653   0.047977  -0.000023   0.000006  -0.000043   0.001380
     9  C   -0.178763   0.114316  -0.011964   0.017882   0.000084   0.004077
    10  C   -0.102795   0.137582  -0.000849  -0.000698  -0.000013   0.002678
    11  C    0.000144   0.000202  -0.000102   0.000984   0.000006   0.000060
    12  C   -0.000596  -0.001197   0.000362  -0.001129  -0.000028   0.000015
    13  C   -0.009590   0.007635   0.004194  -0.010136   0.000481  -0.000278
    14  C    0.172025  -0.208287   0.007268  -0.009388  -0.000362  -0.005808
    15  N   -0.095762   0.057176  -0.004362  -0.014913   0.000473   0.002993
    16  O    0.008038   0.009755  -0.005074   0.003241   0.001089  -0.000022
    17  N    0.164652  -0.353100   0.003396   0.002825  -0.012340  -0.007926
    18  C   -0.134574  -4.116072  -0.003805   0.003911  -0.008891  -0.002882
    19  C    0.130425  -2.348691  -0.006877   0.000669  -0.013647   0.004561
    20  S    0.049293   0.064372   0.000136   0.000022  -0.000190  -0.000299
    21  C   -2.883688  -2.333198  -0.001896   0.000633  -0.000453   0.003094
    22  C    1.226764  -2.887954  -0.000148   0.000045  -0.000019   0.003486
    23  C   -1.035961  -0.220885   0.000043  -0.000015   0.000011  -0.000944
    24  C   -1.514203  -2.689807   0.000514  -0.000281   0.000169  -0.027786
    25  C   10.500475  -0.526028   0.004950   0.000159   0.000895  -0.067250
    26  C   -0.526028  18.964171  -0.004322  -0.001118   0.009701   0.061142
    27  H    0.004950  -0.004322   0.513705  -0.027693  -0.023303  -0.000168
    28  H    0.000159  -0.001118  -0.027693   0.567478  -0.029618   0.000009
    29  H    0.000895   0.009701  -0.023303  -0.029618   0.546013   0.000059
    30  H   -0.067250   0.061142  -0.000168   0.000009   0.000059   0.560466
    31  H    0.007073  -0.005076   0.000094   0.001529  -0.000179  -0.029870
    32  H    0.004889  -0.032202   0.000073   0.000001   0.002723  -0.024951
    33  H    0.002263   0.049791   0.003149   0.000331   0.000140  -0.000075
    34  H    0.009976  -0.076904  -0.000009  -0.000109  -0.000159   0.001824
    35  H    0.000045  -0.000116   0.000000   0.000000  -0.000000   0.000000
    36  H    0.000000  -0.000000   0.000000  -0.000000   0.000000  -0.000000
    37  H   -0.000000   0.000000  -0.000000   0.000000  -0.000000   0.000000
    38  H    0.000012  -0.000015   0.000000  -0.000000  -0.000000  -0.000000
    39  H    0.003498   0.019977  -0.000018  -0.000000  -0.000012  -0.000001
    40  H   -0.024523   0.100923   0.000002  -0.000000  -0.000004   0.000013
    41  H   -0.021065   0.061555   0.000000  -0.000000   0.000000   0.000000
    42  H    0.059075   0.002540  -0.000000   0.000000   0.000000   0.000000
    43  H    0.001786   0.045291  -0.000000  -0.000000   0.000000  -0.000007
    44  H    0.217632  -0.066415  -0.000001  -0.000001  -0.000002   0.005621
              31         32         33         34         35         36
     1  C   -0.015856  -0.089084   0.016539   0.007980  -0.000106   0.000002
     2  C   -0.042520  -0.174395  -0.197792  -0.085343  -0.000105  -0.000011
     3  C    0.438120   0.520630   0.018376  -0.020892   0.000078   0.000003
     4  C   -0.024611   0.040215   0.469745   0.443552   0.000312   0.000090
     5  N    0.014539   0.000569  -0.006004  -0.084884  -0.002237   0.000702
     6  C   -0.004281  -0.009652   0.020319   0.037957  -0.015384  -0.004647
     7  C   -0.006304   0.001421   0.004676  -0.036152   0.028795  -0.000210
     8  N    0.000681   0.000147  -0.000111   0.005698   0.000748  -0.000006
     9  C   -0.002644   0.001912  -0.007583  -0.008330   0.102975   0.006297
    10  C   -0.003817   0.000052  -0.001752  -0.006592   0.186417   0.024896
    11  C    0.000023   0.000008  -0.000177   0.000439  -0.033436   0.252520
    12  C    0.000209  -0.000026  -0.000230  -0.000100  -0.006813   0.017336
    13  C   -0.000707  -0.000014  -0.001961  -0.000314  -0.013967  -0.012098
    14  C    0.009270  -0.002078   0.007324   0.016570   0.057738   0.031254
    15  N   -0.004339   0.001911  -0.032222   0.024712   0.000743  -0.000390
    16  O    0.000395  -0.000028   0.014251  -0.002174   0.000040  -0.000003
    17  N    0.005837   0.012994   0.030225  -0.013779  -0.000000   0.000000
    18  C   -0.012989   0.049175  -0.030798   0.087625   0.000023   0.000000
    19  C   -0.001944   0.015553  -0.008942   0.019446   0.000000   0.000000
    20  S    0.000059   0.000024  -0.001054   0.000499   0.000000   0.000000
    21  C   -0.000980   0.007926  -0.010140  -0.019375  -0.000004  -0.000000
    22  C   -0.000094   0.000505  -0.000932  -0.007577   0.000000   0.000000
    23  C   -0.000201  -0.000134   0.000780  -0.000703   0.000002   0.000000
    24  C    0.000829   0.000985   0.000502   0.011568   0.000077   0.000000
    25  C    0.007073   0.004889   0.002263   0.009976   0.000045   0.000000
    26  C   -0.005076  -0.032202   0.049791  -0.076904  -0.000116  -0.000000
    27  H    0.000094   0.000073   0.003149  -0.000009   0.000000   0.000000
    28  H    0.001529   0.000001   0.000331  -0.000109   0.000000  -0.000000
    29  H   -0.000179   0.002723   0.000140  -0.000159  -0.000000   0.000000
    30  H   -0.029870  -0.024951  -0.000075   0.001824   0.000000  -0.000000
    31  H    0.545164  -0.026527  -0.000017   0.000190  -0.000000  -0.000000
    32  H   -0.026527   0.540468  -0.000098   0.000047  -0.000000  -0.000000
    33  H   -0.000017  -0.000098   0.487898  -0.027573  -0.000000   0.000000
    34  H    0.000190   0.000047  -0.027573   0.562375  -0.000000  -0.000000
    35  H   -0.000000  -0.000000  -0.000000  -0.000000   0.549323  -0.004803
    36  H   -0.000000  -0.000000   0.000000  -0.000000  -0.004803   0.559731
    37  H   -0.000000  -0.000000  -0.000000   0.000000  -0.000136  -0.005209
    38  H    0.000000   0.000000   0.000000  -0.000000   0.000013  -0.000128
    39  H    0.000000  -0.000002  -0.000006   0.000001   0.000000   0.000000
    40  H   -0.000001   0.000003   0.000001  -0.000002   0.000000  -0.000000
    41  H    0.000000  -0.000000  -0.000000   0.000000  -0.000000  -0.000000
    42  H   -0.000000  -0.000000  -0.000000  -0.000001   0.000000  -0.000000
    43  H    0.000000  -0.000000  -0.000000   0.000003  -0.000000   0.000000
    44  H   -0.000087   0.000067   0.000120   0.003264  -0.000000  -0.000000
              37         38         39         40         41         42
     1  C    0.000002  -0.000531   0.004176   0.000260   0.000012   0.000007
     2  C    0.000002   0.000115   0.011597  -0.024716  -0.000071   0.000118
     3  C    0.000001  -0.000002  -0.001465   0.004426  -0.000023   0.000045
     4  C    0.000170  -0.000783  -0.009489   0.004048   0.000005  -0.000022
     5  N    0.001210  -0.006893   0.000058  -0.000021  -0.000002   0.000005
     6  C   -0.000425   0.004334   0.000243  -0.000128   0.000007   0.000053
     7  C    0.000196  -0.002665   0.000093  -0.000046  -0.000003  -0.000287
     8  N   -0.000001   0.000008  -0.000000  -0.000000   0.000001   0.000066
     9  C   -0.022531   0.077050  -0.000064  -0.000004  -0.000002   0.000004
    10  C    0.026800  -0.039700  -0.000002  -0.000000  -0.000000  -0.000002
    11  C   -0.006167   0.004856   0.000000  -0.000000  -0.000000  -0.000000
    12  C    0.301289  -0.066758   0.000000   0.000000  -0.000000   0.000000
    13  C    0.019341   0.229036   0.000002   0.000001   0.000000   0.000000
    14  C   -0.002230   0.138292   0.000008   0.000002   0.000000   0.000000
    15  N   -0.001198  -0.035739  -0.000010   0.000011   0.000000   0.000000
    16  O   -0.000099   0.012658   0.000000  -0.000000   0.000000   0.000000
    17  N    0.000000   0.000000  -0.021021  -0.008039   0.000067  -0.000035
    18  C    0.000000   0.000010  -0.053925  -0.054952   0.001277   0.002272
    19  C   -0.000000   0.000001   0.444489   0.399648   0.000081   0.000197
    20  S    0.000000  -0.000000  -0.042798  -0.069292   0.010022  -0.004102
    21  C    0.000000  -0.000000  -0.025683  -0.013646   0.033019  -0.011607
    22  C   -0.000000   0.000000  -0.010026  -0.014898   0.234797  -0.008885
    23  C   -0.000000   0.000000   0.000664   0.001620  -0.019625   0.278948
    24  C   -0.000000   0.000002   0.000193  -0.006290   0.006959  -0.007522
    25  C   -0.000000   0.000012   0.003498  -0.024523  -0.021065   0.059075
    26  C    0.000000  -0.000015   0.019977   0.100923   0.061555   0.002540
    27  H   -0.000000   0.000000  -0.000018   0.000002   0.000000  -0.000000
    28  H    0.000000  -0.000000  -0.000000  -0.000000  -0.000000   0.000000
    29  H   -0.000000  -0.000000  -0.000012  -0.000004   0.000000   0.000000
    30  H    0.000000  -0.000000  -0.000001   0.000013   0.000000   0.000000
    31  H   -0.000000   0.000000   0.000000  -0.000001   0.000000  -0.000000
    32  H   -0.000000   0.000000  -0.000002   0.000003  -0.000000  -0.000000
    33  H   -0.000000   0.000000  -0.000006   0.000001  -0.000000  -0.000000
    34  H    0.000000  -0.000000   0.000001  -0.000002   0.000000  -0.000001
    35  H   -0.000136   0.000013   0.000000   0.000000  -0.000000   0.000000
    36  H   -0.005209  -0.000128   0.000000  -0.000000  -0.000000  -0.000000
    37  H    0.557394  -0.004419   0.000000  -0.000000   0.000000  -0.000000
    38  H   -0.004419   0.530576  -0.000000   0.000000  -0.000000   0.000000
    39  H    0.000000  -0.000000   0.501785  -0.026288  -0.000001  -0.000000
    40  H   -0.000000   0.000000  -0.026288   0.526702  -0.000002  -0.000000
    41  H    0.000000  -0.000000  -0.000001  -0.000002   0.562560  -0.005588
    42  H   -0.000000   0.000000  -0.000000  -0.000000  -0.005588   0.565854
    43  H    0.000000  -0.000000  -0.000000  -0.000000  -0.000148  -0.004933
    44  H    0.000000  -0.000000  -0.000002  -0.000002   0.000017  -0.000199
              43         44
     1  C    0.000129  -0.002371
     2  C    0.007353   0.033953
     3  C   -0.002424  -0.019123
     4  C   -0.002914  -0.029704
     5  N   -0.000385   0.000416
     6  C   -0.001898  -0.026187
     7  C    0.008885   0.043168
     8  N   -0.003697  -0.009945
     9  C   -0.000341  -0.001158
    10  C    0.000286   0.001675
    11  C    0.000014   0.000201
    12  C   -0.000000  -0.000028
    13  C    0.000002   0.000188
    14  C   -0.000004  -0.002020
    15  N   -0.000079   0.001636
    16  O   -0.000000  -0.000035
    17  N   -0.000118   0.005690
    18  C   -0.005118  -0.061057
    19  C   -0.000546   0.001695
    20  S    0.000602   0.001265
    21  C   -0.008893   0.047439
    22  C    0.007336  -0.024780
    23  C   -0.014659   0.042520
    24  C    0.285576   0.116364
    25  C    0.001786   0.217632
    26  C    0.045291  -0.066415
    27  H   -0.000000  -0.000001
    28  H   -0.000000  -0.000001
    29  H    0.000000  -0.000002
    30  H   -0.000007   0.005621
    31  H    0.000000  -0.000087
    32  H   -0.000000   0.000067
    33  H   -0.000000   0.000120
    34  H    0.000003   0.003264
    35  H   -0.000000  -0.000000
    36  H    0.000000  -0.000000
    37  H    0.000000   0.000000
    38  H   -0.000000  -0.000000
    39  H   -0.000000  -0.000002
    40  H   -0.000000  -0.000002
    41  H   -0.000148   0.000017
    42  H   -0.004933  -0.000199
    43  H    0.550549  -0.006581
    44  H   -0.006581   0.602653
 Mulliken charges:
               1
     1  C   -0.143327
     2  C   -0.881731
     3  C   -0.234226
     4  C   -0.446983
     5  N    0.046224
     6  C    1.026984
     7  C   -0.424313
     8  N   -0.509929
     9  C    1.972501
    10  C   -0.653450
    11  C   -0.171084
    12  C   -0.224089
    13  C   -0.671739
    14  C   -0.955050
    15  N   -0.164056
    16  O    0.080411
    17  N    0.210201
    18  C   -0.402250
    19  C   -0.797000
    20  S    0.048278
    21  C   -0.602234
    22  C    0.045544
    23  C   -0.170353
    24  C   -0.458781
    25  C   -0.038684
    26  C    1.685662
    27  H    0.179496
    28  H    0.142795
    29  H    0.153375
    30  H    0.154044
    31  H    0.159033
    32  H    0.156891
    33  H    0.201034
    34  H    0.157244
    35  H    0.149775
    36  H    0.134674
    37  H    0.136012
    38  H    0.160671
    39  H    0.204030
    40  H    0.205195
    41  H    0.136150
    42  H    0.133999
    43  H    0.144936
    44  H    0.124118
 Sum of Mulliken charges =  -0.00000
 Mulliken charges with hydrogens summed into heavy atoms:
               1
     1  C    0.332338
     2  C   -0.881731
     3  C    0.235742
     4  C   -0.088704
     5  N    0.046224
     6  C    1.026984
     7  C   -0.424313
     8  N   -0.509929
     9  C    1.972501
    10  C   -0.503675
    11  C   -0.036410
    12  C   -0.088077
    13  C   -0.511068
    14  C   -0.955050
    15  N   -0.164056
    16  O    0.080411
    17  N    0.210201
    18  C   -0.402250
    19  C   -0.387776
    20  S    0.048278
    21  C   -0.602234
    22  C    0.181695
    23  C   -0.036354
    24  C   -0.313845
    25  C    0.085434
    26  C    1.685662
 Electronic spatial extent (au):  <R**2>=          11220.1558
 Charge=             -0.0000 electrons
 Dipole moment (field-independent basis, Debye):
    X=              1.7102    Y=              1.0677    Z=              0.1624  Tot=              2.0227
 Quadrupole moment (field-independent basis, Debye-Ang):
   XX=           -136.8882   YY=           -168.0596   ZZ=           -165.2956
   XY=              0.0985   XZ=              0.0505   YZ=             -9.1949
 Traceless Quadrupole moment (field-independent basis, Debye-Ang):
   XX=             19.8596   YY=            -11.3118   ZZ=             -8.5478
   XY=              0.0985   XZ=              0.0505   YZ=             -9.1949
 Octapole moment (field-independent basis, Debye-Ang**2):
  XXX=            174.7617  YYY=            -12.5274  ZZZ=              3.5181  XYY=            -31.9850
  XXY=             36.3427  XXZ=            -25.2064  XZZ=             -9.1073  YZZ=            -12.6757
  YYZ=            -15.8632  XYZ=             18.9734
 Hexadecapole moment (field-independent basis, Debye-Ang**3):
 XXXX=         -11018.3871 YYYY=          -2705.9521 ZZZZ=          -1092.5082 XXXY=             -8.2393
 XXXZ=           -108.4898 YYYX=            -36.9595 YYYZ=            -73.6516 ZZZX=            -15.5348
 ZZZY=            -26.0070 XXYY=          -2274.9151 XXZZ=          -2219.4476 YYZZ=           -668.4126
 XXYZ=            -37.1242 YYXZ=             45.7599 ZZXY=            -28.2877
 N-N= 2.365908519272D+03 E-N=-8.151782349185D+03  KE= 1.453891841029D+03
 Unable to Open any file for archive entry.
 1\1\GINC-N2\SP\RB3LYP TD-FC\6-31+G(d,p)\C20H18N4O1S1\HPCMGAC13\31-Jul-
 2025\0\\# td=(50-50,nstates=3) b3lyp/6-31+g(d,p) geom=connectivity\\Ti
 tle Card Required\\0,1\C,0,-0.485266,2.633373,1.249593\C,0,0.296766,1.
 316051,1.062736\C,0,0.186043,0.509313,2.372216\C,0,-0.242582,0.572566,
 -0.203082\N,0,-1.666129,0.238546,-0.178347\C,0,-2.297899,-0.900458,0.2
 95672\C,0,-1.595327,-1.967533,0.880728\N,0,-1.021831,-2.866733,1.35809
 8\C,0,-3.668872,-0.771359,0.003714\C,0,-4.817442,-1.570993,0.224449\C,
 0,-6.031177,-1.098891,-0.230564\C,0,-6.151206,0.152946,-0.906661\C,0,-
 5.051767,0.953159,-1.13803\C,0,-3.815012,0.469901,-0.670716\N,0,-2.580
 514,1.056779,-0.784994\O,0,-2.26176,2.142911,-1.353831\N,0,1.68668,1.7
 2156,0.811829\C,0,2.719775,1.060471,0.451963\C,0,3.990725,1.908828,0.3
 10761\S,0,5.11881,1.065864,-0.867067\C,0,4.246876,-0.458673,-0.639789\
 C,0,4.706206,-1.686936,-1.124915\C,0,3.968741,-2.839965,-0.861166\C,0,
 2.790182,-2.769427,-0.108184\C,0,2.329984,-1.539063,0.358259\C,0,3.037
 127,-0.355537,0.085099\H,0,-0.418823,3.256469,0.356002\H,0,-1.542628,2
 .446006,1.461523\H,0,-0.054548,3.183816,2.090429\H,0,0.716099,-0.44257
 4,2.348138\H,0,-0.861798,0.311254,2.617142\H,0,0.608992,1.106545,3.185
 385\H,0,-0.108568,1.225317,-1.06853\H,0,0.286885,-0.361636,-0.38039\H,
 0,-4.737437,-2.524471,0.736053\H,0,-6.925558,-1.693806,-0.072629\H,0,-
 7.130702,0.476436,-1.24395\H,0,-5.111321,1.906432,-1.650223\H,0,3.7430
 52,2.909393,-0.039856\H,0,4.491697,1.98228,1.282358\H,0,5.634898,-1.74
 0407,-1.684941\H,0,4.323138,-3.799155,-1.227305\H,0,2.229103,-3.668994
 ,0.122927\H,0,1.427944,-1.527728,0.952998\\Version=ES64L-G16RevC.02\St
 ate=1-A\HF=-1465.3362535\RMSD=5.931e-09\PG=C01 [X(C20H18N4O1S1)]\\@
 The archive entry for this job was punched.


 "A LITTLE BIT GOES A LONG WAY"
 R.S. MULLIKEN AS QUOTED BY K. RUEDENBERG
 Job cpu time:       0 days  3 hours 38 minutes 18.8 seconds.
 Elapsed time:       0 days  0 hours 27 minutes 43.0 seconds.
 File lengths (MBytes):  RWF=   1788 Int=      0 D2E=      0 Chk=     88 Scr=      2
 Normal termination of Gaussian 16 at Thu Jul 31 12:32:59 2025.
