 Entering Gaussian System, Link 0=g16
 Input=M2344e.gjf
 Output=M2344e.log
 Initial command:
 /hpc/softwares/Gaussian/g16/l1.exe "/hpc/home/hpcmgac13/pbs.14113.admin1.x8z/Gau-3972534.inp" -scrdir="/hpc/home/hpcmgac13/pbs.14113.admin1.x8z/"
 Default linda workers: n2
 Default is to use   8 SMP processors on each worker.
 Entering Link 1 = /hpc/softwares/Gaussian/g16/l1.exe PID=   3972535.
  
 Copyright (c) 1988-2021, Gaussian, Inc.  All Rights Reserved.
  
 This is part of the Gaussian(R) 16 program.  It is based on
 the Gaussian(R) 09 system (copyright 2009, Gaussian, Inc.),
 the Gaussian(R) 03 system (copyright 2003, Gaussian, Inc.),
 the Gaussian(R) 98 system (copyright 1998, Gaussian, Inc.),
 the Gaussian(R) 94 system (copyright 1995, Gaussian, Inc.),
 the Gaussian 92(TM) system (copyright 1992, Gaussian, Inc.),
 the Gaussian 90(TM) system (copyright 1990, Gaussian, Inc.),
 the Gaussian 88(TM) system (copyright 1988, Gaussian, Inc.),
 the Gaussian 86(TM) system (copyright 1986, Carnegie Mellon
 University), and the Gaussian 82(TM) system (copyright 1983,
 Carnegie Mellon University). Gaussian is a federally registered
 trademark of Gaussian, Inc.
  
 This software contains proprietary and confidential information,
 including trade secrets, belonging to Gaussian, Inc.
  
 This software is provided under written license and may be
 used, copied, transmitted, or stored only in accord with that
 written license.
  
 The following legend is applicable only to US Government
 contracts under FAR:
  
                    RESTRICTED RIGHTS LEGEND
  
 Use, reproduction and disclosure by the US Government is
 subject to restrictions as set forth in subparagraphs (a)
 and (c) of the Commercial Computer Software - Restricted
 Rights clause in FAR 52.227-19.
  
 Gaussian, Inc.
 340 Quinnipiac St., Bldg. 40, Wallingford CT 06492
  
  
 ---------------------------------------------------------------
 Warning -- This program may not be used in any manner that
 competes with the business of Gaussian, Inc. or will provide
 assistance to any competitor of Gaussian, Inc.  The licensee
 of this program is prohibited from giving any competitor of
 Gaussian, Inc. access to this program.  By using this program,
 the user acknowledges that Gaussian, Inc. is engaged in the
 business of creating and licensing software in the field of
 computational chemistry and represents and warrants to the
 licensee that it is not a competitor of Gaussian, Inc. and that
 it will not use this program in any manner prohibited above.
 ---------------------------------------------------------------
  

 Cite this work as:
 Gaussian 16, Revision C.02,
 M. J. Frisch, G. W. Trucks, H. B. Schlegel, G. E. Scuseria, 
 M. A. Robb, J. R. Cheeseman, G. Scalmani, V. Barone, 
 G. A. Petersson, H. Nakatsuji, X. Li, M. Caricato, A. V. Marenich, 
 J. Bloino, B. G. Janesko, R. Gomperts, B. Mennucci, H. P. Hratchian, 
 J. V. Ortiz, A. F. Izmaylov, J. L. Sonnenberg, D. Williams-Young, 
 F. Ding, F. Lipparini, F. Egidi, J. Goings, B. Peng, A. Petrone, 
 T. Henderson, D. Ranasinghe, V. G. Zakrzewski, J. Gao, N. Rega, 
 G. Zheng, W. Liang, M. Hada, M. Ehara, K. Toyota, R. Fukuda, 
 J. Hasegawa, M. Ishida, T. Nakajima, Y. Honda, O. Kitao, H. Nakai, 
 T. Vreven, K. Throssell, J. A. Montgomery, Jr., J. E. Peralta, 
 F. Ogliaro, M. J. Bearpark, J. J. Heyd, E. N. Brothers, K. N. Kudin, 
 V. N. Staroverov, T. A. Keith, R. Kobayashi, J. Normand, 
 K. Raghavachari, A. P. Rendell, J. C. Burant, S. S. Iyengar, 
 J. Tomasi, M. Cossi, J. M. Millam, M. Klene, C. Adamo, R. Cammi, 
 J. W. Ochterski, R. L. Martin, K. Morokuma, O. Farkas, 
 J. B. Foresman, and D. J. Fox, Gaussian, Inc., Wallingford CT, 2019.
 
 ******************************************
 Gaussian 16:  ES64L-G16RevC.02  7-Dec-2021
                19-Sep-2025 
 ******************************************
 SetLPE:    new flags="-opt 'Tsnet.Node.lindarsharg: ssh'  -nodelist 'n2.head.cm.mguif.local' -env GAUSS_MDEF=2147483648 -env GAUSS_EXEDIR="/hpc/softwares/Gaussian/g16/bsd:/hpc/softwares/Gaussian/g16""
 Will use up to    1 processors via Linda.
 ----------------------------------------------------------
 # td=(50-50,nstates=3) b3lyp/6-31+g(d,p) geom=connectivity
 ----------------------------------------------------------
 1/38=1,57=2,172=1/1;
 2/12=2,17=6,18=5,40=1/2;
 3/5=1,6=6,7=111,11=9,25=1,30=1,74=-5/1,2,3,8;
 4//1;
 5/5=2,38=5/2;
 8/6=1,10=2,108=3/1;
 9/41=3,42=1,48=2,70=2/14;
 6/7=2,8=2,9=2,10=2/1;
 99/5=1,9=1/99;
 -------------------
 Title Card Required
 -------------------
 Symbolic Z-matrix:
 Charge =  0 Multiplicity = 1
 C                     0.43174   3.13613   0.70332 
 C                     1.21924   1.80848   0.76298 
 C                     1.80526   1.67035   2.18494 
 C                     0.30124   0.6203    0.35635 
 C                    -0.98851   0.41577   1.17639 
 N                    -2.15423   1.19703   0.73432 
 C                    -3.15187   0.36246   0.2816 
 C                    -4.37343   0.71657  -0.31317 
 C                    -5.23932  -0.32144  -0.64364 
 Cl                   -6.7785    0.08257  -1.38879 
 C                    -4.94807  -1.67948  -0.40902 
 C                    -3.72962  -2.0122    0.17295 
 C                    -2.83363  -0.99361   0.51107 
 C                    -1.4857   -1.04947   1.07532 
 O                    -0.82586  -2.02141   1.41438 
 N                     2.29144   1.96315  -0.23179 
 C                     3.21328   1.14027  -0.565 
 C                     4.20387   1.63893  -1.6334 
 N                     4.97768   0.45928  -2.01721 
 C                     4.74188  -0.55101  -1.09982 
 C                     5.42232  -1.77367  -1.0205 
 C                     5.01229  -2.70003  -0.06542 
 C                     3.93905  -2.42312   0.79555 
 C                     3.2703   -1.20247   0.71424 
 C                     3.66663  -0.23937  -0.22828 
 H                    -0.00249   3.28137  -0.29228 
 H                    -0.36063   3.17396   1.45961 
 H                     1.11111   3.97369   0.88461 
 H                     2.4091    0.77072   2.3087 
 H                     1.01336   1.65479   2.94114 
 H                     2.44509   2.53294   2.39633 
 H                     0.02752   0.74606  -0.69858 
 H                     0.8618   -0.31322   0.4233 
 H                    -0.79586   0.61026   2.23912 
 H                    -2.02853   2.11254   0.32919 
 H                    -4.64355   1.7494   -0.50263 
 H                    -5.66791  -2.44017  -0.6864 
 H                    -3.46391  -3.04841   0.3589 
 H                     3.667     2.07221  -2.48118 
 H                     4.84091   2.4187   -1.19365 
 H                     5.92013   0.5858   -2.35886 
 H                     6.24321  -1.99303  -1.69734 
 H                     5.52814  -3.65335   0.00823 
 H                     3.62254  -3.15988   1.52637 
 H                     2.44834  -1.02344   1.39372 
 
                          Input orientation:                          
 ---------------------------------------------------------------------
 Center     Atomic      Atomic             Coordinates (Angstroms)
 Number     Number       Type             X           Y           Z
 ---------------------------------------------------------------------
      1          6           0        0.431741    3.136129    0.703324
      2          6           0        1.219239    1.808477    0.762984
      3          6           0        1.805257    1.670353    2.184936
      4          6           0        0.301244    0.620301    0.356345
      5          6           0       -0.988508    0.415768    1.176392
      6          7           0       -2.154232    1.197033    0.734324
      7          6           0       -3.151868    0.362464    0.281603
      8          6           0       -4.373428    0.716574   -0.313173
      9          6           0       -5.239315   -0.321442   -0.643636
     10         17           0       -6.778495    0.082568   -1.388786
     11          6           0       -4.948072   -1.679478   -0.409018
     12          6           0       -3.729623   -2.012197    0.172954
     13          6           0       -2.833627   -0.993605    0.511073
     14          6           0       -1.485698   -1.049472    1.075324
     15          8           0       -0.825863   -2.021410    1.414376
     16          7           0        2.291444    1.963154   -0.231793
     17          6           0        3.213276    1.140268   -0.565004
     18          6           0        4.203867    1.638925   -1.633399
     19          7           0        4.977682    0.459278   -2.017210
     20          6           0        4.741878   -0.551007   -1.099824
     21          6           0        5.422316   -1.773665   -1.020496
     22          6           0        5.012285   -2.700031   -0.065421
     23          6           0        3.939053   -2.423118    0.795548
     24          6           0        3.270300   -1.202465    0.714239
     25          6           0        3.666628   -0.239370   -0.228283
     26          1           0       -0.002485    3.281372   -0.292276
     27          1           0       -0.360630    3.173963    1.459609
     28          1           0        1.111106    3.973689    0.884611
     29          1           0        2.409099    0.770723    2.308702
     30          1           0        1.013359    1.654794    2.941139
     31          1           0        2.445089    2.532936    2.396331
     32          1           0        0.027517    0.746061   -0.698579
     33          1           0        0.861803   -0.313221    0.423304
     34          1           0       -0.795855    0.610255    2.239124
     35          1           0       -2.028525    2.112535    0.329186
     36          1           0       -4.643552    1.749400   -0.502629
     37          1           0       -5.667908   -2.440171   -0.686398
     38          1           0       -3.463908   -3.048415    0.358898
     39          1           0        3.666999    2.072215   -2.481175
     40          1           0        4.840911    2.418695   -1.193654
     41          1           0        5.920133    0.585798   -2.358857
     42          1           0        6.243208   -1.993034   -1.697344
     43          1           0        5.528136   -3.653345    0.008227
     44          1           0        3.622544   -3.159878    1.526366
     45          1           0        2.448342   -1.023441    1.393716
 ---------------------------------------------------------------------
                    Distance matrix (angstroms):
                    1          2          3          4          5
     1  C    0.000000
     2  C    1.544789   0.000000
     3  C    2.496041   1.544164   0.000000
     4  C    2.542993   1.555581   2.590060   0.000000
     5  C    3.105039   2.642857   3.224324   1.542002   0.000000
     6  N    3.232385   3.428555   4.243331   2.550461   1.471296
     7  C    4.551189   4.629175   5.468669   3.463531   2.341712
     8  C    5.475140   5.798990   6.732488   4.723355   3.710387
     9  C    6.777166   6.944642   7.848188   5.708295   4.682450
    10  Cl   8.104854   8.460061   9.432569   7.311453   6.341538
    11  C    7.305461   7.181584   7.972291   5.781875   4.752024
    12  C    6.641047   6.279882   6.945800   4.817838   3.796790
    13  C    5.268234   4.933644   5.605152   3.529313   2.415253
    14  C    4.618897   3.947419   4.411244   2.549163   1.550594
    15  O    5.356059   4.390306   4.598442   3.060790   2.454165
    16  N    2.389311   1.470758   2.482476   2.471853   3.890434
    17  C    3.650898   2.487215   3.134594   3.098254   4.605687
    18  C    4.683036   3.831371   4.509324   4.497460   6.029245
    19  N    5.935690   4.865769   5.402686   5.246786   6.767304
    20  C    5.951772   4.631005   4.934352   4.817844   6.241245
    21  C    7.209956   5.803309   5.934574   5.818259   7.121699
    22  C    7.458761   5.949798   5.869360   5.778962   6.874578
    23  C    6.573809   5.030392   4.820787   4.763292   5.699577
    24  C    5.184683   3.643487   3.544345   3.502265   4.579269
    25  C    4.767219   3.341557   3.596578   3.522305   4.906384
    26  H    1.095841   2.185315   3.464086   2.755768   3.367627
    27  H    1.096016   2.201323   2.734595   2.859451   2.842900
    28  H    1.093576   2.171320   2.734602   3.490008   4.141536
    29  H    3.475964   2.209512   1.090540   2.877043   3.598868
    30  H    2.745988   2.193254   1.095074   2.873751   2.942276
    31  H    2.698830   2.166881   1.094588   3.523604   4.214290
    32  H    2.800206   2.164508   3.511315   1.097090   2.157989
    33  H    3.487317   2.178244   2.815674   1.090951   2.126551
    34  H    3.200893   2.770438   2.809364   2.179125   1.097424
    35  H    2.690842   3.290684   4.282198   2.766826   2.162964
    36  H    5.397772   5.998132   6.986873   5.144289   4.237574
    37  H    8.380463   8.220980   8.999398   6.788562   5.789919
    38  H    7.317328   6.759035   7.305155   5.256981   4.335489
    39  H    4.662600   4.072549   5.039858   4.635502   6.147793
    40  H    4.853248   4.161407   4.603269   5.123016   6.603860
    41  H    6.782594   5.774014   6.225313   6.240627   7.762488
    42  H    8.114473   6.763502   6.941751   6.808384   8.146067
    43  H    8.517826   6.997696   6.851252   6.760594   7.771032
    44  H    7.106217   5.571641   5.202632   5.166211   5.845471
    45  H    4.673900   3.150917   2.880297   2.896214   3.732357
                    6          7          8          9         10
     6  N    0.000000
     7  C    1.377222   0.000000
     8  C    2.500584   1.404052   0.000000
     9  C    3.704359   2.383533   1.391561   0.000000
    10  Cl   5.208977   4.002620   2.709844   1.757142   0.000000
    11  C    4.169783   2.805857   2.465860   1.408591   2.723086
    12  C    3.618860   2.446348   2.845522   2.409282   4.015307
    13  C    2.304412   1.411686   2.444398   2.751816   4.508835
    14  C    2.368545   2.323721   3.658665   4.192194   5.947020
    15  O    3.547592   3.518001   4.802728   5.157893   6.907841
    16  N    4.613497   5.696967   6.780937   7.880439   9.334829
    17  C    5.522827   6.468136   7.602698   8.578407  10.081311
    18  C    6.799030   7.707362   8.727183   9.695172  11.094790
    19  N    7.679806   8.448876   9.508586  10.338436  11.778987
    20  C    7.346841   8.065606   9.236579   9.994249  11.541400
    21  C    8.325174   8.931693  10.132038  10.766678  12.346701
    22  C    8.196686   8.726551   9.991305  10.539797  12.186741
    23  C    7.087832   7.635756   8.954567   9.525268  11.221213
    24  C    5.931572   6.624230   7.947633   8.662192  10.346608
    25  C    6.072255   6.863969   8.097131   8.916001  10.514324
    26  H    3.166764   4.332202   5.067916   6.366169   7.572912
    27  H    2.766098   4.133187   5.028326   6.359486   7.671966
    28  H    4.288920   5.619387   6.490269   7.817387   9.085976
    29  H    4.846070   5.932972   7.271852   8.270874   9.927581
    30  H    3.887571   5.108069   6.363040   7.473423   9.051692
    31  H    5.069582   6.364664   7.558621   8.742936  10.266738
    32  H    2.648889   3.349088   4.417887   5.374207   6.873020
    33  H    3.387339   4.072614   5.386141   6.193712   7.862218
    34  H    2.110431   3.073123   4.395970   5.377983   7.016564
    35  H    1.009001   2.080123   2.803552   4.144852   5.443750
    36  H    2.834056   2.182598   1.084246   2.159445   2.849839
    37  H    5.252963   3.888733   3.432203   2.162067   2.844462
    38  H    4.458702   3.425995   3.931164   3.404927   4.883026
    39  H    6.707616   7.553353   8.437207   9.403647  10.689263
    40  H    7.358096   8.383853   9.411509  10.460489  11.853530
    41  H    8.668146   9.451090  10.495681  11.326886  12.745565
    42  H    9.306263   9.885952  11.044042  11.651303  13.189696
    43  H    9.114393   9.567859  10.827763  11.290018  12.936841
    44  H    7.278815   7.736213   9.074489   9.555008  11.277995
    45  H    5.152571   5.875362   7.244147   7.983964   9.700520
                   11         12         13         14         15
    11  C    0.000000
    12  C    1.390687   0.000000
    13  C    2.405799   1.398093   0.000000
    14  C    3.819452   2.603135   1.462331   0.000000
    15  O    4.520430   3.158011   2.429703   1.222703   0.000000
    16  N    8.106218   7.226374   5.963273   5.005125   5.320172
    17  C    8.636139   7.660709   6.502030   5.437462   5.498072
    18  C    9.811671   8.918176   7.813789   6.850971   6.927133
    19  N   10.280134   9.312474   8.337843   7.322252   7.184061
    20  C    9.779867   8.690303   7.757523   6.615319   6.283552
    21  C   10.388827   9.232508   8.432959   7.255176   6.710419
    22  C   10.018398   8.772166   8.050004   6.800693   6.060883
    23  C    8.999165   7.704873   6.927743   5.602955   4.821695
    24  C    8.308483   7.067360   6.110877   4.772139   4.235495
    25  C    8.736111   7.616327   6.585502   5.376069   5.104554
    26  H    7.005890   6.490753   5.190006   4.777705   5.631173
    27  H    6.934860   6.316791   4.938022   4.387580   5.216358
    28  H    8.387217   7.731102   6.354090   5.657907   6.322477
    29  H    8.216900   7.070359   5.816399   4.472558   4.365868
    30  H    7.607863   6.603450   5.264840   4.127906   4.384999
    31  H    8.959534   7.983026   6.622351   5.479945   5.692577
    32  H    5.542885   4.741694   3.560315   2.942871   3.584931
    33  H    6.026115   4.902080   3.758567   2.545183   2.597759
    34  H    5.431062   4.444469   3.116254   2.141263   2.758037
    35  H    4.842320   4.464477   3.213935   3.293884   4.439993
    36  H    3.443646   3.929541   3.439113   4.505071   5.698128
    37  H    1.083401   2.163006   3.399947   4.746429   5.294715
    38  H    2.160191   1.085784   2.154682   2.902129   3.021267
    39  H    9.622291   8.856457   7.785303   6.995992   7.219342
    40  H   10.641187   9.744459   8.570205   7.563228   7.656937
    41  H   11.271700  10.309095   9.346621   8.325505   8.157407
    42  H   11.269554  10.146711   9.394940   8.265227   7.723689
    43  H   10.668701   9.403542   8.788979   7.557296   6.709230
    44  H    8.910261   7.563283   6.885180   5.545393   4.593144
    45  H    7.641150   6.374571   5.355291   3.946989   3.422979
                   16         17         18         19         20
    16  N    0.000000
    17  C    1.279822   0.000000
    18  C    2.393112   1.539934   0.000000
    19  N    3.558824   2.384487   1.462076   0.000000
    20  C    3.616505   2.341595   2.317317   1.384874   0.000000
    21  C    4.938444   3.684879   3.675056   2.485392   1.401493
    22  C    5.401477   4.270119   4.683870   3.713746   2.400294
    23  C    4.796814   3.882728   4.740264   4.159154   2.782402
    24  C    3.445908   2.669852   3.802164   3.624549   2.425029
    25  C    2.596585   1.490741   2.406443   2.325345   1.418754
    26  H    2.646406   3.872961   4.710588   5.978434   6.152093
    27  H    3.370519   4.583424   5.723432   6.924981   6.816281
    28  H    2.584919   3.814286   4.621328   5.976793   6.131343
    29  H    2.808888   3.006900   4.417593   5.040648   4.336690
    30  H    3.434543   4.171020   5.577275   6.459902   5.924255
    31  H    2.693565   3.361419   4.486789   5.494855   5.197023
    32  H    2.612388   3.212834   4.371841   5.130806   4.905974
    33  H    2.766751   2.935781   4.382955   4.846991   4.175098
    34  H    4.179376   4.921095   6.407169   7.174462   6.569900
    35  H    4.358801   5.405678   6.551241   7.571378   7.414505
    36  H    6.943573   7.880652   8.920071   9.824791   9.681674
    37  H    9.107536   9.576519  10.723235  11.113346  10.587894
    38  H    7.654333   7.936211   9.205171   9.445117   8.700566
    39  H    2.638895   2.178555   1.093019   2.129488   3.153536
    40  H    2.762694   2.163047   1.098746   2.129851   2.972834
    41  H    4.425934   3.294301   2.140312   1.010418   2.065375
    42  H    5.780632   4.503361   4.165828   2.778076   2.165748
    43  H    6.486821   5.354054   5.697082   4.617257   3.386810
    44  H    5.577491   4.799227   5.774995   5.243245   3.867298
    45  H    3.403916   3.017175   4.396986   4.497825   3.420708
                   21         22         23         24         25
    21  C    0.000000
    22  C    1.392281   0.000000
    23  C    2.433079   1.403487   0.000000
    24  C    2.822543   2.425919   1.394215   0.000000
    25  C    2.462540   2.809301   2.427180   1.404626   0.000000
    26  H    7.450649   7.808749   7.018567   5.641719   5.085480
    27  H    8.004524   8.105414   7.089116   5.735185   5.542439
    28  H    7.432903   7.788472   6.994595   5.611035   5.051642
    29  H    5.161099   4.945621   3.851106   2.679076   3.006320
    30  H    6.847466   6.632896   5.458261   4.268114   4.546749
    31  H    6.251832   6.327295   5.418201   4.178951   4.008296
    32  H    5.962928   6.092976   5.251307   4.038372   3.799392
    33  H    5.001573   4.812714   3.749626   2.583845   2.880462
    34  H    7.414435   7.071309   5.805568   4.705831   5.169498
    35  H    8.511124   8.537535   7.510102   6.262191   6.186841
    36  H   10.677166  10.640666   9.631006   8.533659   8.549243
    37  H   11.115256  10.701386   9.720605   9.131553   9.601404
    38  H    9.082549   8.493955   7.442143   6.991663   7.686355
    39  H    4.472752   5.515432   5.569465   4.592556   3.227839
    40  H    4.236024   5.244391   5.311631   4.384025   3.062057
    41  H    2.757915   4.108614   4.788374   4.434345   3.209133
    42  H    1.086329   2.162912   3.421785   3.908825   3.445612
    43  H    2.145382   1.086432   2.158360   3.406331   3.895687
    44  H    3.412810   2.162551   1.084937   2.148276   3.407360
    45  H    3.903303   3.393205   2.130521   1.081367   2.174826
                   26         27         28         29         30
    26  H    0.000000
    27  H    1.791342   0.000000
    28  H    1.761945   1.770929   0.000000
    29  H    4.345593   3.764030   3.737889   0.000000
    30  H    3.759344   2.527974   3.100990   1.769081   0.000000
    31  H    3.712059   3.026619   2.478019   1.764757   1.765729
    32  H    2.567836   3.271566   3.754762   3.836180   3.878818
    33  H    3.765654   3.837802   4.318860   2.669042   3.199304
    34  H    3.764610   2.714712   4.096815   3.209723   2.203892
    35  H    2.420172   2.277358   3.691839   5.040977   4.035453
    36  H    4.891900   4.921705   6.323605   7.655147   6.623378
    37  H    8.061539   8.018170   9.463652   9.193395   8.635224
    38  H    7.243734   7.039878   8.397444   7.271847   6.988137
    39  H    4.440546   5.741552   4.634297   5.120460   6.051242
    40  H    5.001518   5.887806   4.544077   4.571216   5.685966
    41  H    6.827465   7.792770   6.717487   5.843600   7.301311
    42  H    8.294713   8.959625   8.282919   6.195736   7.885017
    43  H    8.875155   9.132152   8.857192   5.881578   7.560524
    44  H    7.611701   7.482491   7.589924   4.187377   5.656014
    45  H    5.232641   5.051026   5.197951   2.014389   3.409785
                   31         32         33         34         35
    31  H    0.000000
    32  H    4.314631   0.000000
    33  H    3.807918   1.754062   0.000000
    34  H    3.771622   3.053929   2.626374   0.000000
    35  H    4.946013   2.674109   3.774539   2.724736   0.000000
    36  H    7.698489   4.781629   5.951528   4.860003   2.768059
    37  H   10.002786   6.526108   6.956470   6.449859   5.916388
    38  H    8.379669   5.263683   5.118321   4.903022   5.356922
    39  H    5.049296   4.264055   4.689928   6.658499   6.351279
    40  H    4.317523   5.119723   5.090306   6.843066   7.042864
    41  H    6.203152   6.124143   5.842547   8.139197   8.528638
    42  H    7.188066   6.865493   6.023159   8.474745   9.454316
    43  H    7.312885   7.078923   5.753554   7.946575   9.510600
    44  H    5.878041   5.755950   4.116053   5.851852   7.820880
    45  H    3.695005   3.656396   1.990783   3.729409   5.568654
                   36         37         38         39         40
    36  H    0.000000
    37  H    4.316895   0.000000
    38  H    5.015258   2.514005   0.000000
    39  H    8.548925  10.522516   9.226955   0.000000
    40  H    9.533127  11.588838  10.063286   1.776465   0.000000
    41  H   10.788466  12.092820  10.423719   2.702038   2.425269
    42  H   11.573880  11.962300   9.978480   4.876217   4.656554
    43  H   11.528828  11.282983   9.019189   6.514829   6.227878
    44  H    9.825791   9.577411   7.182841   6.590687   6.324824
    45  H    7.847275   8.497500   6.334514   5.107151   4.926172
                   41         42         43         44         45
    41  H    0.000000
    42  H    2.681856   0.000000
    43  H    4.871045   2.485344   0.000000
    44  H    5.865489   4.315288   2.485867   0.000000
    45  H    5.359551   4.989566   4.280316   2.441456   0.000000
 Stoichiometry    C20H20ClN3O
 Framework group  C1[X(C20H20ClN3O)]
 Deg. of freedom   129
 Full point group                 C1      NOp   1
 Largest Abelian subgroup         C1      NOp   1
 Largest concise Abelian subgroup C1      NOp   1
                         Standard orientation:                         
 ---------------------------------------------------------------------
 Center     Atomic      Atomic             Coordinates (Angstroms)
 Number     Number       Type             X           Y           Z
 ---------------------------------------------------------------------
      1          6           0        0.431741    3.136129    0.703324
      2          6           0        1.219239    1.808477    0.762984
      3          6           0        1.805257    1.670353    2.184936
      4          6           0        0.301244    0.620301    0.356345
      5          6           0       -0.988508    0.415768    1.176392
      6          7           0       -2.154232    1.197033    0.734324
      7          6           0       -3.151868    0.362464    0.281603
      8          6           0       -4.373428    0.716574   -0.313173
      9          6           0       -5.239315   -0.321442   -0.643636
     10         17           0       -6.778495    0.082568   -1.388786
     11          6           0       -4.948072   -1.679478   -0.409018
     12          6           0       -3.729623   -2.012197    0.172954
     13          6           0       -2.833627   -0.993605    0.511073
     14          6           0       -1.485698   -1.049472    1.075324
     15          8           0       -0.825863   -2.021410    1.414376
     16          7           0        2.291444    1.963154   -0.231793
     17          6           0        3.213276    1.140268   -0.565004
     18          6           0        4.203867    1.638925   -1.633399
     19          7           0        4.977682    0.459278   -2.017210
     20          6           0        4.741878   -0.551007   -1.099824
     21          6           0        5.422316   -1.773665   -1.020496
     22          6           0        5.012285   -2.700031   -0.065421
     23          6           0        3.939053   -2.423118    0.795548
     24          6           0        3.270300   -1.202465    0.714239
     25          6           0        3.666628   -0.239370   -0.228283
     26          1           0       -0.002485    3.281372   -0.292276
     27          1           0       -0.360630    3.173963    1.459609
     28          1           0        1.111106    3.973689    0.884611
     29          1           0        2.409099    0.770723    2.308702
     30          1           0        1.013359    1.654794    2.941139
     31          1           0        2.445089    2.532936    2.396331
     32          1           0        0.027517    0.746061   -0.698579
     33          1           0        0.861803   -0.313221    0.423304
     34          1           0       -0.795855    0.610255    2.239124
     35          1           0       -2.028525    2.112535    0.329186
     36          1           0       -4.643552    1.749400   -0.502629
     37          1           0       -5.667908   -2.440171   -0.686398
     38          1           0       -3.463908   -3.048415    0.358898
     39          1           0        3.666999    2.072215   -2.481175
     40          1           0        4.840911    2.418695   -1.193654
     41          1           0        5.920133    0.585798   -2.358857
     42          1           0        6.243208   -1.993034   -1.697344
     43          1           0        5.528136   -3.653345    0.008227
     44          1           0        3.622544   -3.159878    1.526366
     45          1           0        2.448342   -1.023441    1.393716
 ---------------------------------------------------------------------
 Rotational constants (GHZ):           0.4082579           0.0867654           0.0808639
 Standard basis: 6-31+G(d,p) (6D, 7F)
 There are   579 symmetry adapted cartesian basis functions of A   symmetry.
 There are   579 symmetry adapted basis functions of A   symmetry.
   579 basis functions,   964 primitive gaussians,   579 cartesian basis functions
    93 alpha electrons       93 beta electrons
       nuclear repulsion energy      2185.3784684959 Hartrees.
 NAtoms=   45 NActive=   45 NUniq=   45 SFac= 1.00D+00 NAtFMM=   60 NAOKFM=F Big=F
 Integral buffers will be    131072 words long.
 Regular integral format.
 Two-electron integral symmetry is turned on.
 One-electron integrals computed using PRISM.
 NBasis=   579 RedAO= T EigKep=  1.15D-06  NBF=   579
 NBsUse=   576 1.00D-06 EigRej=  7.79D-07 NBFU=   576
 ExpMin= 4.38D-02 ExpMax= 2.52D+04 ExpMxC= 3.78D+03 IAcc=3 IRadAn=         5 AccDes= 0.00D+00
 Harris functional with IExCor=  402 and IRadAn=       5 diagonalized for initial guess.
 HarFok:  IExCor=  402 AccDes= 0.00D+00 IRadAn=         5 IDoV= 1 UseB2=F ITyADJ=14
 ICtDFT=  3500011 ScaDFX=  1.000000  1.000000  1.000000  1.000000
 FoFCou: FMM=F IPFlag=           0 FMFlag=      100000 FMFlg1=           0
         NFxFlg=           0 DoJE=T BraDBF=F KetDBF=T FulRan=T
         wScrn=  0.000000 ICntrl=       500 IOpCl=  0 I1Cent=   200000004 NGrid=           0
         NMat0=    1 NMatS0=      1 NMatT0=    0 NMatD0=    1 NMtDS0=    0 NMtDT0=    0
 Petite list used in FoFCou.
 Requested convergence on RMS density matrix=1.00D-08 within 128 cycles.
 Requested convergence on MAX density matrix=1.00D-06.
 Requested convergence on             energy=1.00D-06.
 No special actions if energy rises.
 SCF Done:  E(RB3LYP) =  -1473.90479894     A.U. after   17 cycles
            NFock= 17  Conv=0.18D-08     -V/T= 2.0076
 DoSCS=F DFT=T ScalE2(SS,OS)=  1.000000  1.000000
 ExpMin= 4.38D-02 ExpMax= 2.52D+04 ExpMxC= 3.78D+03 IAcc=3 IRadAn=         5 AccDes= 0.00D+00
 HarFok:  IExCor=  205 AccDes= 0.00D+00 IRadAn=         5 IDoV=-2 UseB2=F ITyADJ=14
 ICtDFT= 12500011 ScaDFX=  1.000000  1.000000  1.000000  1.000000
 GSVD:  LWork=       -1073 too small for GESVD, short by        4640 words or        4640 for optimal perf.
 Range of M.O.s used for correlation:    30   576
 NBasis=   579 NAE=    93 NBE=    93 NFC=    29 NFV=     0
 NROrb=    547 NOA=    64 NOB=    64 NVA=   483 NVB=   483

 **** Warning!!: The largest alpha MO coefficient is  0.15499113D+03

 Orbital symmetries:
       Occupied  (A) (A) (A) (A) (A) (A) (A) (A) (A) (A) (A) (A)
                 (A) (A) (A) (A) (A) (A) (A) (A) (A) (A) (A) (A)
                 (A) (A) (A) (A) (A) (A) (A) (A) (A) (A) (A) (A)
                 (A) (A) (A) (A) (A) (A) (A) (A) (A) (A) (A) (A)
                 (A) (A) (A) (A) (A) (A) (A) (A) (A) (A) (A) (A)
                 (A) (A) (A) (A) (A) (A) (A) (A) (A) (A) (A) (A)
                 (A) (A) (A) (A) (A) (A) (A) (A) (A) (A) (A) (A)
                 (A) (A) (A) (A) (A) (A) (A) (A) (A)
       Virtual   (A) (A) (A) (A) (A) (A) (A) (A) (A) (A) (A) (A)
                 (A) (A) (A) (A) (A) (A) (A) (A) (A) (A) (A) (A)
                 (A) (A) (A) (A) (A) (A) (A) (A) (A) (A) (A) (A)
                 (A) (A) (A) (A) (A) (A) (A) (A) (A) (A) (A) (A)
                 (A) (A) (A) (A) (A) (A) (A) (A) (A) (A) (A) (A)
                 (A) (A) (A) (A) (A) (A) (A) (A) (A) (A) (A) (A)
                 (A) (A) (A) (A) (A) (A) (A) (A) (A) (A) (A) (A)
                 (A) (A) (A) (A) (A) (A) (A) (A) (A) (A) (A) (A)
                 (A) (A) (A) (A) (A) (A) (A) (A) (A) (A) (A) (A)
                 (A) (A) (A) (A) (A) (A) (A) (A) (A) (A) (A) (A)
                 (A) (A) (A) (A) (A) (A) (A) (A) (A) (A) (A) (A)
                 (A) (A) (A) (A) (A) (A) (A) (A) (A) (A) (A) (A)
                 (A) (A) (A) (A) (A) (A) (A) (A) (A) (A) (A) (A)
                 (A) (A) (A) (A) (A) (A) (A) (A) (A) (A) (A) (A)
                 (A) (A) (A) (A) (A) (A) (A) (A) (A) (A) (A) (A)
                 (A) (A) (A) (A) (A) (A) (A) (A) (A) (A) (A) (A)
                 (A) (A) (A) (A) (A) (A) (A) (A) (A) (A) (A) (A)
                 (A) (A) (A) (A) (A) (A) (A) (A) (A) (A) (A) (A)
                 (A) (A) (A) (A) (A) (A) (A) (A) (A) (A) (A) (A)
                 (A) (A) (A) (A) (A) (A) (A) (A) (A) (A) (A) (A)
                 (A) (A) (A) (A) (A) (A) (A) (A) (A) (A) (A) (A)
                 (A) (A) (A) (A) (A) (A) (A) (A) (A) (A) (A) (A)
                 (A) (A) (A) (A) (A) (A) (A) (A) (A) (A) (A) (A)
                 (A) (A) (A) (A) (A) (A) (A) (A) (A) (A) (A) (A)
                 (A) (A) (A) (A) (A) (A) (A) (A) (A) (A) (A) (A)
                 (A) (A) (A) (A) (A) (A) (A) (A) (A) (A) (A) (A)
                 (A) (A) (A) (A) (A) (A) (A) (A) (A) (A) (A) (A)
                 (A) (A) (A) (A) (A) (A) (A) (A) (A) (A) (A) (A)
                 (A) (A) (A) (A) (A) (A) (A) (A) (A) (A) (A) (A)
                 (A) (A) (A) (A) (A) (A) (A) (A) (A) (A) (A) (A)
                 (A) (A) (A) (A) (A) (A) (A) (A) (A) (A) (A) (A)
                 (A) (A) (A) (A) (A) (A) (A) (A) (A) (A) (A) (A)
                 (A) (A) (A) (A) (A) (A) (A) (A) (A) (A) (A) (A)
                 (A) (A) (A) (A) (A) (A) (A) (A) (A) (A) (A) (A)
                 (A) (A) (A) (A) (A) (A) (A) (A) (A) (A) (A) (A)
                 (A) (A) (A) (A) (A) (A) (A) (A) (A) (A) (A) (A)
                 (A) (A) (A) (A) (A) (A) (A) (A) (A) (A) (A) (A)
                 (A) (A) (A) (A) (A) (A) (A) (A) (A) (A) (A) (A)
                 (A) (A) (A) (A) (A) (A) (A) (A) (A) (A) (A) (A)
                 (A) (A) (A) (A) (A) (A) (A) (A) (A) (A) (A) (A)
                 (A) (A) (A)
    24 initial guesses have been made.
 Convergence on wavefunction:    0.001000000000000
 Iteration     1 Dimension    24 NMult     0 NNew     24
 CISAX will form    24 AO SS matrices at one time.
 New state      1 was old state      4
 New state      2 was old state      6
 New state      3 was old state      2
 New state      4 was old state      1
 New state      5 was old state     12
 New state      6 was old state     16
 New state      8 was old state     20
 New state      9 was old state     11
 New state     10 was old state      5
 New state     11 was old state      8
 New state     12 was old state     10
 Vector   5 SDiff=4.46D+00 TDiff=2.32D+00 assumed to be triplet.
 Vector   6 SDiff=2.67D+00 TDiff=3.65D+00 assumed to be singlet.
 Vector  11 SDiff=4.47D+00 TDiff=2.21D+00 assumed to be triplet.
 Vector  12 SDiff=2.79D+00 TDiff=3.15D+00 assumed to be singlet.
 Iteration     2 Dimension    36 NMult    24 NNew     12
 New state      5 was old state      9
 New state      6 was old state      7
 Iteration     3 Dimension    48 NMult    36 NNew     12
 Iteration     4 Dimension    60 NMult    48 NNew     12
 Iteration     5 Dimension    72 NMult    60 NNew     12
 Iteration     6 Dimension    84 NMult    72 NNew     12
 Iteration     7 Dimension    94 NMult    84 NNew     10
 Iteration     8 Dimension    96 NMult    94 NNew      2
 ***********************************************************************
 Excited states from <AA,BB:AA,BB> singles matrix:
 ***********************************************************************
 
 Ground to excited state transition densities written to RWF  633
 Ground to excited state transition electric dipole moments (Au):
       state          X           Y           Z        Dip. S.      Osc.
         1         0.0000      0.0000      0.0000      0.0000      0.0000
         2         0.0000     -0.0000      0.0000      0.0000      0.0000
         3         0.0000     -0.0000      0.0000      0.0000      0.0000
         4        -0.4104      0.0999      0.1011      0.1886      0.0155
         5         0.3765     -0.4826      0.2580      0.4412      0.0382
         6        -1.0659      0.6423      0.3887      1.6998      0.1491
 Ground to excited state transition velocity dipole moments (Au):
       state          X           Y           Z        Dip. S.      Osc.
         1         0.0000     -0.0000      0.0000      0.0000      0.0000
         2        -0.0000      0.0000     -0.0000      0.0000      0.0000
         3        -0.0000      0.0000     -0.0000      0.0000      0.0000
         4         0.0502     -0.0123     -0.0134      0.0029      0.0155
         5        -0.0477      0.0667     -0.0330      0.0078      0.0401
         6         0.1398     -0.0838     -0.0554      0.0296      0.1502
 Ground to excited state transition magnetic dipole moments (Au):
       state          X           Y           Z
         1         0.0000     -0.0000     -0.0000
         2         0.0000      0.0000      0.0000
         3        -0.0000      0.0000     -0.0000
         4        -0.0873      0.2601     -0.1874
         5         0.6114     -0.4493     -1.2277
         6         0.2292      0.8455     -0.0542
 Ground to excited state transition velocity quadrupole moments (Au):
       state          XX          YY          ZZ          XY          XZ          YZ
         1         0.0000      0.0000      0.0000      0.0000      0.0000      0.0000
         2         0.0000     -0.0000      0.0000      0.0000     -0.0000     -0.0000
         3         0.0000     -0.0000      0.0000     -0.0000     -0.0000      0.0000
         4         0.2437      0.0437      0.0171     -0.1273     -0.1210     -0.0143
         5         0.9097     -0.1835      0.0118     -0.4158      0.1719      0.1408
         6         1.2476      0.1229      0.0761     -0.5820     -0.4961     -0.0644
 <0|del|b> * <b|rxdel|0> + <0|del|b> * <b|delr+rdel|0>
 Rotatory Strengths (R) in cgs (10**-40 erg-esu-cm/Gauss)
       state          XX          YY          ZZ    R(velocity)    E-M Angle
         1         0.0000      0.0000      0.0000      0.0000       90.00
         2         0.0000      0.0000     -0.0000      0.0000       90.00
         3         0.0000     -0.0000      0.0000      0.0000       90.00
         4        -1.3305    -12.3470    -15.4294     -9.7023      106.59
         5        34.7756    -24.8242   -111.4608    -33.8365       98.41
         6      -207.4540    -16.7133     31.5935    -64.1913      103.72
 1/2[<0|r|b>*<b|rxdel|0> + (<0|rxdel|b>*<b|r|0>)*]
 Rotatory Strengths (R) in cgs (10**-40 erg-esu-cm/Gauss)
       state          XX          YY          ZZ     R(length)
         1        -0.0000      0.0000      0.0000      0.0000
         2        -0.0000      0.0000     -0.0000      0.0000
         3         0.0000      0.0000      0.0000      0.0000
         4       -25.3262    -18.3829     13.3891    -10.1066
         5      -162.8080   -153.3412    223.9577    -30.7305
         6       172.7636   -384.0020     14.8914    -65.4490
  1/2[<0|del|b>*<b|r|0> + (<0|r|b>*<b|del|0>)*] (Au)
       state          X           Y           Z        Dip. S.   Osc.(frdel)
         1         0.0000     -0.0000      0.0000      0.0000      0.0000
         2        -0.0000     -0.0000     -0.0000      0.0000      0.0000
         3        -0.0000     -0.0000     -0.0000      0.0000      0.0000
         4        -0.0206     -0.0012     -0.0014      0.0232      0.0155
         5        -0.0180     -0.0322     -0.0085      0.0587      0.0391
         6        -0.1490     -0.0538     -0.0215      0.2244      0.1496

 Excitation energies and oscillator strengths:
 
 Excited State   1:      Triplet-A      2.6890 eV  461.09 nm  f=0.0000  <S**2>=2.000
      90 -> 95        -0.13453
      93 -> 94         0.10260
      93 -> 95         0.66481
 This state for optimization and/or second-order correction.
 Total Energy, E(TD-HF/TD-DFT) =  -1473.80598170    
 Copying the excited state density for this state as the 1-particle RhoCI density.
 
 Excited State   2:      Triplet-A      2.7838 eV  445.38 nm  f=0.0000  <S**2>=2.000
      88 -> 94         0.10327
      92 -> 94         0.68873
 
 Excited State   3:      Triplet-A      3.2739 eV  378.71 nm  f=0.0000  <S**2>=2.000
      89 -> 94         0.40420
      90 -> 94         0.33059
      91 -> 94         0.22100
      93 -> 94        -0.36643
 
 Excited State   4:      Singlet-A      3.3491 eV  370.20 nm  f=0.0155  <S**2>=0.000
      93 -> 94         0.69710
 
 Excited State   5:      Singlet-A      3.5367 eV  350.56 nm  f=0.0382  <S**2>=0.000
      89 -> 94         0.19132
      90 -> 94         0.15580
      91 -> 94         0.13967
      92 -> 94         0.63187
 
 Excited State   6:      Singlet-A      3.5802 eV  346.30 nm  f=0.1491  <S**2>=0.000
      93 -> 95         0.68412
 SavETr:  write IOETrn=   770 NScale= 10 NData=  16 NLR=1 NState=    6 LETran=     118.

 **********************************************************************

            Population analysis using the SCF Density.

 **********************************************************************

 Orbital symmetries:
       Occupied  (A) (A) (A) (A) (A) (A) (A) (A) (A) (A) (A) (A)
                 (A) (A) (A) (A) (A) (A) (A) (A) (A) (A) (A) (A)
                 (A) (A) (A) (A) (A) (A) (A) (A) (A) (A) (A) (A)
                 (A) (A) (A) (A) (A) (A) (A) (A) (A) (A) (A) (A)
                 (A) (A) (A) (A) (A) (A) (A) (A) (A) (A) (A) (A)
                 (A) (A) (A) (A) (A) (A) (A) (A) (A) (A) (A) (A)
                 (A) (A) (A) (A) (A) (A) (A) (A) (A) (A) (A) (A)
                 (A) (A) (A) (A) (A) (A) (A) (A) (A)
       Virtual   (A) (A) (A) (A) (A) (A) (A) (A) (A) (A) (A) (A)
                 (A) (A) (A) (A) (A) (A) (A) (A) (A) (A) (A) (A)
                 (A) (A) (A) (A) (A) (A) (A) (A) (A) (A) (A) (A)
                 (A) (A) (A) (A) (A) (A) (A) (A) (A) (A) (A) (A)
                 (A) (A) (A) (A) (A) (A) (A) (A) (A) (A) (A) (A)
                 (A) (A) (A) (A) (A) (A) (A) (A) (A) (A) (A) (A)
                 (A) (A) (A) (A) (A) (A) (A) (A) (A) (A) (A) (A)
                 (A) (A) (A) (A) (A) (A) (A) (A) (A) (A) (A) (A)
                 (A) (A) (A) (A) (A) (A) (A) (A) (A) (A) (A) (A)
                 (A) (A) (A) (A) (A) (A) (A) (A) (A) (A) (A) (A)
                 (A) (A) (A) (A) (A) (A) (A) (A) (A) (A) (A) (A)
                 (A) (A) (A) (A) (A) (A) (A) (A) (A) (A) (A) (A)
                 (A) (A) (A) (A) (A) (A) (A) (A) (A) (A) (A) (A)
                 (A) (A) (A) (A) (A) (A) (A) (A) (A) (A) (A) (A)
                 (A) (A) (A) (A) (A) (A) (A) (A) (A) (A) (A) (A)
                 (A) (A) (A) (A) (A) (A) (A) (A) (A) (A) (A) (A)
                 (A) (A) (A) (A) (A) (A) (A) (A) (A) (A) (A) (A)
                 (A) (A) (A) (A) (A) (A) (A) (A) (A) (A) (A) (A)
                 (A) (A) (A) (A) (A) (A) (A) (A) (A) (A) (A) (A)
                 (A) (A) (A) (A) (A) (A) (A) (A) (A) (A) (A) (A)
                 (A) (A) (A) (A) (A) (A) (A) (A) (A) (A) (A) (A)
                 (A) (A) (A) (A) (A) (A) (A) (A) (A) (A) (A) (A)
                 (A) (A) (A) (A) (A) (A) (A) (A) (A) (A) (A) (A)
                 (A) (A) (A) (A) (A) (A) (A) (A) (A) (A) (A) (A)
                 (A) (A) (A) (A) (A) (A) (A) (A) (A) (A) (A) (A)
                 (A) (A) (A) (A) (A) (A) (A) (A) (A) (A) (A) (A)
                 (A) (A) (A) (A) (A) (A) (A) (A) (A) (A) (A) (A)
                 (A) (A) (A) (A) (A) (A) (A) (A) (A) (A) (A) (A)
                 (A) (A) (A) (A) (A) (A) (A) (A) (A) (A) (A) (A)
                 (A) (A) (A) (A) (A) (A) (A) (A) (A) (A) (A) (A)
                 (A) (A) (A) (A) (A) (A) (A) (A) (A) (A) (A) (A)
                 (A) (A) (A) (A) (A) (A) (A) (A) (A) (A) (A) (A)
                 (A) (A) (A) (A) (A) (A) (A) (A) (A) (A) (A) (A)
                 (A) (A) (A) (A) (A) (A) (A) (A) (A) (A) (A) (A)
                 (A) (A) (A) (A) (A) (A) (A) (A) (A) (A) (A) (A)
                 (A) (A) (A) (A) (A) (A) (A) (A) (A) (A) (A) (A)
                 (A) (A) (A) (A) (A) (A) (A) (A) (A) (A) (A) (A)
                 (A) (A) (A) (A) (A) (A) (A) (A) (A) (A) (A) (A)
                 (A) (A) (A) (A) (A) (A) (A) (A) (A) (A) (A) (A)
                 (A) (A) (A) (A) (A) (A) (A) (A) (A) (A) (A) (A)
                 (A) (A) (A)
 The electronic state is 1-A.
 Alpha  occ. eigenvalues -- -101.56313 -19.14726 -14.37417 -14.36331 -14.32330
 Alpha  occ. eigenvalues --  -10.28211 -10.27578 -10.25956 -10.25029 -10.24448
 Alpha  occ. eigenvalues --  -10.24408 -10.23913 -10.22956 -10.22064 -10.21668
 Alpha  occ. eigenvalues --  -10.21091 -10.20766 -10.20621 -10.20559 -10.20450
 Alpha  occ. eigenvalues --  -10.20045 -10.20033 -10.19373 -10.18485 -10.18223
 Alpha  occ. eigenvalues --   -9.47825  -7.24228  -7.23270  -7.23222  -1.04423
 Alpha  occ. eigenvalues --   -0.97630  -0.96994  -0.91846  -0.90051  -0.85295
 Alpha  occ. eigenvalues --   -0.84427  -0.81579  -0.78425  -0.76706  -0.75817
 Alpha  occ. eigenvalues --   -0.74770  -0.74571  -0.71242  -0.69659  -0.68128
 Alpha  occ. eigenvalues --   -0.64278  -0.63643  -0.61226  -0.60499  -0.59688
 Alpha  occ. eigenvalues --   -0.57408  -0.55240  -0.53824  -0.52421  -0.50820
 Alpha  occ. eigenvalues --   -0.50522  -0.49007  -0.48626  -0.47727  -0.46972
 Alpha  occ. eigenvalues --   -0.46596  -0.45993  -0.45324  -0.45025  -0.44232
 Alpha  occ. eigenvalues --   -0.43975  -0.43114  -0.42421  -0.41995  -0.40945
 Alpha  occ. eigenvalues --   -0.40499  -0.40060  -0.39690  -0.38578  -0.38496
 Alpha  occ. eigenvalues --   -0.37800  -0.37737  -0.37606  -0.36601  -0.35974
 Alpha  occ. eigenvalues --   -0.35834  -0.35104  -0.33443  -0.32470  -0.32218
 Alpha  occ. eigenvalues --   -0.31136  -0.30430  -0.26627  -0.26240  -0.25553
 Alpha  occ. eigenvalues --   -0.23935  -0.22632  -0.21075
 Alpha virt. eigenvalues --   -0.07267  -0.05778  -0.01857  -0.00859  -0.00678
 Alpha virt. eigenvalues --   -0.00387   0.00498   0.00854   0.01139   0.01455
 Alpha virt. eigenvalues --    0.01725   0.02296   0.02874   0.03056   0.03285
 Alpha virt. eigenvalues --    0.03390   0.03826   0.04283   0.04720   0.04914
 Alpha virt. eigenvalues --    0.05227   0.05582   0.06293   0.06457   0.06881
 Alpha virt. eigenvalues --    0.07281   0.07581   0.07836   0.07879   0.08487
 Alpha virt. eigenvalues --    0.08731   0.08963   0.09581   0.10268   0.10316
 Alpha virt. eigenvalues --    0.10545   0.10938   0.11179   0.11723   0.11826
 Alpha virt. eigenvalues --    0.11873   0.12512   0.12905   0.13055   0.13198
 Alpha virt. eigenvalues --    0.13650   0.13940   0.14375   0.14746   0.15002
 Alpha virt. eigenvalues --    0.15145   0.15302   0.15401   0.15632   0.15943
 Alpha virt. eigenvalues --    0.16233   0.16528   0.16676   0.16920   0.17359
 Alpha virt. eigenvalues --    0.17470   0.17769   0.18215   0.18440   0.18663
 Alpha virt. eigenvalues --    0.19105   0.19403   0.19509   0.19670   0.19836
 Alpha virt. eigenvalues --    0.20017   0.20268   0.20643   0.21039   0.21079
 Alpha virt. eigenvalues --    0.21203   0.21445   0.21591   0.22037   0.22152
 Alpha virt. eigenvalues --    0.22588   0.22656   0.22947   0.23238   0.23547
 Alpha virt. eigenvalues --    0.24002   0.24140   0.24229   0.24442   0.24750
 Alpha virt. eigenvalues --    0.24787   0.25059   0.25694   0.25811   0.26170
 Alpha virt. eigenvalues --    0.26467   0.26529   0.26722   0.26930   0.27348
 Alpha virt. eigenvalues --    0.27668   0.27879   0.28051   0.28276   0.28655
 Alpha virt. eigenvalues --    0.29069   0.29399   0.29839   0.30260   0.30522
 Alpha virt. eigenvalues --    0.30840   0.31134   0.31399   0.31576   0.31820
 Alpha virt. eigenvalues --    0.32260   0.32552   0.32823   0.33624   0.34047
 Alpha virt. eigenvalues --    0.34205   0.34478   0.35214   0.35725   0.36475
 Alpha virt. eigenvalues --    0.36830   0.37086   0.37221   0.37862   0.38373
 Alpha virt. eigenvalues --    0.38693   0.38812   0.39440   0.40089   0.41034
 Alpha virt. eigenvalues --    0.41978   0.42545   0.42773   0.42986   0.44025
 Alpha virt. eigenvalues --    0.44117   0.44863   0.44976   0.45657   0.46436
 Alpha virt. eigenvalues --    0.48309   0.50439   0.50919   0.53379   0.54741
 Alpha virt. eigenvalues --    0.56823   0.58957   0.61535   0.61893   0.62282
 Alpha virt. eigenvalues --    0.63404   0.65517   0.66545   0.67044   0.67374
 Alpha virt. eigenvalues --    0.67478   0.68393   0.69046   0.69175   0.69905
 Alpha virt. eigenvalues --    0.70921   0.71302   0.71878   0.72821   0.72888
 Alpha virt. eigenvalues --    0.73023   0.73721   0.74032   0.74918   0.75306
 Alpha virt. eigenvalues --    0.75505   0.76471   0.76540   0.77118   0.77441
 Alpha virt. eigenvalues --    0.78506   0.79096   0.79607   0.80083   0.80458
 Alpha virt. eigenvalues --    0.81537   0.81825   0.82899   0.83159   0.83509
 Alpha virt. eigenvalues --    0.84370   0.84850   0.85050   0.86557   0.86613
 Alpha virt. eigenvalues --    0.86958   0.87795   0.88395   0.88624   0.89935
 Alpha virt. eigenvalues --    0.90538   0.90951   0.91534   0.91889   0.92537
 Alpha virt. eigenvalues --    0.92736   0.93472   0.94203   0.94339   0.95392
 Alpha virt. eigenvalues --    0.96016   0.96279   0.97746   0.98489   0.99251
 Alpha virt. eigenvalues --    0.99953   1.00352   1.01438   1.02581   1.03020
 Alpha virt. eigenvalues --    1.03325   1.04787   1.05239   1.06450   1.07637
 Alpha virt. eigenvalues --    1.08616   1.09365   1.09982   1.10209   1.10386
 Alpha virt. eigenvalues --    1.11380   1.11853   1.12397   1.12974   1.13428
 Alpha virt. eigenvalues --    1.13726   1.15136   1.15329   1.15696   1.16317
 Alpha virt. eigenvalues --    1.17679   1.18428   1.19320   1.19727   1.21103
 Alpha virt. eigenvalues --    1.21336   1.22001   1.23396   1.23947   1.24413
 Alpha virt. eigenvalues --    1.25680   1.26946   1.27395   1.28765   1.29293
 Alpha virt. eigenvalues --    1.29374   1.30122   1.31398   1.32366   1.33348
 Alpha virt. eigenvalues --    1.34964   1.35771   1.35980   1.36600   1.37302
 Alpha virt. eigenvalues --    1.37411   1.38272   1.39070   1.39340   1.40065
 Alpha virt. eigenvalues --    1.40801   1.41042   1.41991   1.42672   1.43515
 Alpha virt. eigenvalues --    1.45588   1.45671   1.48789   1.49174   1.50298
 Alpha virt. eigenvalues --    1.51458   1.53262   1.54562   1.55093   1.56733
 Alpha virt. eigenvalues --    1.60869   1.62662   1.64916   1.66123   1.67498
 Alpha virt. eigenvalues --    1.68735   1.71219   1.72473   1.72908   1.75593
 Alpha virt. eigenvalues --    1.76617   1.77374   1.78540   1.78658   1.80094
 Alpha virt. eigenvalues --    1.81434   1.82780   1.84078   1.84756   1.85069
 Alpha virt. eigenvalues --    1.85963   1.86654   1.86829   1.88828   1.89039
 Alpha virt. eigenvalues --    1.90077   1.90549   1.91099   1.91246   1.92459
 Alpha virt. eigenvalues --    1.92961   1.94139   1.94251   1.94760   1.95724
 Alpha virt. eigenvalues --    1.96157   1.96906   1.97638   1.99888   2.00039
 Alpha virt. eigenvalues --    2.01760   2.02218   2.02759   2.03411   2.04281
 Alpha virt. eigenvalues --    2.04558   2.05526   2.06373   2.06525   2.06824
 Alpha virt. eigenvalues --    2.07147   2.08561   2.08935   2.11320   2.12003
 Alpha virt. eigenvalues --    2.12155   2.12671   2.14261   2.14996   2.16014
 Alpha virt. eigenvalues --    2.17332   2.18156   2.19226   2.19922   2.20999
 Alpha virt. eigenvalues --    2.23359   2.24174   2.25504   2.26146   2.27122
 Alpha virt. eigenvalues --    2.27714   2.28101   2.29135   2.29934   2.30769
 Alpha virt. eigenvalues --    2.32207   2.34330   2.36611   2.36799   2.38745
 Alpha virt. eigenvalues --    2.39023   2.39310   2.41350   2.42085   2.43227
 Alpha virt. eigenvalues --    2.43826   2.44348   2.46498   2.47044   2.48009
 Alpha virt. eigenvalues --    2.48406   2.49072   2.50358   2.50766   2.52460
 Alpha virt. eigenvalues --    2.52969   2.53415   2.54108   2.55458   2.55962
 Alpha virt. eigenvalues --    2.56983   2.57530   2.58746   2.60244   2.60938
 Alpha virt. eigenvalues --    2.62222   2.63693   2.64176   2.65144   2.65658
 Alpha virt. eigenvalues --    2.66742   2.67921   2.68479   2.69122   2.70107
 Alpha virt. eigenvalues --    2.70720   2.72208   2.73765   2.74658   2.76034
 Alpha virt. eigenvalues --    2.76169   2.76348   2.77795   2.78498   2.78979
 Alpha virt. eigenvalues --    2.80399   2.80843   2.81293   2.82767   2.84024
 Alpha virt. eigenvalues --    2.86422   2.87259   2.88193   2.89288   2.89855
 Alpha virt. eigenvalues --    2.91395   2.94867   2.95058   2.95970   2.96527
 Alpha virt. eigenvalues --    2.99205   3.01173   3.03438   3.06398   3.09325
 Alpha virt. eigenvalues --    3.09918   3.16218   3.19984   3.22075   3.25139
 Alpha virt. eigenvalues --    3.26627   3.27714   3.29975   3.30558   3.31305
 Alpha virt. eigenvalues --    3.34095   3.34672   3.36158   3.38966   3.41158
 Alpha virt. eigenvalues --    3.43782   3.45239   3.46518   3.47838   3.49110
 Alpha virt. eigenvalues --    3.49915   3.51935   3.53752   3.54456   3.54599
 Alpha virt. eigenvalues --    3.60220   3.74756   3.85696   4.26135   4.29440
 Alpha virt. eigenvalues --    4.30787   4.31971   4.33189   4.35199   4.37122
 Alpha virt. eigenvalues --    4.37744   4.39560   4.41284   4.42413   4.44983
 Alpha virt. eigenvalues --    4.50418   4.50969   4.52293   4.53674   4.56689
 Alpha virt. eigenvalues --    4.58882   4.65577   4.70629   4.71446   4.82022
 Alpha virt. eigenvalues --    4.83061   4.90428   4.95763
          Condensed to atoms (all electrons):
               1          2          3          4          5          6
     1  C    8.224716  -2.210798  -0.927059   0.532835  -0.797655   0.221418
     2  C   -2.210798  18.024412  -1.610359  -6.400969   2.130767  -0.174392
     3  C   -0.927059  -1.610359   6.757717   0.723680   0.143082  -0.075823
     4  C    0.532835  -6.400969   0.723680  15.733231  -8.563265   0.909361
     5  C   -0.797655   2.130767   0.143082  -8.563265  21.362511  -1.847109
     6  N    0.221418  -0.174392  -0.075823   0.909361  -1.847109   7.431064
     7  C   -0.154645   0.209042   0.064276  -2.676857   7.001660  -1.256162
     8  C   -0.081325   0.080559   0.032198  -0.487837   1.492400  -0.121930
     9  C   -0.013103   0.018447   0.000315  -0.131062  -0.073619  -0.062612
    10  Cl   0.000033   0.000114  -0.000073  -0.000784  -0.016606   0.001634
    11  C   -0.007832  -0.009647   0.004334  -0.052634   0.539496  -0.107174
    12  C   -0.002281   0.091335  -0.029596   0.817844  -5.210683   0.546811
    13  C    0.085276   0.094666  -0.115449   1.812196  -4.713071   1.039826
    14  C    0.087860  -0.208971  -0.102321   1.497256  -4.125870   0.309125
    15  O    0.001250  -0.029396   0.000808   0.050010  -0.151695   0.028073
    16  N   -0.111115  -0.581395   0.162652   0.466171  -0.091180   0.003109
    17  C   -0.074266  -2.093523   0.240342   1.167683  -0.581747   0.006098
    18  C   -0.081044  -0.485828  -0.015379   0.157726  -0.021042  -0.002171
    19  N    0.012208  -0.056890  -0.006360   0.008421   0.004749   0.000087
    20  C   -0.073820  -0.210110  -0.032148   0.002189  -0.059771  -0.001386
    21  C    0.032409  -0.314738   0.081213   0.150875  -0.041352   0.001127
    22  C   -0.008250   0.040399  -0.023007  -0.057476   0.011040  -0.000418
    23  C   -0.056537   0.380495  -0.174816  -0.270996   0.011274  -0.004378
    24  C   -0.251855   0.398366   0.011639  -0.165721  -0.006651  -0.020512
    25  C    0.428206   0.200106  -0.065021   0.101692   0.150626   0.027775
    26  H    0.525445  -0.246035  -0.011002   0.114995  -0.069967   0.010019
    27  H    0.386454   0.007860  -0.016932  -0.043825   0.003610   0.002873
    28  H    0.489013  -0.070409  -0.011397  -0.043494   0.022854  -0.003042
    29  H    0.035555  -0.124052   0.485130   0.012905  -0.000397   0.000772
    30  H   -0.028075  -0.070156   0.439266   0.034518  -0.028973   0.000204
    31  H   -0.055658  -0.200199   0.489994   0.065364  -0.012849  -0.000514
    32  H   -0.038317  -0.081714   0.023326   0.444144  -0.145350   0.008126
    33  H    0.026262  -0.082263  -0.027172   0.441432  -0.110110   0.017776
    34  H    0.007505  -0.004004  -0.029949   0.087719  -0.025051   0.013375
    35  H    0.027567  -0.049412  -0.000260  -0.028150  -0.009538   0.316979
    36  H   -0.000412   0.000854  -0.000041  -0.001228  -0.003577  -0.014230
    37  H    0.000001  -0.000005  -0.000000  -0.000059   0.001726   0.000275
    38  H   -0.000014  -0.000071   0.000020  -0.002000   0.016657  -0.002795
    39  H    0.007895  -0.016681  -0.001890  -0.004281  -0.000031   0.000000
    40  H   -0.002497   0.002276   0.002504   0.005467   0.000294   0.000002
    41  H    0.000265   0.000932   0.000277  -0.000831  -0.000118   0.000000
    42  H    0.000012   0.000297  -0.000009  -0.000075   0.000019   0.000000
    43  H    0.000005   0.000069   0.000033   0.000074  -0.000068  -0.000000
    44  H    0.000129   0.004610  -0.001648  -0.002467   0.000645   0.000000
    45  H    0.002133   0.049403   0.001675  -0.064939   0.013830   0.000367
               7          8          9         10         11         12
     1  C   -0.154645  -0.081325  -0.013103   0.000033  -0.007832  -0.002281
     2  C    0.209042   0.080559   0.018447   0.000114  -0.009647   0.091335
     3  C    0.064276   0.032198   0.000315  -0.000073   0.004334  -0.029596
     4  C   -2.676857  -0.487837  -0.131062  -0.000784  -0.052634   0.817844
     5  C    7.001660   1.492400  -0.073619  -0.016606   0.539496  -5.210683
     6  N   -1.256162  -0.121930  -0.062612   0.001634  -0.107174   0.546811
     7  C   21.451499  -2.050830  -0.289955  -0.029994   2.104988  -9.132456
     8  C   -2.050830  10.040236   0.285255   0.046036  -2.092410   0.654632
     9  C   -0.289955   0.285255   7.161427  -0.139327  -0.156314   1.972925
    10  Cl  -0.029994   0.046036  -0.139327  17.015499  -0.181444   0.139096
    11  C    2.104988  -2.092410  -0.156314  -0.181444   8.460741  -2.171171
    12  C   -9.132456   0.654632   1.972925   0.139096  -2.171171  22.344402
    13  C   -4.385738  -0.231106  -2.825871  -0.069195  -0.253383  -7.386131
    14  C   -2.843099  -1.587047   0.151361  -0.016775   0.010130   2.769392
    15  O   -0.033657   0.009546   0.000466   0.000010  -0.016044  -0.011226
    16  N   -0.007519  -0.003164  -0.000573  -0.000004   0.000106  -0.004413
    17  C    0.045997   0.022580  -0.003841  -0.000024   0.001100  -0.054507
    18  C    0.009108   0.002115   0.000264   0.000000  -0.000193   0.000210
    19  N    0.000283  -0.000002   0.000004  -0.000000  -0.000010  -0.000116
    20  C    0.011629   0.001433  -0.000191  -0.000001   0.000220  -0.003429
    21  C   -0.001810  -0.000320  -0.000083  -0.000001  -0.000079  -0.002771
    22  C    0.002531   0.000230   0.000025   0.000000   0.000203  -0.000238
    23  C    0.018308  -0.000047   0.000703   0.000005   0.002041   0.006176
    24  C    0.041673   0.010104   0.000031   0.000009   0.001999  -0.014670
    25  C   -0.100171  -0.025977   0.000925  -0.000006  -0.004291   0.043180
    26  H   -0.009725  -0.005410  -0.000989   0.000003   0.000009   0.001962
    27  H    0.003957   0.000434  -0.001003   0.000005  -0.000021   0.000197
    28  H    0.002321   0.000868   0.000105  -0.000000  -0.000009  -0.000184
    29  H   -0.000261   0.000052   0.000012  -0.000000  -0.000018  -0.000042
    30  H   -0.004094   0.000468  -0.000008  -0.000000  -0.000007   0.000376
    31  H    0.000577   0.000192   0.000002  -0.000000   0.000008  -0.000234
    32  H   -0.068010  -0.027865  -0.003121  -0.000002  -0.000455   0.033335
    33  H    0.026707  -0.000950   0.000568   0.000002  -0.000205  -0.005799
    34  H   -0.173773  -0.040222  -0.001191   0.000009  -0.001170   0.076814
    35  H   -0.021668  -0.055586   0.005558  -0.000052  -0.001120   0.015410
    36  H    0.040176   0.172026   0.059778  -0.006630   0.061952  -0.038263
    37  H   -0.027885   0.078185   0.064613  -0.004974   0.237775  -0.037589
    38  H    0.062677  -0.010090  -0.014332   0.001062  -0.091076   0.254813
    39  H    0.000025   0.000014   0.000000   0.000000  -0.000000  -0.000014
    40  H   -0.000006  -0.000003   0.000000  -0.000000  -0.000000   0.000002
    41  H   -0.000003  -0.000000  -0.000000   0.000000   0.000000   0.000000
    42  H   -0.000000  -0.000000   0.000000  -0.000000   0.000000   0.000000
    43  H   -0.000001  -0.000000  -0.000000  -0.000000   0.000000   0.000001
    44  H    0.000004   0.000002   0.000000   0.000000  -0.000002   0.000004
    45  H    0.000172  -0.000155   0.000024   0.000000  -0.000023   0.000531
              13         14         15         16         17         18
     1  C    0.085276   0.087860   0.001250  -0.111115  -0.074266  -0.081044
     2  C    0.094666  -0.208971  -0.029396  -0.581395  -2.093523  -0.485828
     3  C   -0.115449  -0.102321   0.000808   0.162652   0.240342  -0.015379
     4  C    1.812196   1.497256   0.050010   0.466171   1.167683   0.157726
     5  C   -4.713071  -4.125870  -0.151695  -0.091180  -0.581747  -0.021042
     6  N    1.039826   0.309125   0.028073   0.003109   0.006098  -0.002171
     7  C   -4.385738  -2.843099  -0.033657  -0.007519   0.045997   0.009108
     8  C   -0.231106  -1.587047   0.009546  -0.003164   0.022580   0.002115
     9  C   -2.825871   0.151361   0.000466  -0.000573  -0.003841   0.000264
    10  Cl  -0.069195  -0.016775   0.000010  -0.000004  -0.000024   0.000000
    11  C   -0.253383   0.010130  -0.016044   0.000106   0.001100  -0.000193
    12  C   -7.386131   2.769392  -0.011226  -0.004413  -0.054507   0.000210
    13  C   22.508284  -0.830095  -0.111561  -0.017084  -0.007382  -0.002748
    14  C   -0.830095   9.781230   0.367827  -0.001643  -0.108352  -0.014849
    15  O   -0.111561   0.367827   8.330403  -0.000024   0.025196   0.000482
    16  N   -0.017084  -0.001643  -0.000024   6.891881   0.256919  -0.143957
    17  C   -0.007382  -0.108352   0.025196   0.256919  11.437381  -0.096176
    18  C   -0.002748  -0.014849   0.000482  -0.143957  -0.096176   7.202128
    19  N   -0.000405  -0.001504   0.000008  -0.022209  -0.224720   0.193165
    20  C    0.003320   0.013118   0.001878   0.132336   0.533221   0.748259
    21  C   -0.010014  -0.002616   0.000406   0.086411  -0.957127   0.057636
    22  C    0.006742  -0.000868  -0.001019  -0.012052   0.161603   0.014692
    23  C    0.044783   0.066034  -0.020592  -0.013547  -0.518862   0.020479
    24  C    0.012565  -0.004405   0.030713  -0.124391   1.613540   0.032852
    25  C   -0.058625   0.026859  -0.021437   0.034823  -4.456050  -1.720940
    26  H    0.012061   0.015236  -0.000014   0.005892   0.006205  -0.002049
    27  H    0.004750  -0.013061   0.000030   0.003318   0.000970   0.000208
    28  H   -0.002279  -0.002404   0.000004  -0.015458  -0.005060  -0.005897
    29  H   -0.000849  -0.007255   0.000249  -0.008362  -0.006235   0.001393
    30  H    0.006059  -0.001813   0.000236   0.008886  -0.009054  -0.002014
    31  H   -0.002343   0.000016  -0.000010   0.020863   0.031965   0.003890
    32  H    0.063501   0.086298  -0.000355   0.014302  -0.020744  -0.003774
    33  H   -0.002687   0.038795   0.003413  -0.010770   0.010471   0.004366
    34  H    0.188293   0.164477   0.000808  -0.000904  -0.005778  -0.000212
    35  H    0.033159   0.051546  -0.000457   0.000680  -0.003426  -0.000120
    36  H    0.015498   0.019865   0.000006  -0.000002   0.000019   0.000001
    37  H    0.012130  -0.006176   0.000069   0.000000  -0.000001  -0.000000
    38  H    0.086838   0.003486   0.002584  -0.000001   0.000008   0.000001
    39  H   -0.000074  -0.000171   0.000000  -0.015599  -0.062080   0.464407
    40  H    0.000013  -0.000002  -0.000000   0.007133  -0.139948   0.433924
    41  H    0.000000   0.000006  -0.000000  -0.001326   0.096641  -0.121083
    42  H    0.000000  -0.000001   0.000000   0.000086   0.011396   0.000120
    43  H   -0.000002  -0.000010  -0.000000  -0.000026   0.000721   0.000554
    44  H    0.000060  -0.000110   0.000035  -0.000005  -0.004593  -0.000880
    45  H    0.000068   0.012433   0.000450   0.010981  -0.143807   0.000328
              19         20         21         22         23         24
     1  C    0.012208  -0.073820   0.032409  -0.008250  -0.056537  -0.251855
     2  C   -0.056890  -0.210110  -0.314738   0.040399   0.380495   0.398366
     3  C   -0.006360  -0.032148   0.081213  -0.023007  -0.174816   0.011639
     4  C    0.008421   0.002189   0.150875  -0.057476  -0.270996  -0.165721
     5  C    0.004749  -0.059771  -0.041352   0.011040   0.011274  -0.006651
     6  N    0.000087  -0.001386   0.001127  -0.000418  -0.004378  -0.020512
     7  C    0.000283   0.011629  -0.001810   0.002531   0.018308   0.041673
     8  C   -0.000002   0.001433  -0.000320   0.000230  -0.000047   0.010104
     9  C    0.000004  -0.000191  -0.000083   0.000025   0.000703   0.000031
    10  Cl  -0.000000  -0.000001  -0.000001   0.000000   0.000005   0.000009
    11  C   -0.000010   0.000220  -0.000079   0.000203   0.002041   0.001999
    12  C   -0.000116  -0.003429  -0.002771  -0.000238   0.006176  -0.014670
    13  C   -0.000405   0.003320  -0.010014   0.006742   0.044783   0.012565
    14  C   -0.001504   0.013118  -0.002616  -0.000868   0.066034  -0.004405
    15  O    0.000008   0.001878   0.000406  -0.001019  -0.020592   0.030713
    16  N   -0.022209   0.132336   0.086411  -0.012052  -0.013547  -0.124391
    17  C   -0.224720   0.533221  -0.957127   0.161603  -0.518862   1.613540
    18  C    0.193165   0.748259   0.057636   0.014692   0.020479   0.032852
    19  N    7.188745   0.148139  -0.011220   0.018881  -0.063323  -0.040900
    20  C    0.148139  11.753527  -2.984849  -0.014719   2.000584  -0.356705
    21  C   -0.011220  -2.984849  10.700838   0.851712  -2.296229   1.669962
    22  C    0.018881  -0.014719   0.851712   5.847154   1.153912  -0.464360
    23  C   -0.063323   2.000584  -2.296229   1.153912   9.795523  -2.826822
    24  C   -0.040900  -0.356705   1.669962  -0.464360  -2.826822  11.520534
    25  C   -0.013183  -4.912085  -0.899390  -1.540551  -1.222408  -4.604488
    26  H   -0.000052   0.001331   0.000064   0.000017   0.000330   0.003389
    27  H   -0.000007   0.000343  -0.000018   0.000014   0.000205   0.002154
    28  H    0.000064  -0.000093  -0.000007   0.000024   0.000186   0.001064
    29  H    0.000100  -0.021693   0.007617  -0.005234  -0.046182  -0.063161
    30  H   -0.000017  -0.002539  -0.000498  -0.000026   0.002896   0.008712
    31  H    0.000056   0.005058   0.000295   0.000269   0.003685   0.005575
    32  H   -0.000050   0.000749  -0.000928   0.000496   0.005655   0.010212
    33  H    0.000843  -0.026330   0.001371  -0.008175  -0.030472  -0.065696
    34  H    0.000000  -0.000339  -0.000051  -0.000010   0.000735  -0.001078
    35  H    0.000000  -0.000036   0.000006  -0.000002   0.000026  -0.000091
    36  H    0.000000  -0.000000   0.000000  -0.000000  -0.000000  -0.000005
    37  H   -0.000000   0.000000   0.000000  -0.000000  -0.000000  -0.000000
    38  H    0.000000  -0.000003   0.000001  -0.000003  -0.000036  -0.000040
    39  H   -0.037543   0.011224   0.000555   0.000573  -0.002379  -0.012680
    40  H   -0.067938  -0.025340   0.021538  -0.000935   0.001314  -0.027610
    41  H    0.324740  -0.042395  -0.096637  -0.006306  -0.000998  -0.009863
    42  H   -0.013104   0.068422   0.190889  -0.020798   0.021841  -0.036771
    43  H   -0.000529  -0.016231   0.000539   0.244290   0.010776   0.064940
    44  H    0.000235  -0.017152   0.016586  -0.015167   0.323846  -0.016560
    45  H   -0.001519  -0.013719  -0.004318   0.000725   0.025541   0.178578
              25         26         27         28         29         30
     1  C    0.428206   0.525445   0.386454   0.489013   0.035555  -0.028075
     2  C    0.200106  -0.246035   0.007860  -0.070409  -0.124052  -0.070156
     3  C   -0.065021  -0.011002  -0.016932  -0.011397   0.485130   0.439266
     4  C    0.101692   0.114995  -0.043825  -0.043494   0.012905   0.034518
     5  C    0.150626  -0.069967   0.003610   0.022854  -0.000397  -0.028973
     6  N    0.027775   0.010019   0.002873  -0.003042   0.000772   0.000204
     7  C   -0.100171  -0.009725   0.003957   0.002321  -0.000261  -0.004094
     8  C   -0.025977  -0.005410   0.000434   0.000868   0.000052   0.000468
     9  C    0.000925  -0.000989  -0.001003   0.000105   0.000012  -0.000008
    10  Cl  -0.000006   0.000003   0.000005  -0.000000  -0.000000  -0.000000
    11  C   -0.004291   0.000009  -0.000021  -0.000009  -0.000018  -0.000007
    12  C    0.043180   0.001962   0.000197  -0.000184  -0.000042   0.000376
    13  C   -0.058625   0.012061   0.004750  -0.002279  -0.000849   0.006059
    14  C    0.026859   0.015236  -0.013061  -0.002404  -0.007255  -0.001813
    15  O   -0.021437  -0.000014   0.000030   0.000004   0.000249   0.000236
    16  N    0.034823   0.005892   0.003318  -0.015458  -0.008362   0.008886
    17  C   -4.456050   0.006205   0.000970  -0.005060  -0.006235  -0.009054
    18  C   -1.720940  -0.002049   0.000208  -0.005897   0.001393  -0.002014
    19  N   -0.013183  -0.000052  -0.000007   0.000064   0.000100  -0.000017
    20  C   -4.912085   0.001331   0.000343  -0.000093  -0.021693  -0.002539
    21  C   -0.899390   0.000064  -0.000018  -0.000007   0.007617  -0.000498
    22  C   -1.540551   0.000017   0.000014   0.000024  -0.005234  -0.000026
    23  C   -1.222408   0.000330   0.000205   0.000186  -0.046182   0.002896
    24  C   -4.604488   0.003389   0.002154   0.001064  -0.063161   0.008712
    25  C   21.861510  -0.002414  -0.002087   0.000569   0.081308  -0.007211
    26  H   -0.002414   0.561720  -0.034879  -0.023421  -0.000174   0.000079
    27  H   -0.002087  -0.034879   0.580184  -0.027583   0.000075   0.001298
    28  H    0.000569  -0.023421  -0.027583   0.528133   0.000030  -0.000002
    29  H    0.081308  -0.000174   0.000075   0.000030   0.568860  -0.029814
    30  H   -0.007211   0.000079   0.001298  -0.000002  -0.029814   0.566273
    31  H   -0.002909   0.000095   0.000010   0.002855  -0.026865  -0.028657
    32  H    0.009960   0.002641   0.000435   0.000065  -0.000038  -0.000009
    33  H    0.099613   0.000022  -0.000123  -0.000136   0.001302   0.000177
    34  H    0.003913   0.000240   0.000020  -0.000011  -0.000240   0.003486
    35  H    0.001102   0.001570   0.001322  -0.000045  -0.000003  -0.000000
    36  H    0.000003   0.000000   0.000001  -0.000000   0.000000  -0.000000
    37  H    0.000001  -0.000000   0.000000   0.000000  -0.000000  -0.000000
    38  H    0.000067  -0.000000   0.000000   0.000000   0.000000  -0.000000
    39  H   -0.000138  -0.000009  -0.000000   0.000004  -0.000002   0.000000
    40  H    0.107281   0.000003  -0.000000  -0.000016   0.000017  -0.000001
    41  H    0.132148  -0.000000   0.000000   0.000000  -0.000000   0.000000
    42  H    0.078956   0.000000  -0.000000   0.000000   0.000000   0.000000
    43  H    0.004401  -0.000000   0.000000  -0.000000   0.000000  -0.000000
    44  H    0.028412   0.000000  -0.000000   0.000000  -0.000010   0.000000
    45  H    0.206357  -0.000001  -0.000002   0.000000   0.005871   0.000083
              31         32         33         34         35         36
     1  C   -0.055658  -0.038317   0.026262   0.007505   0.027567  -0.000412
     2  C   -0.200199  -0.081714  -0.082263  -0.004004  -0.049412   0.000854
     3  C    0.489994   0.023326  -0.027172  -0.029949  -0.000260  -0.000041
     4  C    0.065364   0.444144   0.441432   0.087719  -0.028150  -0.001228
     5  C   -0.012849  -0.145350  -0.110110  -0.025051  -0.009538  -0.003577
     6  N   -0.000514   0.008126   0.017776   0.013375   0.316979  -0.014230
     7  C    0.000577  -0.068010   0.026707  -0.173773  -0.021668   0.040176
     8  C    0.000192  -0.027865  -0.000950  -0.040222  -0.055586   0.172026
     9  C    0.000002  -0.003121   0.000568  -0.001191   0.005558   0.059778
    10  Cl  -0.000000  -0.000002   0.000002   0.000009  -0.000052  -0.006630
    11  C    0.000008  -0.000455  -0.000205  -0.001170  -0.001120   0.061952
    12  C   -0.000234   0.033335  -0.005799   0.076814   0.015410  -0.038263
    13  C   -0.002343   0.063501  -0.002687   0.188293   0.033159   0.015498
    14  C    0.000016   0.086298   0.038795   0.164477   0.051546   0.019865
    15  O   -0.000010  -0.000355   0.003413   0.000808  -0.000457   0.000006
    16  N    0.020863   0.014302  -0.010770  -0.000904   0.000680  -0.000002
    17  C    0.031965  -0.020744   0.010471  -0.005778  -0.003426   0.000019
    18  C    0.003890  -0.003774   0.004366  -0.000212  -0.000120   0.000001
    19  N    0.000056  -0.000050   0.000843   0.000000   0.000000   0.000000
    20  C    0.005058   0.000749  -0.026330  -0.000339  -0.000036  -0.000000
    21  C    0.000295  -0.000928   0.001371  -0.000051   0.000006   0.000000
    22  C    0.000269   0.000496  -0.008175  -0.000010  -0.000002  -0.000000
    23  C    0.003685   0.005655  -0.030472   0.000735   0.000026  -0.000000
    24  C    0.005575   0.010212  -0.065696  -0.001078  -0.000091  -0.000005
    25  C   -0.002909   0.009960   0.099613   0.003913   0.001102   0.000003
    26  H    0.000095   0.002641   0.000022   0.000240   0.001570   0.000000
    27  H    0.000010   0.000435  -0.000123   0.000020   0.001322   0.000001
    28  H    0.002855   0.000065  -0.000136  -0.000011  -0.000045  -0.000000
    29  H   -0.026865  -0.000038   0.001302  -0.000240  -0.000003   0.000000
    30  H   -0.028657  -0.000009   0.000177   0.003486  -0.000000  -0.000000
    31  H    0.546864  -0.000115   0.000070  -0.000112   0.000003  -0.000000
    32  H   -0.000115   0.551378  -0.028800   0.004260   0.000298   0.000003
    33  H    0.000070  -0.028800   0.558852   0.001101   0.000008   0.000000
    34  H   -0.000112   0.004260   0.001101   0.571875   0.000905  -0.000001
    35  H    0.000003   0.000298   0.000008   0.000905   0.414342   0.002323
    36  H   -0.000000   0.000003   0.000000  -0.000001   0.002323   0.552624
    37  H   -0.000000  -0.000000  -0.000000  -0.000000  -0.000000  -0.000143
    38  H    0.000000  -0.000000  -0.000000  -0.000005   0.000004   0.000015
    39  H   -0.000000  -0.000019   0.000005  -0.000000   0.000000  -0.000000
    40  H    0.000000   0.000001  -0.000001   0.000000  -0.000000   0.000000
    41  H   -0.000000  -0.000000   0.000000   0.000000   0.000000  -0.000000
    42  H   -0.000000  -0.000000   0.000000   0.000000  -0.000000   0.000000
    43  H   -0.000000  -0.000000  -0.000000  -0.000000   0.000000  -0.000000
    44  H   -0.000000  -0.000000   0.000001   0.000000  -0.000000  -0.000000
    45  H    0.000069   0.000093   0.007098   0.000024  -0.000000  -0.000000
              37         38         39         40         41         42
     1  C    0.000001  -0.000014   0.007895  -0.002497   0.000265   0.000012
     2  C   -0.000005  -0.000071  -0.016681   0.002276   0.000932   0.000297
     3  C   -0.000000   0.000020  -0.001890   0.002504   0.000277  -0.000009
     4  C   -0.000059  -0.002000  -0.004281   0.005467  -0.000831  -0.000075
     5  C    0.001726   0.016657  -0.000031   0.000294  -0.000118   0.000019
     6  N    0.000275  -0.002795   0.000000   0.000002   0.000000   0.000000
     7  C   -0.027885   0.062677   0.000025  -0.000006  -0.000003  -0.000000
     8  C    0.078185  -0.010090   0.000014  -0.000003  -0.000000  -0.000000
     9  C    0.064613  -0.014332   0.000000   0.000000  -0.000000   0.000000
    10  Cl  -0.004974   0.001062   0.000000  -0.000000   0.000000  -0.000000
    11  C    0.237775  -0.091076  -0.000000  -0.000000   0.000000   0.000000
    12  C   -0.037589   0.254813  -0.000014   0.000002   0.000000   0.000000
    13  C    0.012130   0.086838  -0.000074   0.000013   0.000000   0.000000
    14  C   -0.006176   0.003486  -0.000171  -0.000002   0.000006  -0.000001
    15  O    0.000069   0.002584   0.000000  -0.000000  -0.000000   0.000000
    16  N    0.000000  -0.000001  -0.015599   0.007133  -0.001326   0.000086
    17  C   -0.000001   0.000008  -0.062080  -0.139948   0.096641   0.011396
    18  C   -0.000000   0.000001   0.464407   0.433924  -0.121083   0.000120
    19  N   -0.000000   0.000000  -0.037543  -0.067938   0.324740  -0.013104
    20  C    0.000000  -0.000003   0.011224  -0.025340  -0.042395   0.068422
    21  C    0.000000   0.000001   0.000555   0.021538  -0.096637   0.190889
    22  C   -0.000000  -0.000003   0.000573  -0.000935  -0.006306  -0.020798
    23  C   -0.000000  -0.000036  -0.002379   0.001314  -0.000998   0.021841
    24  C   -0.000000  -0.000040  -0.012680  -0.027610  -0.009863  -0.036771
    25  C    0.000001   0.000067  -0.000138   0.107281   0.132148   0.078956
    26  H   -0.000000  -0.000000  -0.000009   0.000003  -0.000000   0.000000
    27  H    0.000000   0.000000  -0.000000  -0.000000   0.000000  -0.000000
    28  H    0.000000   0.000000   0.000004  -0.000016   0.000000   0.000000
    29  H   -0.000000   0.000000  -0.000002   0.000017  -0.000000   0.000000
    30  H   -0.000000  -0.000000   0.000000  -0.000001   0.000000   0.000000
    31  H   -0.000000   0.000000  -0.000000   0.000000  -0.000000  -0.000000
    32  H   -0.000000  -0.000000  -0.000019   0.000001  -0.000000  -0.000000
    33  H   -0.000000  -0.000000   0.000005  -0.000001   0.000000   0.000000
    34  H   -0.000000  -0.000005  -0.000000   0.000000   0.000000   0.000000
    35  H   -0.000000   0.000004   0.000000  -0.000000   0.000000  -0.000000
    36  H   -0.000143   0.000015  -0.000000   0.000000  -0.000000   0.000000
    37  H    0.541092  -0.004373   0.000000  -0.000000   0.000000  -0.000000
    38  H   -0.004373   0.539011   0.000000  -0.000000   0.000000  -0.000000
    39  H    0.000000   0.000000   0.538305  -0.037164   0.001249  -0.000002
    40  H   -0.000000  -0.000000  -0.037164   0.563927  -0.003807  -0.000002
    41  H    0.000000   0.000000   0.001249  -0.003807   0.429700   0.002704
    42  H   -0.000000  -0.000000  -0.000002  -0.000002   0.002704   0.582098
    43  H   -0.000000  -0.000000  -0.000000  -0.000000  -0.000002  -0.005258
    44  H    0.000000   0.000000  -0.000000  -0.000000  -0.000000  -0.000155
    45  H   -0.000000  -0.000000  -0.000003  -0.000000   0.000004   0.000017
              43         44         45
     1  C    0.000005   0.000129   0.002133
     2  C    0.000069   0.004610   0.049403
     3  C    0.000033  -0.001648   0.001675
     4  C    0.000074  -0.002467  -0.064939
     5  C   -0.000068   0.000645   0.013830
     6  N   -0.000000   0.000000   0.000367
     7  C   -0.000001   0.000004   0.000172
     8  C   -0.000000   0.000002  -0.000155
     9  C   -0.000000   0.000000   0.000024
    10  Cl  -0.000000   0.000000   0.000000
    11  C    0.000000  -0.000002  -0.000023
    12  C    0.000001   0.000004   0.000531
    13  C   -0.000002   0.000060   0.000068
    14  C   -0.000010  -0.000110   0.012433
    15  O   -0.000000   0.000035   0.000450
    16  N   -0.000026  -0.000005   0.010981
    17  C    0.000721  -0.004593  -0.143807
    18  C    0.000554  -0.000880   0.000328
    19  N   -0.000529   0.000235  -0.001519
    20  C   -0.016231  -0.017152  -0.013719
    21  C    0.000539   0.016586  -0.004318
    22  C    0.244290  -0.015167   0.000725
    23  C    0.010776   0.323846   0.025541
    24  C    0.064940  -0.016560   0.178578
    25  C    0.004401   0.028412   0.206357
    26  H   -0.000000   0.000000  -0.000001
    27  H    0.000000  -0.000000  -0.000002
    28  H   -0.000000   0.000000   0.000000
    29  H    0.000000  -0.000010   0.005871
    30  H   -0.000000   0.000000   0.000083
    31  H   -0.000000  -0.000000   0.000069
    32  H   -0.000000  -0.000000   0.000093
    33  H   -0.000000   0.000001   0.007098
    34  H   -0.000000   0.000000   0.000024
    35  H    0.000000  -0.000000  -0.000000
    36  H   -0.000000  -0.000000  -0.000000
    37  H   -0.000000   0.000000  -0.000000
    38  H   -0.000000   0.000000  -0.000000
    39  H   -0.000000  -0.000000  -0.000003
    40  H   -0.000000  -0.000000  -0.000000
    41  H   -0.000002  -0.000000   0.000004
    42  H   -0.005258  -0.000155   0.000017
    43  H    0.573306  -0.005114  -0.000186
    44  H   -0.005114   0.564809  -0.006491
    45  H   -0.000186  -0.006491   0.600215
 Mulliken charges:
               1
     1  C   -0.157893
     2  C   -0.402989
     3  C   -0.386769
     4  C   -0.338839
     5  C   -0.199895
     6  N   -0.201629
     7  C   -1.829290
     8  C   -0.107289
     9  C   -0.005613
    10  Cl   0.262374
    11  C   -0.278369
    12  C    0.336366
    13  C    0.996006
    14  C    0.407068
    15  O   -0.457471
    16  N    0.080172
    17  C   -0.092756
    18  C   -0.627953
    19  N   -0.339126
    20  C   -0.621895
    21  C   -0.246994
    22  C   -0.175920
    23  C   -0.348729
    24  C   -0.503576
    25  C    2.029590
    26  H    0.142810
    27  H    0.138813
    28  H    0.162791
    29  H    0.139636
    30  H    0.139952
    31  H    0.152690
    32  H    0.160386
    33  H    0.159434
    34  H    0.158542
    35  H    0.297158
    36  H    0.139391
    37  H    0.145340
    38  H    0.157594
    39  H    0.166502
    40  H    0.159572
    41  H    0.294703
    42  H    0.119320
    43  H    0.127719
    44  H    0.130974
    45  H    0.118092
 Sum of Mulliken charges =  -0.00000
 Mulliken charges with hydrogens summed into heavy atoms:
               1
     1  C    0.286522
     2  C   -0.402989
     3  C    0.045509
     4  C   -0.019019
     5  C   -0.041352
     6  N    0.095530
     7  C   -1.829290
     8  C    0.032102
     9  C   -0.005613
    10  Cl   0.262374
    11  C   -0.133029
    12  C    0.493960
    13  C    0.996006
    14  C    0.407068
    15  O   -0.457471
    16  N    0.080172
    17  C   -0.092756
    18  C   -0.301879
    19  N   -0.044424
    20  C   -0.621895
    21  C   -0.127674
    22  C   -0.048200
    23  C   -0.217756
    24  C   -0.385485
    25  C    2.029590
 Electronic spatial extent (au):  <R**2>=          12860.4755
 Charge=             -0.0000 electrons
 Dipole moment (field-independent basis, Debye):
    X=              2.9533    Y=              2.0029    Z=             -0.7268  Tot=              3.6416
 Quadrupole moment (field-independent basis, Debye-Ang):
   XX=           -142.7792   YY=           -152.9236   ZZ=           -157.2024
   XY=             -1.0940   XZ=             -7.6660   YZ=              1.9518
 Traceless Quadrupole moment (field-independent basis, Debye-Ang):
   XX=              8.1892   YY=             -1.9552   ZZ=             -6.2340
   XY=             -1.0940   XZ=             -7.6660   YZ=              1.9518
 Octapole moment (field-independent basis, Debye-Ang**2):
  XXX=            203.9531  YYY=             -9.7449  ZZZ=             -2.3422  XYY=            -12.8892
  XXY=            -16.7763  XXZ=            -56.8946  XZZ=             18.4402  YZZ=             14.6242
  YYZ=             -6.9072  XYZ=             -9.4581
 Hexadecapole moment (field-independent basis, Debye-Ang**3):
 XXXX=         -13598.6723 YYYY=          -2448.2817 ZZZZ=          -1285.5291 XXXY=             98.4740
 XXXZ=           -503.1941 YYYX=            -50.5283 YYYZ=             -3.5975 ZZZX=            -19.3774
 ZZZY=            -20.2329 XXYY=          -2480.5291 XXZZ=          -2515.8548 YYZZ=           -639.6880
 XXYZ=            -40.9606 YYXZ=             31.2538 ZZXY=             24.5789
 N-N= 2.185378468496D+03 E-N=-7.814996076928D+03  KE= 1.462784318930D+03
 Unable to Open any file for archive entry.
 1\1\GINC-N2\SP\RB3LYP TD-FC\6-31+G(d,p)\C20H20Cl1N3O1\HPCMGAC13\19-Sep
 -2025\0\\# td=(50-50,nstates=3) b3lyp/6-31+g(d,p) geom=connectivity\\T
 itle Card Required\\0,1\C,0,0.431741,3.136129,0.703324\C,0,1.219239,1.
 808477,0.762984\C,0,1.805257,1.670353,2.184936\C,0,0.301244,0.620301,0
 .356345\C,0,-0.988508,0.415768,1.176392\N,0,-2.154232,1.197033,0.73432
 4\C,0,-3.151868,0.362464,0.281603\C,0,-4.373428,0.716574,-0.313173\C,0
 ,-5.239315,-0.321442,-0.643636\Cl,0,-6.778495,0.082568,-1.388786\C,0,-
 4.948072,-1.679478,-0.409018\C,0,-3.729623,-2.012197,0.172954\C,0,-2.8
 33627,-0.993605,0.511073\C,0,-1.485698,-1.049472,1.075324\O,0,-0.82586
 3,-2.02141,1.414376\N,0,2.291444,1.963154,-0.231793\C,0,3.213276,1.140
 268,-0.565004\C,0,4.203867,1.638925,-1.633399\N,0,4.977682,0.459278,-2
 .01721\C,0,4.741878,-0.551007,-1.099824\C,0,5.422316,-1.773665,-1.0204
 96\C,0,5.012285,-2.700031,-0.065421\C,0,3.939053,-2.423118,0.795548\C,
 0,3.2703,-1.202465,0.714239\C,0,3.666628,-0.23937,-0.228283\H,0,-0.002
 485,3.281372,-0.292276\H,0,-0.36063,3.173963,1.459609\H,0,1.111106,3.9
 73689,0.884611\H,0,2.409099,0.770723,2.308702\H,0,1.013359,1.654794,2.
 941139\H,0,2.445089,2.532936,2.396331\H,0,0.027517,0.746061,-0.698579\
 H,0,0.861803,-0.313221,0.423304\H,0,-0.795855,0.610255,2.239124\H,0,-2
 .028525,2.112535,0.329186\H,0,-4.643552,1.7494,-0.502629\H,0,-5.667908
 ,-2.440171,-0.686398\H,0,-3.463908,-3.048415,0.358898\H,0,3.666999,2.0
 72215,-2.481175\H,0,4.840911,2.418695,-1.193654\H,0,5.920133,0.585798,
 -2.358857\H,0,6.243208,-1.993034,-1.697344\H,0,5.528136,-3.653345,0.00
 8227\H,0,3.622544,-3.159878,1.526366\H,0,2.448342,-1.023441,1.393716\\
 Version=ES64L-G16RevC.02\State=1-A\HF=-1473.9047989\RMSD=1.840e-09\PG=
 C01 [X(C20H20Cl1N3O1)]\\@
 The archive entry for this job was punched.


 WE HAVE LEFT UNDONE THOSE THINGS WHICH WE OUGHT TO HAVE DONE,
 AND WE HAVE DONE THOSE THINGS WHICH WE OUGHT NOT TO HAVE DONE.
                   BOOK OF COMMON PRAYER                      
 Job cpu time:       0 days  2 hours 10 minutes 26.0 seconds.
 Elapsed time:       0 days  0 hours 16 minutes 32.7 seconds.
 File lengths (MBytes):  RWF=   1740 Int=      0 D2E=      0 Chk=     86 Scr=      2
 Normal termination of Gaussian 16 at Fri Sep 19 04:23:13 2025.
