 Entering Gaussian System, Link 0=g16
 Input=M2365e.gjf
 Output=M2365e.log
 Initial command:
 /hpc/softwares/Gaussian/g16/l1.exe "/hpc/home/hpcmgac13/pbs.12594.admin1.x8z/Gau-1269991.inp" -scrdir="/hpc/home/hpcmgac13/pbs.12594.admin1.x8z/"
 Default linda workers: n2
 Default is to use   8 SMP processors on each worker.
 Entering Link 1 = /hpc/softwares/Gaussian/g16/l1.exe PID=   1269992.
  
 Copyright (c) 1988-2021, Gaussian, Inc.  All Rights Reserved.
  
 This is part of the Gaussian(R) 16 program.  It is based on
 the Gaussian(R) 09 system (copyright 2009, Gaussian, Inc.),
 the Gaussian(R) 03 system (copyright 2003, Gaussian, Inc.),
 the Gaussian(R) 98 system (copyright 1998, Gaussian, Inc.),
 the Gaussian(R) 94 system (copyright 1995, Gaussian, Inc.),
 the Gaussian 92(TM) system (copyright 1992, Gaussian, Inc.),
 the Gaussian 90(TM) system (copyright 1990, Gaussian, Inc.),
 the Gaussian 88(TM) system (copyright 1988, Gaussian, Inc.),
 the Gaussian 86(TM) system (copyright 1986, Carnegie Mellon
 University), and the Gaussian 82(TM) system (copyright 1983,
 Carnegie Mellon University). Gaussian is a federally registered
 trademark of Gaussian, Inc.
  
 This software contains proprietary and confidential information,
 including trade secrets, belonging to Gaussian, Inc.
  
 This software is provided under written license and may be
 used, copied, transmitted, or stored only in accord with that
 written license.
  
 The following legend is applicable only to US Government
 contracts under FAR:
  
                    RESTRICTED RIGHTS LEGEND
  
 Use, reproduction and disclosure by the US Government is
 subject to restrictions as set forth in subparagraphs (a)
 and (c) of the Commercial Computer Software - Restricted
 Rights clause in FAR 52.227-19.
  
 Gaussian, Inc.
 340 Quinnipiac St., Bldg. 40, Wallingford CT 06492
  
  
 ---------------------------------------------------------------
 Warning -- This program may not be used in any manner that
 competes with the business of Gaussian, Inc. or will provide
 assistance to any competitor of Gaussian, Inc.  The licensee
 of this program is prohibited from giving any competitor of
 Gaussian, Inc. access to this program.  By using this program,
 the user acknowledges that Gaussian, Inc. is engaged in the
 business of creating and licensing software in the field of
 computational chemistry and represents and warrants to the
 licensee that it is not a competitor of Gaussian, Inc. and that
 it will not use this program in any manner prohibited above.
 ---------------------------------------------------------------
  

 Cite this work as:
 Gaussian 16, Revision C.02,
 M. J. Frisch, G. W. Trucks, H. B. Schlegel, G. E. Scuseria, 
 M. A. Robb, J. R. Cheeseman, G. Scalmani, V. Barone, 
 G. A. Petersson, H. Nakatsuji, X. Li, M. Caricato, A. V. Marenich, 
 J. Bloino, B. G. Janesko, R. Gomperts, B. Mennucci, H. P. Hratchian, 
 J. V. Ortiz, A. F. Izmaylov, J. L. Sonnenberg, D. Williams-Young, 
 F. Ding, F. Lipparini, F. Egidi, J. Goings, B. Peng, A. Petrone, 
 T. Henderson, D. Ranasinghe, V. G. Zakrzewski, J. Gao, N. Rega, 
 G. Zheng, W. Liang, M. Hada, M. Ehara, K. Toyota, R. Fukuda, 
 J. Hasegawa, M. Ishida, T. Nakajima, Y. Honda, O. Kitao, H. Nakai, 
 T. Vreven, K. Throssell, J. A. Montgomery, Jr., J. E. Peralta, 
 F. Ogliaro, M. J. Bearpark, J. J. Heyd, E. N. Brothers, K. N. Kudin, 
 V. N. Staroverov, T. A. Keith, R. Kobayashi, J. Normand, 
 K. Raghavachari, A. P. Rendell, J. C. Burant, S. S. Iyengar, 
 J. Tomasi, M. Cossi, J. M. Millam, M. Klene, C. Adamo, R. Cammi, 
 J. W. Ochterski, R. L. Martin, K. Morokuma, O. Farkas, 
 J. B. Foresman, and D. J. Fox, Gaussian, Inc., Wallingford CT, 2019.
 
 ******************************************
 Gaussian 16:  ES64L-G16RevC.02  7-Dec-2021
                31-Jul-2025 
 ******************************************
 SetLPE:    new flags="-opt 'Tsnet.Node.lindarsharg: ssh'  -nodelist 'n2.head.cm.mguif.local' -env GAUSS_MDEF=2147483648 -env GAUSS_EXEDIR="/hpc/softwares/Gaussian/g16/bsd:/hpc/softwares/Gaussian/g16""
 Will use up to    1 processors via Linda.
 ----------------------------------------------------------
 # td=(50-50,nstates=3) b3lyp/6-31+g(d,p) geom=connectivity
 ----------------------------------------------------------
 1/38=1,57=2,172=1/1;
 2/12=2,17=6,18=5,40=1/2;
 3/5=1,6=6,7=111,11=9,25=1,30=1,74=-5/1,2,3,8;
 4//1;
 5/5=2,38=5/2;
 8/6=1,10=2,108=3/1;
 9/41=3,42=1,48=2,70=2/14;
 6/7=2,8=2,9=2,10=2/1;
 99/5=1,9=1/99;
 -------------------
 Title Card Required
 -------------------
 Symbolic Z-matrix:
 Charge =  0 Multiplicity = 1
 C                     2.99499   4.3781    0.84563 
 C                     2.26296   3.20722   0.36928 
 C                     1.67467   2.21949  -0.01143 
 C                     0.91327   1.05205  -0.46478 
 C                    -0.53435   1.07848   0.06406 
 N                    -1.33189   2.05335   0.15392 
 C                    -0.88912  -0.3237    0.54018 
 C                    -1.42431  -0.3203    1.90803 
 N                    -1.85408  -0.30638   2.98523 
 C                    -1.79873  -1.13808  -0.44257 
 C                    -3.23177  -0.67321  -0.56171 
 C                    -4.2026   -1.10846   0.35262 
 C                    -5.53062  -0.69572   0.23042 
 C                    -5.90978   0.15175  -0.81401 
 C                    -4.95319   0.58286  -1.73632 
 C                    -3.62486   0.17256  -1.6083 
 N                     0.46378  -1.01304   0.55114 
 O                     0.51019  -2.19938   1.00784 
 C                     1.43182  -0.30432  -0.01071 
 C                     2.78528  -0.79314  -0.24727 
 C                     3.27535  -1.99506   0.31412 
 C                     4.5766   -2.41767   0.04335 
 C                     5.41236  -1.67271  -0.7916 
 C                     4.93796  -0.48473  -1.35673 
 C                     3.64504  -0.04631  -1.08567 
 H                     2.53127   4.78819   1.74904 
 H                     4.02993   4.11432   1.08881 
 H                     3.01657   5.16742   0.08665 
 H                     0.86818   1.06841  -1.56751 
 H                    -0.89594   2.91752  -0.18348 
 H                    -1.30608  -1.10171  -1.42031 
 H                    -1.74833  -2.17242  -0.09049 
 H                    -3.919    -1.77093   1.16535 
 H                    -6.26839  -1.03973   0.9493 
 H                    -6.94378   0.46979  -0.91091 
 H                    -5.2396    1.23723  -2.55462 
 H                    -2.88698   0.51132  -2.331 
 H                     2.62864  -2.58214   0.95056 
 H                     4.93549  -3.34131   0.48783 
 H                     6.42248  -2.01237  -1.00104 
 H                     5.57692   0.10389  -2.00844 
 H                     3.30666   0.88547  -1.5239 
 
                          Input orientation:                          
 ---------------------------------------------------------------------
 Center     Atomic      Atomic             Coordinates (Angstroms)
 Number     Number       Type             X           Y           Z
 ---------------------------------------------------------------------
      1          6           0        2.994992    4.378098    0.845626
      2          6           0        2.262956    3.207215    0.369278
      3          6           0        1.674674    2.219491   -0.011434
      4          6           0        0.913266    1.052048   -0.464780
      5          6           0       -0.534352    1.078481    0.064057
      6          7           0       -1.331889    2.053351    0.153915
      7          6           0       -0.889118   -0.323704    0.540175
      8          6           0       -1.424305   -0.320303    1.908025
      9          7           0       -1.854082   -0.306376    2.985228
     10          6           0       -1.798729   -1.138075   -0.442569
     11          6           0       -3.231773   -0.673207   -0.561712
     12          6           0       -4.202595   -1.108459    0.352615
     13          6           0       -5.530617   -0.695723    0.230420
     14          6           0       -5.909782    0.151754   -0.814012
     15          6           0       -4.953193    0.582855   -1.736321
     16          6           0       -3.624857    0.172562   -1.608298
     17          7           0        0.463780   -1.013044    0.551144
     18          8           0        0.510185   -2.199376    1.007835
     19          6           0        1.431823   -0.304320   -0.010714
     20          6           0        2.785275   -0.793143   -0.247265
     21          6           0        3.275352   -1.995056    0.314124
     22          6           0        4.576595   -2.417671    0.043348
     23          6           0        5.412356   -1.672707   -0.791596
     24          6           0        4.937955   -0.484734   -1.356725
     25          6           0        3.645042   -0.046314   -1.085667
     26          1           0        2.531272    4.788193    1.749041
     27          1           0        4.029928    4.114322    1.088808
     28          1           0        3.016572    5.167417    0.086654
     29          1           0        0.868180    1.068411   -1.567506
     30          1           0       -0.895939    2.917515   -0.183481
     31          1           0       -1.306075   -1.101708   -1.420311
     32          1           0       -1.748328   -2.172421   -0.090486
     33          1           0       -3.918995   -1.770926    1.165354
     34          1           0       -6.268390   -1.039725    0.949298
     35          1           0       -6.943778    0.469787   -0.910908
     36          1           0       -5.239596    1.237225   -2.554623
     37          1           0       -2.886982    0.511324   -2.330996
     38          1           0        2.628640   -2.582135    0.950564
     39          1           0        4.935492   -3.341309    0.487831
     40          1           0        6.422481   -2.012367   -1.001045
     41          1           0        5.576918    0.103892   -2.008441
     42          1           0        3.306658    0.885468   -1.523897
 ---------------------------------------------------------------------
                    Distance matrix (angstroms):
                    1          2          3          4          5
     1  C    0.000000
     2  C    1.460736   0.000000
     3  C    2.671587   1.211039   0.000000
     4  C    4.136829   2.676203   1.465670   0.000000
     5  C    4.894343   3.528399   2.487448   1.541417   0.000000
     6  N    4.960324   3.781626   3.015686   2.534978   1.262740
     7  C    6.106272   4.736261   3.653100   2.480165   1.522718
     8  C    6.537113   5.329824   4.442808   3.602470   2.479684
     9  N    7.073593   6.011532   5.273718   4.626671   3.491813
    10  C    7.420739   6.003160   4.850119   3.485979   2.601622
    11  C    8.140570   6.790910   5.722214   4.490796   3.276595
    12  C    9.063698   7.773588   6.763880   5.613195   4.280418
    13  C    9.940229   8.717338   7.776451   6.712796   5.304540
    14  C    9.995568   8.805093   7.902129   6.891043   5.524950
    15  C    9.178451   7.962011   7.041479   6.020988   4.797204
    16  C    8.217705   6.912761   5.901264   4.761900   3.628868
    17  N    5.963067   4.591372   3.497433   2.344940   2.368121
    18  O    7.033046   5.719369   4.682022   3.592051   3.567369
    19  C    5.010175   3.628506   2.535468   1.521450   2.404906
    20  C    5.289624   4.081153   3.219474   2.637510   3.823587
    21  C    6.401421   5.300152   4.520018   3.933317   4.901327
    22  C    7.023361   6.090854   5.470596   5.071205   6.192357
    23  C    6.718362   5.922836   5.452350   5.270001   6.607913
    24  C    5.680897   4.874956   4.446532   4.399476   5.865868
    25  C    4.871127   3.822627   3.189075   3.009070   4.478210
    26  H    1.095159   2.115474   3.229746   4.634407   5.098940
    27  H    1.095357   2.112524   3.216852   4.637320   5.576656
    28  H    1.095230   2.119010   3.240460   4.654486   5.415623
    29  H    4.615253   3.204842   2.096849   1.103769   2.151556
    30  H    4.281554   3.219951   2.669249   2.613870   1.890520
    31  H    7.325430   5.874302   4.679761   3.236847   2.748114
    32  H    8.141541   6.726237   5.568849   4.197783   3.473613
    33  H    9.258290   7.976976   6.971183   5.829002   4.559362
    34  H   10.731906   9.547606   8.639315   7.612576   6.176539
    35  H   10.823098   9.690012   8.840149   7.891210   6.511667
    36  H    9.446439   8.289653   7.432347   6.500727   5.387208
    37  H    7.722725   6.409459   5.395082   4.268141   3.404822
    38  H    6.970658   5.829939   4.989098   4.260633   4.918386
    39  H    7.967610   7.073872   6.465655   6.032193   7.045092
    40  H    7.483042   6.813477   6.436585   6.326900   7.686697
    41  H    5.751598   5.125086   4.867371   5.003153   6.526308
    42  H    4.232049   3.172370   2.594327   2.622557   4.160794
                    6          7          8          9         10
     6  N    0.000000
     7  C    2.448598   0.000000
     8  C    2.952910   1.468826   0.000000
     9  N    3.722544   2.628638   1.159857   0.000000
    10  C    3.280081   1.567284   2.516791   3.527688   0.000000
    11  C    3.399382   2.612344   3.080760   3.822745   1.511262
    12  C    4.275217   3.410300   3.280150   3.617942   2.532147
    13  C    5.019221   4.666675   4.451640   4.610582   3.817797
    14  C    5.050748   5.221776   5.268000   5.576093   4.324625
    15  C    4.341566   4.745628   5.152669   5.717364   3.819167
    16  C    3.449705   3.513756   4.177304   4.946262   2.532082
    17  N    3.575611   1.518434   2.426083   3.434622   2.474277
    18  O    4.712547   2.386399   2.843151   3.617083   2.925938
    19  C    3.636457   2.385502   3.440826   4.446667   3.364240
    20  C    5.021405   3.787030   4.752832   5.675349   4.601110
    21  C    6.135302   4.493031   5.237566   6.024743   5.201279
    22  C    7.410293   5.874143   6.624709   7.380097   6.520601
    23  C    7.762882   6.580425   7.473746   8.302553   7.239295
    24  C    6.930718   6.130166   7.152900   8.063258   6.829747
    25  C    5.542111   4.824823   5.893687   6.846910   5.589290
    26  H    4.994777   6.268326   6.462863   6.834773   7.659812
    27  H    5.819855   6.647863   7.077123   7.600036   7.994125
    28  H    5.348929   6.753703   7.290669   7.879557   7.951505
    29  H    2.962043   3.077076   4.389001   5.479793   3.639570
    30  H    1.025021   3.321028   3.890634   4.620847   4.162928
    31  H    3.526082   2.150035   3.420876   4.510171   1.095450
    32  H    4.253270   2.133947   2.743971   3.599073   1.093789
    33  H    4.726650   3.415473   2.979823   3.117806   2.735223
    34  H    5.879523   5.442117   4.990179   4.916190   4.682396
    35  H    5.927463   6.276478   6.247816   6.456571   5.410738
    36  H    4.824149   5.562457   6.074337   6.673407   4.684270
    37  H    3.312242   3.596158   4.560737   5.477020   2.733307
    38  H    6.148835   4.200423   4.739090   5.423443   4.860836
    39  H    8.276105   6.560089   7.182649   7.845134   7.146301
    40  H    8.831435   7.660706   8.538022   9.343569   8.286409
    41  H    7.497185   6.963326   8.033416   8.962411   7.641636
    42  H    5.069036   4.829806   5.967745   6.956000   5.597229
                   11         12         13         14         15
    11  C    0.000000
    12  C    1.402831   0.000000
    13  C    2.431597   1.396039   0.000000
    14  C    2.813529   2.421496   1.397434   0.000000
    15  C    2.433246   2.790626   2.415833   1.396984   0.000000
    16  C    1.401850   2.412463   2.786884   2.419133   1.396140
    17  N    3.874410   4.671571   6.011352   6.621382   6.092864
    18  O    4.335311   4.881568   6.273487   7.075515   6.717120
    19  C    4.710499   5.703097   6.977601   7.399490   6.673322
    20  C    6.026452   7.020656   8.330170   8.764591   7.999659
    21  C    6.697541   7.530420   8.901706   9.499904   8.863346
    22  C    8.023706   8.881659  10.254552  10.830564  10.148263
    23  C    8.704758   9.699220  11.033933  11.468216  10.650102
    24  C    8.210483   9.319900  10.590304  10.879938   9.955835
    25  C    6.925179   8.048740   9.292284   9.560737   8.645742
    26  H    8.269169   9.059000   9.867806   9.965802   9.265518
    27  H    8.853076   9.777211  10.736731  10.868326  10.057290
    28  H    8.577592   9.569416  10.365882  10.278515   9.373292
    29  H    4.566669   5.842806   6.876722   6.881045   5.844027
    30  H    4.300286   5.237350   5.891268   5.760697   4.931862
    31  H    2.151539   3.396048   4.553734   4.809666   4.029775
    32  H    2.161089   2.711417   4.073000   4.821097   4.535579
    33  H    2.158707   1.086203   2.151160   3.402620   3.876799
    34  H    3.411529   2.151340   1.086017   2.158120   3.402214
    35  H    3.899661   3.406088   2.158256   1.086131   2.157897
    36  H    3.413619   3.876808   3.402565   2.158037   1.086207
    37  H    2.156933   3.399456   3.873838   3.401154   2.151275
    38  H    6.346292   7.013917   8.405393   9.137425   8.644114
    39  H    8.655895   9.407898  10.798371  11.468054  10.868855
    40  H    9.756587  10.749032  12.088284  12.522105  11.691098
    41  H    8.960466  10.133275  11.359103  11.548733  10.544510
    42  H    6.790166   7.992867   9.147416   9.272812   8.268122
                   16         17         18         19         20
    16  C    0.000000
    17  N    4.773448   0.000000
    18  O    5.437721   1.272047   0.000000
    19  C    5.324444   1.324795   2.340533   0.000000
    20  C    6.623805   2.464782   2.954455   1.458334   0.000000
    21  C    7.483793   2.987551   2.858169   2.522441   1.414188
    22  C    8.757914   4.375623   4.184923   3.789296   2.435647
    23  C    9.259765   5.169769   5.248487   4.280993   2.823382
    24  C    8.591686   4.892578   5.304365   3.759954   2.441321
    25  C    7.291946   3.705961   4.341170   2.473950   1.414168
    26  H    8.394861   6.274060   7.311655   5.499019   5.933049
    27  H    9.022615   6.268682   7.228965   5.242470   5.236169
    28  H    8.481157   6.703029   7.835827   5.697439   5.974385
    29  H    4.581658   2.997444   4.176000   2.150741   2.980549
    30  H    4.124544   4.223482   5.438657   3.978510   5.227273
    31  H    2.652518   2.650827   3.224836   3.181018   4.267364
    32  H    3.365124   2.578617   2.511557   3.689109   4.741365
    33  H    3.399531   4.490028   4.452642   5.671448   6.920895
    34  H    3.872881   6.743986   6.877303   7.794596   9.135722
    35  H    3.404399   7.694693   8.146629   8.459331   9.833102
    36  H    2.153235   6.872990   7.586917   7.304496   8.593303
    37  H    1.086974   4.675258   5.480550   4.970016   6.182076
    38  H    7.296736   2.703369   2.153517   2.746792   2.158662
    39  H    9.487920   5.041928   4.599756   4.663426   3.414227
    40  H   10.300081   6.238113   6.247065   5.367015   3.909470
    41  H    9.210727   5.826079   6.330462   4.619455   3.420480
    42  H    6.968591   3.999012   4.873006   2.687066   2.172410
                   21         22         23         24         25
    21  C    0.000000
    22  C    1.394689   0.000000
    23  C    2.427614   1.396639   0.000000
    24  C    2.799475   2.413924   1.398466   0.000000
    25  C    2.427690   2.786718   2.419717   1.391872   0.000000
    26  H    6.973171   7.682266   7.516562   6.575839   5.713888
    27  H    6.204355   6.637678   6.239930   5.287387   4.710347
    28  H    7.170755   7.743972   7.300575   6.141813   5.380734
    29  H    4.326643   5.338535   5.363329   4.361165   3.030799
    30  H    6.463794   7.646194   7.825249   6.854642   5.497157
    31  H    4.979539   6.203214   6.771901   6.274760   5.073401
    32  H    5.043067   6.331091   7.212258   7.011279   5.882105
    33  H    7.247997   8.593732   9.534852   9.298427   8.078121
    34  H    9.612446  10.969648  11.826716  11.454603  10.168780
    35  H   10.583325  11.914991  12.541075  11.928346  10.602830
    36  H    9.548910  10.791910  11.182131  10.391470   9.096268
    37  H    7.159117   8.361908   8.718873   7.948017   6.673016
    38  H    1.080719   2.155138   3.407529   3.880156   3.407301
    39  H    2.144443   1.086038   2.156053   3.400355   3.872744
    40  H    3.410922   2.159241   1.086089   2.159627   3.403923
    41  H    3.885498   3.401289   2.159652   1.086042   2.146210
    42  H    3.417122   3.870365   3.393300   2.136944   1.083867
                   26         27         28         29         30
    26  H    0.000000
    27  H    1.770870   0.000000
    28  H    1.772811   1.772064   0.000000
    29  H    5.253774   5.131299   4.914640   0.000000
    30  H    4.356587   5.226398   4.521369   2.906342   0.000000
    31  H    7.711093   7.872457   7.762612   3.075462   4.225176
    32  H    8.375499   8.619867   8.752649   4.419355   5.161653
    33  H    9.217846   9.890772   9.869462   6.200597   5.739312
    34  H   10.584813  11.516901  11.201932   7.855519   6.768025
    35  H   10.747117  11.734723  11.057641   7.862325   6.564821
    36  H    9.566467  10.367080   9.517724   6.189332   5.226188
    37  H    8.018465   8.515885   7.897859   3.872274   3.790228
    38  H    7.414093   6.842898   7.807201   4.771413   6.629847
    39  H    8.570865   7.534431   8.731644   6.341377   8.580742
    40  H    8.303740   6.901312   8.020761   6.376702   8.861795
    41  H    6.733298   5.298083   6.048478   4.826690   7.290050
    42  H    5.152146   4.216022   4.584006   2.445720   4.856722
                   31         32         33         34         35
    31  H    0.000000
    32  H    1.763646   0.000000
    33  H    3.736424   2.539710   0.000000
    34  H    5.499405   4.774423   2.470019   0.000000
    35  H    5.874758   5.886175   4.298950   2.489004   0.000000
    36  H    4.714855   5.466865   4.962982   4.303531   2.488975
    37  H    2.435259   3.676806   4.300951   4.959839   4.298368
    38  H    4.826458   4.517687   6.601191   9.029738  10.218145
    39  H    6.900288   6.809860   9.018153  11.447149  12.553803
    40  H    7.793309   8.222947  10.568713  12.876649  13.595076
    41  H    7.012486   7.906920  10.186279  12.262439  12.574032
    42  H    5.023635   6.079329   8.154665  10.074949  10.277158
                   36         37         38         39         40
    36  H    0.000000
    37  H    2.472192   0.000000
    38  H    9.422472   7.124620   0.000000
    39  H   11.565116   9.164042   2.472253   0.000000
    40  H   12.205634   9.736729   4.304259   2.488770   0.000000
    41  H   10.889432   8.479838   4.966165   4.302582   2.491661
    42  H    8.615369   6.257201   4.313576   4.956389   4.287094
                   41         42
    41  H    0.000000
    42  H    2.449433   0.000000
 Stoichiometry    C21H17N3O
 Framework group  C1[X(C21H17N3O)]
 Deg. of freedom   120
 Full point group                 C1      NOp   1
 Largest Abelian subgroup         C1      NOp   1
 Largest concise Abelian subgroup C1      NOp   1
                         Standard orientation:                         
 ---------------------------------------------------------------------
 Center     Atomic      Atomic             Coordinates (Angstroms)
 Number     Number       Type             X           Y           Z
 ---------------------------------------------------------------------
      1          6           0        2.994992    4.378098    0.845626
      2          6           0        2.262956    3.207215    0.369278
      3          6           0        1.674674    2.219491   -0.011434
      4          6           0        0.913266    1.052048   -0.464780
      5          6           0       -0.534352    1.078481    0.064057
      6          7           0       -1.331889    2.053351    0.153915
      7          6           0       -0.889118   -0.323704    0.540175
      8          6           0       -1.424305   -0.320303    1.908025
      9          7           0       -1.854082   -0.306376    2.985228
     10          6           0       -1.798729   -1.138075   -0.442569
     11          6           0       -3.231773   -0.673207   -0.561712
     12          6           0       -4.202595   -1.108459    0.352615
     13          6           0       -5.530617   -0.695723    0.230420
     14          6           0       -5.909782    0.151754   -0.814012
     15          6           0       -4.953193    0.582855   -1.736321
     16          6           0       -3.624857    0.172562   -1.608298
     17          7           0        0.463780   -1.013044    0.551144
     18          8           0        0.510185   -2.199376    1.007835
     19          6           0        1.431823   -0.304320   -0.010714
     20          6           0        2.785275   -0.793143   -0.247265
     21          6           0        3.275352   -1.995056    0.314124
     22          6           0        4.576595   -2.417671    0.043348
     23          6           0        5.412356   -1.672707   -0.791596
     24          6           0        4.937955   -0.484734   -1.356725
     25          6           0        3.645042   -0.046314   -1.085667
     26          1           0        2.531272    4.788193    1.749041
     27          1           0        4.029928    4.114322    1.088808
     28          1           0        3.016572    5.167417    0.086654
     29          1           0        0.868180    1.068411   -1.567506
     30          1           0       -0.895939    2.917515   -0.183481
     31          1           0       -1.306075   -1.101708   -1.420311
     32          1           0       -1.748328   -2.172421   -0.090486
     33          1           0       -3.918995   -1.770926    1.165354
     34          1           0       -6.268390   -1.039725    0.949298
     35          1           0       -6.943778    0.469787   -0.910908
     36          1           0       -5.239596    1.237225   -2.554623
     37          1           0       -2.886982    0.511324   -2.330996
     38          1           0        2.628640   -2.582135    0.950564
     39          1           0        4.935492   -3.341309    0.487831
     40          1           0        6.422481   -2.012367   -1.001045
     41          1           0        5.576918    0.103892   -2.008441
     42          1           0        3.306658    0.885468   -1.523897
 ---------------------------------------------------------------------
 Rotational constants (GHZ):           0.3940707           0.1293632           0.1134475
 Standard basis: 6-31+G(d,p) (6D, 7F)
 There are   560 symmetry adapted cartesian basis functions of A   symmetry.
 There are   560 symmetry adapted basis functions of A   symmetry.
   560 basis functions,   919 primitive gaussians,   560 cartesian basis functions
    86 alpha electrons       86 beta electrons
       nuclear repulsion energy      1989.7507114267 Hartrees.
 NAtoms=   42 NActive=   42 NUniq=   42 SFac= 1.00D+00 NAtFMM=   60 NAOKFM=F Big=F
 Integral buffers will be    131072 words long.
 Regular integral format.
 Two-electron integral symmetry is turned on.
 One-electron integrals computed using PRISM.
 NBasis=   560 RedAO= T EigKep=  1.07D-06  NBF=   560
 NBsUse=   557 1.00D-06 EigRej=  5.35D-07 NBFU=   557
 ExpMin= 4.38D-02 ExpMax= 5.48D+03 ExpMxC= 8.25D+02 IAcc=3 IRadAn=         5 AccDes= 0.00D+00
 Harris functional with IExCor=  402 and IRadAn=       5 diagonalized for initial guess.
 HarFok:  IExCor=  402 AccDes= 0.00D+00 IRadAn=         5 IDoV= 1 UseB2=F ITyADJ=14
 ICtDFT=  3500011 ScaDFX=  1.000000  1.000000  1.000000  1.000000
 FoFCou: FMM=F IPFlag=           0 FMFlag=      100000 FMFlg1=           0
         NFxFlg=           0 DoJE=T BraDBF=F KetDBF=T FulRan=T
         wScrn=  0.000000 ICntrl=       500 IOpCl=  0 I1Cent=   200000004 NGrid=           0
         NMat0=    1 NMatS0=      1 NMatT0=    0 NMatD0=    1 NMtDS0=    0 NMtDT0=    0
 Petite list used in FoFCou.
 Requested convergence on RMS density matrix=1.00D-08 within 128 cycles.
 Requested convergence on MAX density matrix=1.00D-06.
 Requested convergence on             energy=1.00D-06.
 No special actions if energy rises.
 SCF Done:  E(RB3LYP) =  -1049.85262274     A.U. after   17 cycles
            NFock= 17  Conv=0.48D-08     -V/T= 2.0096
 DoSCS=F DFT=T ScalE2(SS,OS)=  1.000000  1.000000
 ExpMin= 4.38D-02 ExpMax= 5.48D+03 ExpMxC= 8.25D+02 IAcc=3 IRadAn=         5 AccDes= 0.00D+00
 HarFok:  IExCor=  205 AccDes= 0.00D+00 IRadAn=         5 IDoV=-2 UseB2=F ITyADJ=14
 ICtDFT= 12500011 ScaDFX=  1.000000  1.000000  1.000000  1.000000
 GSVD:  LWork=        -825 too small for GESVD, short by        3500 words or        3500 for optimal perf.
 Range of M.O.s used for correlation:    26   557
 NBasis=   560 NAE=    86 NBE=    86 NFC=    25 NFV=     0
 NROrb=    532 NOA=    61 NOB=    61 NVA=   471 NVB=   471

 **** Warning!!: The largest alpha MO coefficient is  0.17373019D+03

 Orbital symmetries:
       Occupied  (A) (A) (A) (A) (A) (A) (A) (A) (A) (A) (A) (A)
                 (A) (A) (A) (A) (A) (A) (A) (A) (A) (A) (A) (A)
                 (A) (A) (A) (A) (A) (A) (A) (A) (A) (A) (A) (A)
                 (A) (A) (A) (A) (A) (A) (A) (A) (A) (A) (A) (A)
                 (A) (A) (A) (A) (A) (A) (A) (A) (A) (A) (A) (A)
                 (A) (A) (A) (A) (A) (A) (A) (A) (A) (A) (A) (A)
                 (A) (A) (A) (A) (A) (A) (A) (A) (A) (A) (A) (A)
                 (A) (A)
       Virtual   (A) (A) (A) (A) (A) (A) (A) (A) (A) (A) (A) (A)
                 (A) (A) (A) (A) (A) (A) (A) (A) (A) (A) (A) (A)
                 (A) (A) (A) (A) (A) (A) (A) (A) (A) (A) (A) (A)
                 (A) (A) (A) (A) (A) (A) (A) (A) (A) (A) (A) (A)
                 (A) (A) (A) (A) (A) (A) (A) (A) (A) (A) (A) (A)
                 (A) (A) (A) (A) (A) (A) (A) (A) (A) (A) (A) (A)
                 (A) (A) (A) (A) (A) (A) (A) (A) (A) (A) (A) (A)
                 (A) (A) (A) (A) (A) (A) (A) (A) (A) (A) (A) (A)
                 (A) (A) (A) (A) (A) (A) (A) (A) (A) (A) (A) (A)
                 (A) (A) (A) (A) (A) (A) (A) (A) (A) (A) (A) (A)
                 (A) (A) (A) (A) (A) (A) (A) (A) (A) (A) (A) (A)
                 (A) (A) (A) (A) (A) (A) (A) (A) (A) (A) (A) (A)
                 (A) (A) (A) (A) (A) (A) (A) (A) (A) (A) (A) (A)
                 (A) (A) (A) (A) (A) (A) (A) (A) (A) (A) (A) (A)
                 (A) (A) (A) (A) (A) (A) (A) (A) (A) (A) (A) (A)
                 (A) (A) (A) (A) (A) (A) (A) (A) (A) (A) (A) (A)
                 (A) (A) (A) (A) (A) (A) (A) (A) (A) (A) (A) (A)
                 (A) (A) (A) (A) (A) (A) (A) (A) (A) (A) (A) (A)
                 (A) (A) (A) (A) (A) (A) (A) (A) (A) (A) (A) (A)
                 (A) (A) (A) (A) (A) (A) (A) (A) (A) (A) (A) (A)
                 (A) (A) (A) (A) (A) (A) (A) (A) (A) (A) (A) (A)
                 (A) (A) (A) (A) (A) (A) (A) (A) (A) (A) (A) (A)
                 (A) (A) (A) (A) (A) (A) (A) (A) (A) (A) (A) (A)
                 (A) (A) (A) (A) (A) (A) (A) (A) (A) (A) (A) (A)
                 (A) (A) (A) (A) (A) (A) (A) (A) (A) (A) (A) (A)
                 (A) (A) (A) (A) (A) (A) (A) (A) (A) (A) (A) (A)
                 (A) (A) (A) (A) (A) (A) (A) (A) (A) (A) (A) (A)
                 (A) (A) (A) (A) (A) (A) (A) (A) (A) (A) (A) (A)
                 (A) (A) (A) (A) (A) (A) (A) (A) (A) (A) (A) (A)
                 (A) (A) (A) (A) (A) (A) (A) (A) (A) (A) (A) (A)
                 (A) (A) (A) (A) (A) (A) (A) (A) (A) (A) (A) (A)
                 (A) (A) (A) (A) (A) (A) (A) (A) (A) (A) (A) (A)
                 (A) (A) (A) (A) (A) (A) (A) (A) (A) (A) (A) (A)
                 (A) (A) (A) (A) (A) (A) (A) (A) (A) (A) (A) (A)
                 (A) (A) (A) (A) (A) (A) (A) (A) (A) (A) (A) (A)
                 (A) (A) (A) (A) (A) (A) (A) (A) (A) (A) (A) (A)
                 (A) (A) (A) (A) (A) (A) (A) (A) (A) (A) (A) (A)
                 (A) (A) (A) (A) (A) (A) (A) (A) (A) (A) (A) (A)
                 (A) (A) (A) (A) (A) (A) (A) (A) (A) (A) (A) (A)
                 (A) (A) (A)
    24 initial guesses have been made.
 Convergence on wavefunction:    0.001000000000000
 Iteration     1 Dimension    24 NMult     0 NNew     24
 CISAX will form    24 AO SS matrices at one time.
 New state      1 was old state      2
 New state      2 was old state     12
 New state      3 was old state     10
 New state      4 was old state     11
 New state      5 was old state      6
 New state      6 was old state      5
 New state      7 was old state      4
 New state      8 was old state      3
 New state      9 was old state      8
 New state     10 was old state      7
 New state     11 was old state     19
 New state     12 was old state     20
 Vector   5 SDiff=6.20D+00 TDiff=1.80D+01 assumed to be singlet.
 Vector  11 SDiff=5.51D+00 TDiff=1.41D+01 assumed to be singlet.
 Iteration     2 Dimension    36 NMult    24 NNew     12
 New state      5 was old state      6
 New state      6 was old state      8
 Iteration     3 Dimension    48 NMult    36 NNew     12
 Iteration     4 Dimension    60 NMult    48 NNew     12
 Iteration     5 Dimension    72 NMult    60 NNew     12
 Iteration     6 Dimension    82 NMult    72 NNew     10
 Iteration     7 Dimension    92 NMult    82 NNew     10
 Iteration     8 Dimension    98 NMult    92 NNew      6
 Iteration     9 Dimension   102 NMult    98 NNew      4
 Iteration    10 Dimension   106 NMult   102 NNew      4
 Iteration    11 Dimension   110 NMult   106 NNew      4
 Iteration    12 Dimension   112 NMult   110 NNew      2
 ***********************************************************************
 Excited states from <AA,BB:AA,BB> singles matrix:
 ***********************************************************************
 
 Ground to excited state transition densities written to RWF  633
 Ground to excited state transition electric dipole moments (Au):
       state          X           Y           Z        Dip. S.      Osc.
         1        -0.0000     -0.0000      0.0000      0.0000      0.0000
         2         0.0000      0.0000     -0.0000      0.0000      0.0000
         3         0.0000     -0.0000      0.0000      0.0000      0.0000
         4        -0.9508      0.0687      0.1226      0.9238      0.0889
         5        -1.5311      0.1642      0.2841      2.4520      0.2416
         6         1.2648      0.1767     -0.3244      1.7362      0.1813
 Ground to excited state transition velocity dipole moments (Au):
       state          X           Y           Z        Dip. S.      Osc.
         1         0.0000      0.0000     -0.0000      0.0000      0.0000
         2        -0.0000     -0.0000      0.0000      0.0000      0.0000
         3        -0.0000      0.0000      0.0000      0.0000      0.0000
         4         0.1338     -0.0103     -0.0163      0.0183      0.0843
         5         0.2183     -0.0245     -0.0415      0.0500      0.2254
         6        -0.1945     -0.0260      0.0472      0.0407      0.1733
 Ground to excited state transition magnetic dipole moments (Au):
       state          X           Y           Z
         1        -0.0000      0.0000      0.0000
         2         0.0000      0.0000      0.0000
         3         0.0000      0.0000     -0.0000
         4        -0.0262      0.5966     -0.1797
         5         0.0556     -0.0612      0.3303
         6         0.0628     -0.0815     -0.4726
 Ground to excited state transition velocity quadrupole moments (Au):
       state          XX          YY          ZZ          XY          XZ          YZ
         1         0.0000     -0.0000      0.0000      0.0000     -0.0000     -0.0000
         2         0.0000      0.0000      0.0000      0.0000     -0.0000     -0.0000
         3        -0.0000     -0.0000      0.0000      0.0000     -0.0000      0.0000
         4         0.4453     -0.0018     -0.0157     -0.3369     -0.1948      0.0716
         5         1.0837     -0.0135     -0.1231     -0.5092     -0.2558      0.1489
         6        -0.8670      0.0275      0.0229      0.2971      0.2791     -0.1592
 <0|del|b> * <b|rxdel|0> + <0|del|b> * <b|delr+rdel|0>
 Rotatory Strengths (R) in cgs (10**-40 erg-esu-cm/Gauss)
       state          XX          YY          ZZ    R(velocity)    E-M Angle
         1        -0.0000     -0.0000      0.0000     -0.0000       90.00
         2        -0.0000      0.0000     -0.0000     -0.0000       90.00
         3         0.0000     -0.0000      0.0000      0.0000       90.00
         4         0.7841      8.5890    -42.1202    -10.9157       94.55
         5         6.3672     23.4790    -30.1787     -0.1108       90.00
         6         2.4676    -39.6861   -109.0083    -48.7423      109.39
 1/2[<0|r|b>*<b|rxdel|0> + (<0|rxdel|b>*<b|r|0>)*]
 Rotatory Strengths (R) in cgs (10**-40 erg-esu-cm/Gauss)
       state          XX          YY          ZZ     R(length)
         1        -0.0000      0.0000     -0.0000     -0.0000
         2        -0.0000     -0.0000      0.0000     -0.0000
         3        -0.0000      0.0000      0.0000      0.0000
         4       -17.6017    -28.9860     15.5765    -10.3371
         5        60.1986      7.1072    -66.3499      0.3186
         6       -56.1747     10.1846   -108.3919    -51.4607
  1/2[<0|del|b>*<b|r|0> + (<0|r|b>*<b|del|0>)*] (Au)
       state          X           Y           Z        Dip. S.   Osc.(frdel)
         1        -0.0000     -0.0000     -0.0000      0.0000      0.0000
         2        -0.0000     -0.0000     -0.0000      0.0000      0.0000
         3        -0.0000     -0.0000      0.0000      0.0000      0.0000
         4        -0.1272     -0.0007     -0.0020      0.1299      0.0866
         5        -0.3342     -0.0040     -0.0118      0.3500      0.2333
         6        -0.2459     -0.0046     -0.0153      0.2658      0.1772

 Excitation energies and oscillator strengths:
 
 Excited State   1:      Triplet-A      1.9843 eV  624.83 nm  f=0.0000  <S**2>=2.000
      86 -> 87         0.68452
      86 -> 88         0.10467
      86 <- 87         0.15336
 This state for optimization and/or second-order correction.
 Total Energy, E(TD-HF/TD-DFT) =  -1049.77970169    
 Copying the excited state density for this state as the 1-particle RhoCI density.
 
 Excited State   2:      Triplet-A      3.6249 eV  342.04 nm  f=0.0000  <S**2>=2.000
      82 -> 87         0.47233
      83 -> 87        -0.32646
      84 -> 92        -0.14754
      85 -> 87        -0.24497
      85 -> 90         0.15152
 
 Excited State   3:      Triplet-A      3.6848 eV  336.47 nm  f=0.0000  <S**2>=2.000
      82 -> 87        -0.22381
      83 -> 87         0.16283
      84 -> 92        -0.39393
      85 -> 87        -0.10348
      85 -> 88         0.12446
      85 -> 90         0.38762
      85 -> 91        -0.13268
      85 -> 93         0.11880
      86 -> 90         0.10915
 
 Excited State   4:      Singlet-A      3.9292 eV  315.55 nm  f=0.0889  <S**2>=0.000
      82 -> 87         0.48620
      83 -> 87        -0.28118
      85 -> 87        -0.23491
      86 -> 87        -0.29973
 
 Excited State   5:      Singlet-A      4.0211 eV  308.33 nm  f=0.2416  <S**2>=0.000
      82 -> 87        -0.23104
      83 -> 87         0.14944
      86 -> 87        -0.44439
      86 -> 88         0.46337
 
 Excited State   6:      Singlet-A      4.2631 eV  290.83 nm  f=0.1813  <S**2>=0.000
      82 -> 87         0.24559
      85 -> 87         0.27022
      86 -> 87         0.36750
      86 -> 88         0.46523
 SavETr:  write IOETrn=   770 NScale= 10 NData=  16 NLR=1 NState=    6 LETran=     118.

 **********************************************************************

            Population analysis using the SCF Density.

 **********************************************************************

 Orbital symmetries:
       Occupied  (A) (A) (A) (A) (A) (A) (A) (A) (A) (A) (A) (A)
                 (A) (A) (A) (A) (A) (A) (A) (A) (A) (A) (A) (A)
                 (A) (A) (A) (A) (A) (A) (A) (A) (A) (A) (A) (A)
                 (A) (A) (A) (A) (A) (A) (A) (A) (A) (A) (A) (A)
                 (A) (A) (A) (A) (A) (A) (A) (A) (A) (A) (A) (A)
                 (A) (A) (A) (A) (A) (A) (A) (A) (A) (A) (A) (A)
                 (A) (A) (A) (A) (A) (A) (A) (A) (A) (A) (A) (A)
                 (A) (A)
       Virtual   (A) (A) (A) (A) (A) (A) (A) (A) (A) (A) (A) (A)
                 (A) (A) (A) (A) (A) (A) (A) (A) (A) (A) (A) (A)
                 (A) (A) (A) (A) (A) (A) (A) (A) (A) (A) (A) (A)
                 (A) (A) (A) (A) (A) (A) (A) (A) (A) (A) (A) (A)
                 (A) (A) (A) (A) (A) (A) (A) (A) (A) (A) (A) (A)
                 (A) (A) (A) (A) (A) (A) (A) (A) (A) (A) (A) (A)
                 (A) (A) (A) (A) (A) (A) (A) (A) (A) (A) (A) (A)
                 (A) (A) (A) (A) (A) (A) (A) (A) (A) (A) (A) (A)
                 (A) (A) (A) (A) (A) (A) (A) (A) (A) (A) (A) (A)
                 (A) (A) (A) (A) (A) (A) (A) (A) (A) (A) (A) (A)
                 (A) (A) (A) (A) (A) (A) (A) (A) (A) (A) (A) (A)
                 (A) (A) (A) (A) (A) (A) (A) (A) (A) (A) (A) (A)
                 (A) (A) (A) (A) (A) (A) (A) (A) (A) (A) (A) (A)
                 (A) (A) (A) (A) (A) (A) (A) (A) (A) (A) (A) (A)
                 (A) (A) (A) (A) (A) (A) (A) (A) (A) (A) (A) (A)
                 (A) (A) (A) (A) (A) (A) (A) (A) (A) (A) (A) (A)
                 (A) (A) (A) (A) (A) (A) (A) (A) (A) (A) (A) (A)
                 (A) (A) (A) (A) (A) (A) (A) (A) (A) (A) (A) (A)
                 (A) (A) (A) (A) (A) (A) (A) (A) (A) (A) (A) (A)
                 (A) (A) (A) (A) (A) (A) (A) (A) (A) (A) (A) (A)
                 (A) (A) (A) (A) (A) (A) (A) (A) (A) (A) (A) (A)
                 (A) (A) (A) (A) (A) (A) (A) (A) (A) (A) (A) (A)
                 (A) (A) (A) (A) (A) (A) (A) (A) (A) (A) (A) (A)
                 (A) (A) (A) (A) (A) (A) (A) (A) (A) (A) (A) (A)
                 (A) (A) (A) (A) (A) (A) (A) (A) (A) (A) (A) (A)
                 (A) (A) (A) (A) (A) (A) (A) (A) (A) (A) (A) (A)
                 (A) (A) (A) (A) (A) (A) (A) (A) (A) (A) (A) (A)
                 (A) (A) (A) (A) (A) (A) (A) (A) (A) (A) (A) (A)
                 (A) (A) (A) (A) (A) (A) (A) (A) (A) (A) (A) (A)
                 (A) (A) (A) (A) (A) (A) (A) (A) (A) (A) (A) (A)
                 (A) (A) (A) (A) (A) (A) (A) (A) (A) (A) (A) (A)
                 (A) (A) (A) (A) (A) (A) (A) (A) (A) (A) (A) (A)
                 (A) (A) (A) (A) (A) (A) (A) (A) (A) (A) (A) (A)
                 (A) (A) (A) (A) (A) (A) (A) (A) (A) (A) (A) (A)
                 (A) (A) (A) (A) (A) (A) (A) (A) (A) (A) (A) (A)
                 (A) (A) (A) (A) (A) (A) (A) (A) (A) (A) (A) (A)
                 (A) (A) (A) (A) (A) (A) (A) (A) (A) (A) (A) (A)
                 (A) (A) (A) (A) (A) (A) (A) (A) (A) (A) (A) (A)
                 (A) (A) (A) (A) (A) (A) (A) (A) (A) (A) (A) (A)
                 (A) (A) (A)
 The electronic state is 1-A.
 Alpha  occ. eigenvalues --  -19.15641 -14.49697 -14.35897 -14.35241 -10.30444
 Alpha  occ. eigenvalues --  -10.28496 -10.27171 -10.26987 -10.24207 -10.22996
 Alpha  occ. eigenvalues --  -10.22819 -10.22765 -10.21950 -10.21515 -10.21208
 Alpha  occ. eigenvalues --  -10.21205 -10.21156 -10.21095 -10.20743 -10.20570
 Alpha  occ. eigenvalues --  -10.20129 -10.19980 -10.19916 -10.19843 -10.19788
 Alpha  occ. eigenvalues --   -1.13301  -0.96704  -0.91822  -0.91394  -0.87666
 Alpha  occ. eigenvalues --   -0.86744  -0.83789  -0.81338  -0.78452  -0.78041
 Alpha  occ. eigenvalues --   -0.76375  -0.75695  -0.75276  -0.71230  -0.69570
 Alpha  occ. eigenvalues --   -0.65456  -0.63653  -0.61977  -0.61245  -0.60314
 Alpha  occ. eigenvalues --   -0.59062  -0.55564  -0.53942  -0.52762  -0.51967
 Alpha  occ. eigenvalues --   -0.51585  -0.50256  -0.49193  -0.48242  -0.47393
 Alpha  occ. eigenvalues --   -0.46807  -0.46162  -0.45633  -0.45268  -0.44930
 Alpha  occ. eigenvalues --   -0.44744  -0.44311  -0.43962  -0.43463  -0.42738
 Alpha  occ. eigenvalues --   -0.41737  -0.40226  -0.38632  -0.37524  -0.37263
 Alpha  occ. eigenvalues --   -0.36911  -0.36123  -0.35585  -0.35234  -0.34891
 Alpha  occ. eigenvalues --   -0.34115  -0.33886  -0.30916  -0.29806  -0.28891
 Alpha  occ. eigenvalues --   -0.28131  -0.27265  -0.26873  -0.25850  -0.25559
 Alpha  occ. eigenvalues --   -0.23228
 Alpha virt. eigenvalues --   -0.07787  -0.05345  -0.02567  -0.02348  -0.01847
 Alpha virt. eigenvalues --   -0.01752  -0.00763  -0.00233   0.00439   0.00711
 Alpha virt. eigenvalues --    0.01123   0.01551   0.01731   0.02172   0.02696
 Alpha virt. eigenvalues --    0.02904   0.03171   0.03398   0.03586   0.04179
 Alpha virt. eigenvalues --    0.04353   0.04805   0.05299   0.05420   0.05816
 Alpha virt. eigenvalues --    0.06050   0.06232   0.07060   0.07118   0.07620
 Alpha virt. eigenvalues --    0.07975   0.08365   0.08801   0.09181   0.09321
 Alpha virt. eigenvalues --    0.10228   0.10382   0.10650   0.11181   0.11593
 Alpha virt. eigenvalues --    0.11927   0.12251   0.12636   0.12749   0.13021
 Alpha virt. eigenvalues --    0.13282   0.13755   0.13864   0.14262   0.14380
 Alpha virt. eigenvalues --    0.14918   0.15111   0.15284   0.15485   0.16015
 Alpha virt. eigenvalues --    0.16245   0.16570   0.16635   0.17032   0.17231
 Alpha virt. eigenvalues --    0.17596   0.17729   0.18000   0.18137   0.18410
 Alpha virt. eigenvalues --    0.18798   0.19100   0.19454   0.19558   0.19861
 Alpha virt. eigenvalues --    0.20061   0.20123   0.20452   0.20650   0.20966
 Alpha virt. eigenvalues --    0.21219   0.21396   0.21612   0.21845   0.22061
 Alpha virt. eigenvalues --    0.22180   0.22481   0.22939   0.23122   0.23521
 Alpha virt. eigenvalues --    0.23702   0.24308   0.24403   0.24623   0.24726
 Alpha virt. eigenvalues --    0.25473   0.25772   0.26347   0.26453   0.26834
 Alpha virt. eigenvalues --    0.26849   0.26991   0.27267   0.27654   0.27853
 Alpha virt. eigenvalues --    0.27964   0.28339   0.28584   0.28986   0.29385
 Alpha virt. eigenvalues --    0.29404   0.29693   0.29771   0.30127   0.30405
 Alpha virt. eigenvalues --    0.30638   0.31082   0.31419   0.32085   0.32190
 Alpha virt. eigenvalues --    0.32494   0.32564   0.32830   0.32966   0.33314
 Alpha virt. eigenvalues --    0.33881   0.34650   0.34906   0.35260   0.35322
 Alpha virt. eigenvalues --    0.36365   0.36819   0.37418   0.38012   0.38225
 Alpha virt. eigenvalues --    0.38431   0.39384   0.39705   0.40342   0.40764
 Alpha virt. eigenvalues --    0.42134   0.42561   0.43225   0.43771   0.44870
 Alpha virt. eigenvalues --    0.45666   0.46217   0.48752   0.49941   0.51044
 Alpha virt. eigenvalues --    0.51816   0.54398   0.56156   0.57246   0.59174
 Alpha virt. eigenvalues --    0.60880   0.61409   0.64255   0.65287   0.66152
 Alpha virt. eigenvalues --    0.66969   0.67561   0.68408   0.69108   0.69605
 Alpha virt. eigenvalues --    0.69830   0.70543   0.71054   0.71490   0.72368
 Alpha virt. eigenvalues --    0.72740   0.72947   0.73725   0.73812   0.74134
 Alpha virt. eigenvalues --    0.74484   0.75094   0.75359   0.76017   0.76167
 Alpha virt. eigenvalues --    0.77143   0.77876   0.78103   0.78540   0.79266
 Alpha virt. eigenvalues --    0.80174   0.80860   0.81511   0.81573   0.82884
 Alpha virt. eigenvalues --    0.83086   0.83592   0.84445   0.85182   0.85920
 Alpha virt. eigenvalues --    0.86586   0.87612   0.88018   0.88527   0.88920
 Alpha virt. eigenvalues --    0.89107   0.89906   0.90499   0.91741   0.92165
 Alpha virt. eigenvalues --    0.92706   0.93223   0.93398   0.94447   0.95153
 Alpha virt. eigenvalues --    0.96586   0.97217   0.97456   0.98507   0.98799
 Alpha virt. eigenvalues --    0.99816   1.00226   1.00849   1.01642   1.01875
 Alpha virt. eigenvalues --    1.02684   1.02940   1.03198   1.04726   1.05329
 Alpha virt. eigenvalues --    1.05523   1.06657   1.07033   1.08788   1.09202
 Alpha virt. eigenvalues --    1.10095   1.10542   1.10962   1.11632   1.12611
 Alpha virt. eigenvalues --    1.13103   1.13740   1.14749   1.15225   1.16551
 Alpha virt. eigenvalues --    1.17204   1.18006   1.19038   1.20454   1.21451
 Alpha virt. eigenvalues --    1.22354   1.23813   1.24162   1.24823   1.26728
 Alpha virt. eigenvalues --    1.26829   1.28426   1.30337   1.30997   1.31940
 Alpha virt. eigenvalues --    1.32010   1.34052   1.34937   1.36153   1.36684
 Alpha virt. eigenvalues --    1.37500   1.38315   1.39184   1.39694   1.40099
 Alpha virt. eigenvalues --    1.40208   1.41339   1.41661   1.41848   1.42390
 Alpha virt. eigenvalues --    1.43528   1.44248   1.45304   1.45540   1.46480
 Alpha virt. eigenvalues --    1.47728   1.48472   1.49718   1.50787   1.51878
 Alpha virt. eigenvalues --    1.53907   1.54688   1.55086   1.56651   1.57475
 Alpha virt. eigenvalues --    1.58314   1.60273   1.61935   1.63529   1.65637
 Alpha virt. eigenvalues --    1.66379   1.67967   1.68820   1.70474   1.72625
 Alpha virt. eigenvalues --    1.74230   1.75163   1.76693   1.78466   1.79346
 Alpha virt. eigenvalues --    1.81310   1.82242   1.83353   1.83577   1.85197
 Alpha virt. eigenvalues --    1.85841   1.86491   1.87835   1.88588   1.89961
 Alpha virt. eigenvalues --    1.90363   1.90765   1.91091   1.91914   1.92595
 Alpha virt. eigenvalues --    1.93453   1.93969   1.95188   1.96186   1.96903
 Alpha virt. eigenvalues --    1.97137   1.97849   1.98589   1.99395   1.99764
 Alpha virt. eigenvalues --    1.99932   2.00530   2.00788   2.01130   2.01456
 Alpha virt. eigenvalues --    2.02420   2.02885   2.03194   2.05102   2.06915
 Alpha virt. eigenvalues --    2.07357   2.08510   2.09292   2.09997   2.10481
 Alpha virt. eigenvalues --    2.11216   2.11798   2.13212   2.13687   2.15788
 Alpha virt. eigenvalues --    2.17608   2.18028   2.19616   2.21311   2.23197
 Alpha virt. eigenvalues --    2.25467   2.26434   2.27548   2.28711   2.29990
 Alpha virt. eigenvalues --    2.30422   2.31208   2.32533   2.33210   2.34684
 Alpha virt. eigenvalues --    2.35074   2.37022   2.37612   2.37959   2.38399
 Alpha virt. eigenvalues --    2.39161   2.39623   2.40855   2.41325   2.41657
 Alpha virt. eigenvalues --    2.45519   2.46156   2.46800   2.47253   2.48333
 Alpha virt. eigenvalues --    2.49396   2.50567   2.51623   2.52141   2.52857
 Alpha virt. eigenvalues --    2.53720   2.54223   2.55299   2.55516   2.56823
 Alpha virt. eigenvalues --    2.58303   2.59082   2.59186   2.59334   2.60251
 Alpha virt. eigenvalues --    2.61645   2.63133   2.63735   2.64843   2.66035
 Alpha virt. eigenvalues --    2.67018   2.68011   2.69900   2.71055   2.73036
 Alpha virt. eigenvalues --    2.73766   2.74110   2.74855   2.74960   2.76063
 Alpha virt. eigenvalues --    2.79118   2.80204   2.80724   2.80980   2.83793
 Alpha virt. eigenvalues --    2.85401   2.87701   2.88520   2.90087   2.92316
 Alpha virt. eigenvalues --    2.93928   2.96628   2.98678   3.00196   3.01463
 Alpha virt. eigenvalues --    3.05017   3.06305   3.06745   3.08344   3.10759
 Alpha virt. eigenvalues --    3.12037   3.18519   3.19193   3.19668   3.20352
 Alpha virt. eigenvalues --    3.25992   3.26759   3.28112   3.28691   3.30025
 Alpha virt. eigenvalues --    3.34504   3.35150   3.37453   3.39276   3.40729
 Alpha virt. eigenvalues --    3.41019   3.42212   3.44888   3.45226   3.46280
 Alpha virt. eigenvalues --    3.53021   3.53978   3.54862   3.55372   3.88764
 Alpha virt. eigenvalues --    3.89582   4.25511   4.28840   4.29308   4.31280
 Alpha virt. eigenvalues --    4.31754   4.32645   4.34193   4.35726   4.40232
 Alpha virt. eigenvalues --    4.40926   4.44214   4.45232   4.47025   4.51366
 Alpha virt. eigenvalues --    4.51721   4.53222   4.59049   4.61105   4.65347
 Alpha virt. eigenvalues --    4.74897   4.84690   4.86089   4.86698   4.98516
 Alpha virt. eigenvalues --    5.06222
          Condensed to atoms (all electrons):
               1          2          3          4          5          6
     1  C    8.628049  -2.849259  -0.303878  -0.633974   0.583954   0.012034
     2  C   -2.849259  10.402135   2.628412  -0.223585  -2.218756   0.022851
     3  C   -0.303878   2.628412  14.717378   1.990781 -10.725360   0.065157
     4  C   -0.633974  -0.223585   1.990781  19.806184  -6.172330   0.298616
     5  C    0.583954  -2.218756 -10.725360  -6.172330  37.021941   0.489625
     6  N    0.012034   0.022851   0.065157   0.298616   0.489625   6.740324
     7  C   -0.240972   0.750616   7.089269  -0.616329 -22.018425  -0.751939
     8  C   -0.062242  -0.050458  -0.090226  -0.244817  -3.784039   0.122082
     9  N    0.003837  -0.004727  -0.010595  -0.139855   0.155993  -0.001108
    10  C   -0.012662   0.063189   0.006464   1.909779   0.538105   0.110858
    11  C   -0.002030   0.017496  -0.011289   0.199578   1.384710   0.020173
    12  C   -0.001935   0.028397   0.363150   1.058880  -3.812421   0.023411
    13  C    0.000093  -0.001081  -0.002547  -0.021767   0.306532  -0.027048
    14  C    0.000144   0.000264  -0.003381  -0.010208  -0.130020   0.011480
    15  C   -0.000575  -0.015522  -0.098776  -0.233600   0.073068  -0.028243
    16  C    0.002583  -0.042484  -0.377104  -1.144975   2.637059  -0.035518
    17  N    0.014398   0.073992  -0.149861  -0.147462   0.949641  -0.001482
    18  O   -0.004392   0.013343   0.187644   0.391857  -0.269666   0.011618
    19  C    0.206110  -2.328072  -7.515993  -7.285912  10.181765   0.025162
    20  C    0.086106  -0.460650  -1.894773  -1.862420   1.169258  -0.031925
    21  C    0.058757  -0.096115  -1.608395   1.314618   2.043511  -0.032991
    22  C   -0.008114  -0.122161  -0.120066  -1.522553  -0.011014   0.000151
    23  C    0.004944  -0.003079  -0.086013   0.172107   0.141394  -0.000555
    24  C    0.105430   0.267184   0.938281  -1.076758  -0.514889   0.001381
    25  C   -0.069831  -0.033301   1.097768  -0.974886  -1.204817   0.049889
    26  H    0.509873  -0.132585  -0.016009  -0.018687   0.015560  -0.000513
    27  H    0.444642  -0.034501  -0.038384  -0.010077  -0.009103   0.000082
    28  H    0.543699  -0.238554   0.016775   0.011409   0.002640   0.000058
    29  H    0.012441  -0.005626  -0.170879   0.310300   0.087892  -0.011976
    30  H   -0.019804   0.044287   0.236822  -0.068579  -0.342822   0.176618
    31  H    0.000214   0.001863  -0.016295  -0.003911   0.170240  -0.007132
    32  H   -0.000018  -0.000488  -0.003592  -0.030298  -0.025102   0.002228
    33  H   -0.000000  -0.000021   0.000212  -0.002182  -0.000207  -0.000342
    34  H    0.000000   0.000001  -0.000015  -0.000107  -0.000089   0.000008
    35  H   -0.000000  -0.000000  -0.000001   0.000037   0.000469  -0.000067
    36  H    0.000000   0.000002   0.000083   0.000376   0.003234  -0.000450
    37  H    0.000035   0.000596   0.000835   0.009417   0.014786   0.001443
    38  H    0.000057   0.000616   0.003958   0.022188   0.001013  -0.000002
    39  H   -0.000016   0.000002   0.000234  -0.000552  -0.000384   0.000000
    40  H    0.000046  -0.000031   0.000170  -0.000501  -0.000010   0.000000
    41  H   -0.000399  -0.000052  -0.000809   0.001327   0.000365  -0.000001
    42  H   -0.023708   0.010541  -0.006074   0.086679  -0.004858   0.000035
               7          8          9         10         11         12
     1  C   -0.240972  -0.062242   0.003837  -0.012662  -0.002030  -0.001935
     2  C    0.750616  -0.050458  -0.004727   0.063189   0.017496   0.028397
     3  C    7.089269  -0.090226  -0.010595   0.006464  -0.011289   0.363150
     4  C   -0.616329  -0.244817  -0.139855   1.909779   0.199578   1.058880
     5  C  -22.018425  -3.784039   0.155993   0.538105   1.384710  -3.812421
     6  N   -0.751939   0.122082  -0.001108   0.110858   0.020173   0.023411
     7  C   52.845178  -4.805163   0.292290  -7.481166  -3.519890   1.784094
     8  C   -4.805163  15.115266   0.350391   0.321359   0.209796   0.452725
     9  N    0.292290   0.350391   6.945331  -0.224001   0.034418  -0.114231
    10  C   -7.481166   0.321359  -0.224001  12.352141  -2.925874   1.944055
    11  C   -3.519890   0.209796   0.034418  -2.925874  17.899627  -5.782545
    12  C    1.784094   0.452725  -0.114231   1.944055  -5.782545  21.639133
    13  C    0.151078  -0.371227  -0.014345  -0.421481   0.425977  -1.933550
    14  C    0.039944   0.082538  -0.002588   0.034555  -0.890636   0.349531
    15  C    0.312398  -0.028893  -0.000863  -0.341901   0.350814   1.288303
    16  C   -0.524288   0.156109   0.072518  -0.490135  -2.399507 -11.069299
    17  N   -5.316828   0.973769  -0.072832   0.861278   0.124473   0.270842
    18  O    0.741614  -0.289225   0.001977   0.029097   0.013569  -0.018935
    19  C  -11.031535  -1.458122   0.077202  -0.430758   0.102409  -0.558002
    20  C   -1.578244   0.259523  -0.016479  -0.064990  -0.082511   0.127184
    21  C   -0.549610  -0.539715   0.032617  -0.033191  -0.069381  -0.160461
    22  C   -0.378849   0.029529   0.001236   0.062709   0.019264  -0.007960
    23  C   -0.034328  -0.005100   0.000242  -0.004682  -0.001412  -0.001364
    24  C   -0.040796  -0.080839   0.001463  -0.033386  -0.009557   0.000711
    25  C   -0.385002   0.222599  -0.011967   0.007370   0.130078   0.065348
    26  H    0.000505   0.001014  -0.000013  -0.000021   0.000013   0.000000
    27  H    0.000067  -0.000156   0.000000   0.000050   0.000005   0.000002
    28  H   -0.000610  -0.000266   0.000001  -0.000021  -0.000006  -0.000002
    29  H    0.001791  -0.075706   0.000750   0.014395  -0.018865  -0.004272
    30  H    0.400690  -0.002748  -0.000496  -0.015698   0.009167   0.016401
    31  H   -0.191356  -0.017596   0.002296   0.328656  -0.056008  -0.146663
    32  H    0.002402   0.019574  -0.004680   0.463031  -0.136935   0.126055
    33  H    0.023565  -0.005489   0.002149   0.000776   0.095503   0.104850
    34  H   -0.000098   0.002375  -0.000312  -0.011784   0.050600   0.009872
    35  H   -0.000522   0.000288  -0.000015  -0.000089  -0.010456   0.022548
    36  H   -0.000624  -0.001724   0.000025  -0.006482   0.034006  -0.002807
    37  H    0.012372  -0.010574   0.000120  -0.018127   0.158677   0.027025
    38  H    0.016887   0.003492   0.000016  -0.003608   0.000354   0.000036
    39  H    0.000862   0.000013  -0.000000  -0.000032   0.000005  -0.000001
    40  H   -0.000089  -0.000006   0.000000   0.000008   0.000000  -0.000000
    41  H    0.000160   0.000028  -0.000000   0.000000   0.000002  -0.000000
    42  H    0.010139   0.000084  -0.000000  -0.000943   0.000044   0.000067
              13         14         15         16         17         18
     1  C    0.000093   0.000144  -0.000575   0.002583   0.014398  -0.004392
     2  C   -0.001081   0.000264  -0.015522  -0.042484   0.073992   0.013343
     3  C   -0.002547  -0.003381  -0.098776  -0.377104  -0.149861   0.187644
     4  C   -0.021767  -0.010208  -0.233600  -1.144975  -0.147462   0.391857
     5  C    0.306532  -0.130020   0.073068   2.637059   0.949641  -0.269666
     6  N   -0.027048   0.011480  -0.028243  -0.035518  -0.001482   0.011618
     7  C    0.151078   0.039944   0.312398  -0.524288  -5.316828   0.741614
     8  C   -0.371227   0.082538  -0.028893   0.156109   0.973769  -0.289225
     9  N   -0.014345  -0.002588  -0.000863   0.072518  -0.072832   0.001977
    10  C   -0.421481   0.034555  -0.341901  -0.490135   0.861278   0.029097
    11  C    0.425977  -0.890636   0.350814  -2.399507   0.124473   0.013569
    12  C   -1.933550   0.349531   1.288303 -11.069299   0.270842  -0.018935
    13  C    7.081290   0.352517  -0.218341   0.263370   0.028453  -0.014294
    14  C    0.352517   5.249695   0.423694   0.365207  -0.002490   0.000440
    15  C   -0.218341   0.423694   7.133430  -2.957157  -0.000337   0.001456
    16  C    0.263370   0.365207  -2.957157  21.683650  -0.284152   0.028494
    17  N    0.028453  -0.002490  -0.000337  -0.284152   8.821314  -0.009005
    18  O   -0.014294   0.000440   0.001456   0.028494  -0.009005   7.870722
    19  C    0.006358  -0.012778   0.102496   0.330425   0.264328  -0.412015
    20  C    0.004031  -0.000685   0.011116  -0.079193   0.520164  -0.467232
    21  C    0.000183   0.000375   0.001626   0.183697  -0.180378   0.316698
    22  C    0.000210   0.000005  -0.000295   0.006671   0.423923  -0.041291
    23  C    0.000025  -0.000010   0.000134   0.001360   0.017336  -0.011419
    24  C   -0.000020   0.000033  -0.000165   0.002283   0.049606   0.014573
    25  C    0.000317  -0.001005   0.000106  -0.139645  -0.118109  -0.148324
    26  H   -0.000000  -0.000000  -0.000000  -0.000010  -0.000020  -0.000001
    27  H    0.000000  -0.000000  -0.000001  -0.000007   0.000062   0.000001
    28  H   -0.000000   0.000000   0.000001   0.000005   0.000002  -0.000000
    29  H   -0.000377   0.000303   0.003753   0.016962   0.000566   0.004796
    30  H    0.000265  -0.000389  -0.002982  -0.021806  -0.005001   0.000195
    31  H   -0.005553   0.001592   0.019430   0.164927   0.030482  -0.005202
    32  H    0.022953   0.000054  -0.002180  -0.110939   0.004147  -0.005881
    33  H    0.041439  -0.009350   0.004204   0.042808  -0.000301  -0.000359
    34  H    0.253350  -0.003247  -0.001360   0.010656  -0.000045   0.000001
    35  H    0.004634   0.271735  -0.008117   0.028294   0.000002  -0.000000
    36  H    0.009829   0.006668   0.267135  -0.000759  -0.000020  -0.000000
    37  H    0.011003  -0.015957   0.080594   0.025197  -0.001401   0.000059
    38  H    0.000021  -0.000000  -0.000005  -0.000033  -0.009636  -0.004394
    39  H   -0.000000   0.000000  -0.000000   0.000000   0.000021   0.000400
    40  H   -0.000000   0.000000   0.000000   0.000000  -0.000040   0.000009
    41  H    0.000000  -0.000000   0.000000   0.000001   0.000107  -0.000002
    42  H   -0.000000  -0.000000  -0.000013  -0.000165  -0.002106   0.000223
              19         20         21         22         23         24
     1  C    0.206110   0.086106   0.058757  -0.008114   0.004944   0.105430
     2  C   -2.328072  -0.460650  -0.096115  -0.122161  -0.003079   0.267184
     3  C   -7.515993  -1.894773  -1.608395  -0.120066  -0.086013   0.938281
     4  C   -7.285912  -1.862420   1.314618  -1.522553   0.172107  -1.076758
     5  C   10.181765   1.169258   2.043511  -0.011014   0.141394  -0.514889
     6  N    0.025162  -0.031925  -0.032991   0.000151  -0.000555   0.001381
     7  C  -11.031535  -1.578244  -0.549610  -0.378849  -0.034328  -0.040796
     8  C   -1.458122   0.259523  -0.539715   0.029529  -0.005100  -0.080839
     9  N    0.077202  -0.016479   0.032617   0.001236   0.000242   0.001463
    10  C   -0.430758  -0.064990  -0.033191   0.062709  -0.004682  -0.033386
    11  C    0.102409  -0.082511  -0.069381   0.019264  -0.001412  -0.009557
    12  C   -0.558002   0.127184  -0.160461  -0.007960  -0.001364   0.000711
    13  C    0.006358   0.004031   0.000183   0.000210   0.000025  -0.000020
    14  C   -0.012778  -0.000685   0.000375   0.000005  -0.000010   0.000033
    15  C    0.102496   0.011116   0.001626  -0.000295   0.000134  -0.000165
    16  C    0.330425  -0.079193   0.183697   0.006671   0.001360   0.002283
    17  N    0.264328   0.520164  -0.180378   0.423923   0.017336   0.049606
    18  O   -0.412015  -0.467232   0.316698  -0.041291  -0.011419   0.014573
    19  C   24.606535  -0.252751   2.787191  -0.299158  -0.381764  -0.546502
    20  C   -0.252751  18.202711  -7.802132   1.573178  -0.994017   1.578919
    21  C    2.787191  -7.802132  30.211894  -7.529284   0.009634   1.357057
    22  C   -0.299158   1.573178  -7.529284  12.498775   0.579050   0.445440
    23  C   -0.381764  -0.994017   0.009634   0.579050   6.094941  -0.210611
    24  C   -0.546502   1.578919   1.357057   0.445440  -0.210611  15.165952
    25  C    0.491126  -2.297867 -14.052646   0.273124   0.569772 -11.085465
    26  H   -0.008190  -0.003296  -0.000788  -0.000134   0.000159   0.000925
    27  H   -0.006603   0.000885   0.000232  -0.000387  -0.000334  -0.001989
    28  H    0.010577   0.004578   0.000750   0.000123  -0.000260  -0.001142
    29  H    0.006697   0.060935   0.045535   0.006296  -0.002239   0.018411
    30  H   -0.172677  -0.004492  -0.000668  -0.000062  -0.000065   0.000112
    31  H    0.031132  -0.002800  -0.000907   0.000141   0.000014   0.001103
    32  H   -0.007562   0.013586  -0.005256  -0.000675   0.000070  -0.000564
    33  H   -0.000445   0.000234  -0.000184  -0.000008  -0.000000  -0.000000
    34  H   -0.000026  -0.000004   0.000000  -0.000000   0.000000  -0.000000
    35  H    0.000023   0.000000  -0.000000   0.000000  -0.000000   0.000000
    36  H    0.000015  -0.000001  -0.000002  -0.000000   0.000000  -0.000000
    37  H   -0.010812  -0.000565  -0.000020  -0.000007  -0.000001   0.000002
    38  H    0.057264  -0.229563   0.413348   0.078768   0.016999  -0.017819
    39  H   -0.004405   0.033246   0.002885   0.288427  -0.009648   0.015651
    40  H   -0.001088   0.001627   0.023086   0.009671   0.262186  -0.015580
    41  H   -0.000789  -0.002652  -0.004766   0.002736   0.024747   0.259301
    42  H   -0.006385   0.068005   0.043498  -0.015174   0.001283   0.004436
              25         26         27         28         29         30
     1  C   -0.069831   0.509873   0.444642   0.543699   0.012441  -0.019804
     2  C   -0.033301  -0.132585  -0.034501  -0.238554  -0.005626   0.044287
     3  C    1.097768  -0.016009  -0.038384   0.016775  -0.170879   0.236822
     4  C   -0.974886  -0.018687  -0.010077   0.011409   0.310300  -0.068579
     5  C   -1.204817   0.015560  -0.009103   0.002640   0.087892  -0.342822
     6  N    0.049889  -0.000513   0.000082   0.000058  -0.011976   0.176618
     7  C   -0.385002   0.000505   0.000067  -0.000610   0.001791   0.400690
     8  C    0.222599   0.001014  -0.000156  -0.000266  -0.075706  -0.002748
     9  N   -0.011967  -0.000013   0.000000   0.000001   0.000750  -0.000496
    10  C    0.007370  -0.000021   0.000050  -0.000021   0.014395  -0.015698
    11  C    0.130078   0.000013   0.000005  -0.000006  -0.018865   0.009167
    12  C    0.065348   0.000000   0.000002  -0.000002  -0.004272   0.016401
    13  C    0.000317  -0.000000   0.000000  -0.000000  -0.000377   0.000265
    14  C   -0.001005  -0.000000  -0.000000   0.000000   0.000303  -0.000389
    15  C    0.000106  -0.000000  -0.000001   0.000001   0.003753  -0.002982
    16  C   -0.139645  -0.000010  -0.000007   0.000005   0.016962  -0.021806
    17  N   -0.118109  -0.000020   0.000062   0.000002   0.000566  -0.005001
    18  O   -0.148324  -0.000001   0.000001  -0.000000   0.004796   0.000195
    19  C    0.491126  -0.008190  -0.006603   0.010577   0.006697  -0.172677
    20  C   -2.297867  -0.003296   0.000885   0.004578   0.060935  -0.004492
    21  C  -14.052646  -0.000788   0.000232   0.000750   0.045535  -0.000668
    22  C    0.273124  -0.000134  -0.000387   0.000123   0.006296  -0.000062
    23  C    0.569772   0.000159  -0.000334  -0.000260  -0.002239  -0.000065
    24  C  -11.085465   0.000925  -0.001989  -0.001142   0.018411   0.000112
    25  C   33.933838   0.001360   0.003601  -0.002546  -0.065594  -0.003330
    26  H    0.001360   0.518274  -0.026122  -0.026998  -0.000006  -0.000030
    27  H    0.003601  -0.026122   0.520164  -0.026747  -0.000000   0.000002
    28  H   -0.002546  -0.026998  -0.026747   0.528314   0.000024  -0.000002
    29  H   -0.065594  -0.000006  -0.000000   0.000024   0.562505   0.000542
    30  H   -0.003330  -0.000030   0.000002  -0.000002   0.000542   0.503922
    31  H    0.004265   0.000000  -0.000000  -0.000000  -0.000560  -0.000051
    32  H    0.000150  -0.000000   0.000000   0.000000   0.000003   0.000007
    33  H    0.000021   0.000000  -0.000000  -0.000000   0.000000   0.000000
    34  H   -0.000000  -0.000000   0.000000   0.000000   0.000000  -0.000000
    35  H    0.000000  -0.000000  -0.000000  -0.000000  -0.000000   0.000000
    36  H    0.000003  -0.000000   0.000000   0.000000   0.000000   0.000001
    37  H   -0.000242   0.000000  -0.000000  -0.000000   0.000019   0.000039
    38  H   -0.043749   0.000000  -0.000000  -0.000000  -0.000006   0.000000
    39  H   -0.015432  -0.000000   0.000000  -0.000000  -0.000000   0.000000
    40  H    0.030516   0.000000  -0.000000   0.000000   0.000000   0.000000
    41  H    0.030658   0.000000  -0.000000   0.000000  -0.000001   0.000000
    42  H    0.129485   0.000001   0.000005  -0.000012  -0.002465   0.000001
              31         32         33         34         35         36
     1  C    0.000214  -0.000018  -0.000000   0.000000  -0.000000   0.000000
     2  C    0.001863  -0.000488  -0.000021   0.000001  -0.000000   0.000002
     3  C   -0.016295  -0.003592   0.000212  -0.000015  -0.000001   0.000083
     4  C   -0.003911  -0.030298  -0.002182  -0.000107   0.000037   0.000376
     5  C    0.170240  -0.025102  -0.000207  -0.000089   0.000469   0.003234
     6  N   -0.007132   0.002228  -0.000342   0.000008  -0.000067  -0.000450
     7  C   -0.191356   0.002402   0.023565  -0.000098  -0.000522  -0.000624
     8  C   -0.017596   0.019574  -0.005489   0.002375   0.000288  -0.001724
     9  N    0.002296  -0.004680   0.002149  -0.000312  -0.000015   0.000025
    10  C    0.328656   0.463031   0.000776  -0.011784  -0.000089  -0.006482
    11  C   -0.056008  -0.136935   0.095503   0.050600  -0.010456   0.034006
    12  C   -0.146663   0.126055   0.104850   0.009872   0.022548  -0.002807
    13  C   -0.005553   0.022953   0.041439   0.253350   0.004634   0.009829
    14  C    0.001592   0.000054  -0.009350  -0.003247   0.271735   0.006668
    15  C    0.019430  -0.002180   0.004204  -0.001360  -0.008117   0.267135
    16  C    0.164927  -0.110939   0.042808   0.010656   0.028294  -0.000759
    17  N    0.030482   0.004147  -0.000301  -0.000045   0.000002  -0.000020
    18  O   -0.005202  -0.005881  -0.000359   0.000001  -0.000000  -0.000000
    19  C    0.031132  -0.007562  -0.000445  -0.000026   0.000023   0.000015
    20  C   -0.002800   0.013586   0.000234  -0.000004   0.000000  -0.000001
    21  C   -0.000907  -0.005256  -0.000184   0.000000  -0.000000  -0.000002
    22  C    0.000141  -0.000675  -0.000008  -0.000000   0.000000  -0.000000
    23  C    0.000014   0.000070  -0.000000   0.000000  -0.000000   0.000000
    24  C    0.001103  -0.000564  -0.000000  -0.000000   0.000000  -0.000000
    25  C    0.004265   0.000150   0.000021  -0.000000   0.000000   0.000003
    26  H    0.000000  -0.000000   0.000000  -0.000000  -0.000000  -0.000000
    27  H   -0.000000   0.000000  -0.000000   0.000000  -0.000000   0.000000
    28  H   -0.000000   0.000000  -0.000000   0.000000  -0.000000   0.000000
    29  H   -0.000560   0.000003   0.000000   0.000000  -0.000000   0.000000
    30  H   -0.000051   0.000007   0.000000  -0.000000   0.000000   0.000001
    31  H    0.581931  -0.029343   0.000107   0.000002  -0.000000  -0.000005
    32  H   -0.029343   0.501775   0.001873  -0.000003  -0.000000   0.000002
    33  H    0.000107   0.001873   0.573927  -0.005772  -0.000162   0.000016
    34  H    0.000002  -0.000003  -0.005772   0.573236  -0.005604  -0.000172
    35  H   -0.000000  -0.000000  -0.000162  -0.005604   0.577467  -0.005605
    36  H   -0.000005   0.000002   0.000016  -0.000172  -0.005605   0.580038
    37  H    0.003729   0.000180  -0.000166   0.000016  -0.000172  -0.006138
    38  H    0.000001   0.000005   0.000000  -0.000000  -0.000000   0.000000
    39  H   -0.000000  -0.000000   0.000000  -0.000000   0.000000   0.000000
    40  H   -0.000000  -0.000000  -0.000000   0.000000   0.000000   0.000000
    41  H    0.000000   0.000000   0.000000   0.000000  -0.000000   0.000000
    42  H   -0.000001   0.000000  -0.000000   0.000000  -0.000000   0.000000
              37         38         39         40         41         42
     1  C    0.000035   0.000057  -0.000016   0.000046  -0.000399  -0.023708
     2  C    0.000596   0.000616   0.000002  -0.000031  -0.000052   0.010541
     3  C    0.000835   0.003958   0.000234   0.000170  -0.000809  -0.006074
     4  C    0.009417   0.022188  -0.000552  -0.000501   0.001327   0.086679
     5  C    0.014786   0.001013  -0.000384  -0.000010   0.000365  -0.004858
     6  N    0.001443  -0.000002   0.000000   0.000000  -0.000001   0.000035
     7  C    0.012372   0.016887   0.000862  -0.000089   0.000160   0.010139
     8  C   -0.010574   0.003492   0.000013  -0.000006   0.000028   0.000084
     9  N    0.000120   0.000016  -0.000000   0.000000  -0.000000  -0.000000
    10  C   -0.018127  -0.003608  -0.000032   0.000008   0.000000  -0.000943
    11  C    0.158677   0.000354   0.000005   0.000000   0.000002   0.000044
    12  C    0.027025   0.000036  -0.000001  -0.000000  -0.000000   0.000067
    13  C    0.011003   0.000021  -0.000000  -0.000000   0.000000  -0.000000
    14  C   -0.015957  -0.000000   0.000000   0.000000  -0.000000  -0.000000
    15  C    0.080594  -0.000005  -0.000000   0.000000   0.000000  -0.000013
    16  C    0.025197  -0.000033   0.000000   0.000000   0.000001  -0.000165
    17  N   -0.001401  -0.009636   0.000021  -0.000040   0.000107  -0.002106
    18  O    0.000059  -0.004394   0.000400   0.000009  -0.000002   0.000223
    19  C   -0.010812   0.057264  -0.004405  -0.001088  -0.000789  -0.006385
    20  C   -0.000565  -0.229563   0.033246   0.001627  -0.002652   0.068005
    21  C   -0.000020   0.413348   0.002885   0.023086  -0.004766   0.043498
    22  C   -0.000007   0.078768   0.288427   0.009671   0.002736  -0.015174
    23  C   -0.000001   0.016999  -0.009648   0.262186   0.024747   0.001283
    24  C    0.000002  -0.017819   0.015651  -0.015580   0.259301   0.004436
    25  C   -0.000242  -0.043749  -0.015432   0.030516   0.030658   0.129485
    26  H    0.000000   0.000000  -0.000000   0.000000   0.000000   0.000001
    27  H   -0.000000  -0.000000   0.000000  -0.000000  -0.000000   0.000005
    28  H   -0.000000  -0.000000  -0.000000   0.000000   0.000000  -0.000012
    29  H    0.000019  -0.000006  -0.000000   0.000000  -0.000001  -0.002465
    30  H    0.000039   0.000000   0.000000   0.000000   0.000000   0.000001
    31  H    0.003729   0.000001  -0.000000  -0.000000   0.000000  -0.000001
    32  H    0.000180   0.000005  -0.000000  -0.000000   0.000000   0.000000
    33  H   -0.000166   0.000000   0.000000  -0.000000   0.000000  -0.000000
    34  H    0.000016  -0.000000  -0.000000   0.000000   0.000000   0.000000
    35  H   -0.000172  -0.000000   0.000000   0.000000  -0.000000  -0.000000
    36  H   -0.006138   0.000000   0.000000   0.000000   0.000000   0.000000
    37  H    0.616568   0.000000   0.000000  -0.000000   0.000000   0.000000
    38  H    0.000000   0.522255  -0.005560  -0.000142   0.000013  -0.000128
    39  H    0.000000  -0.005560   0.566686  -0.005361  -0.000165   0.000016
    40  H   -0.000000  -0.000142  -0.005361   0.572163  -0.005413  -0.000166
    41  H    0.000000   0.000013  -0.000165  -0.005413   0.573016  -0.006206
    42  H    0.000000  -0.000128   0.000016  -0.000166  -0.006206   0.595009
 Mulliken charges:
               1
     1  C   -0.983638
     2  C    0.535321
     3  C   -0.093079
     4  C    0.862191
     5  C   -0.728446
     6  N   -0.253991
     7  C    0.990740
     8  C   -0.398222
     9  N   -0.355765
    10  C   -0.526847
    11  C    0.636145
    12  C   -0.088171
    13  C    0.067703
    14  C   -0.108031
    15  C   -0.134433
    16  C   -0.345100
    17  N   -0.127404
    18  O    0.072853
    19  C   -0.554472
    20  C    0.413954
    21  C   -0.180300
    22  C   -0.242237
    23  C   -0.149498
    24  C   -0.592177
    25  C   -0.387638
    26  H    0.185740
    27  H    0.184610
    28  H    0.178208
    29  H    0.203656
    30  H    0.272631
    31  H    0.141256
    32  H    0.205422
    33  H    0.133305
    34  H    0.128521
    35  H    0.125312
    36  H    0.123357
    37  H    0.101469
    38  H    0.177353
    39  H    0.133110
    40  H    0.128943
    41  H    0.128793
    42  H    0.118854
 Sum of Mulliken charges =  -0.00000
 Mulliken charges with hydrogens summed into heavy atoms:
               1
     1  C   -0.435079
     2  C    0.535321
     3  C   -0.093079
     4  C    1.065847
     5  C   -0.728446
     6  N    0.018640
     7  C    0.990740
     8  C   -0.398222
     9  N   -0.355765
    10  C   -0.180170
    11  C    0.636145
    12  C    0.045134
    13  C    0.196224
    14  C    0.017282
    15  C   -0.011076
    16  C   -0.243630
    17  N   -0.127404
    18  O    0.072853
    19  C   -0.554472
    20  C    0.413954
    21  C   -0.002947
    22  C   -0.109127
    23  C   -0.020555
    24  C   -0.463384
    25  C   -0.268784
 Electronic spatial extent (au):  <R**2>=           9693.5375
 Charge=             -0.0000 electrons
 Dipole moment (field-independent basis, Debye):
    X=              3.6511    Y=              3.4549    Z=             -4.9438  Tot=              7.0504
 Quadrupole moment (field-independent basis, Debye-Ang):
   XX=           -127.9759   YY=           -136.9911   ZZ=           -156.3462
   XY=              6.6696   XZ=              5.0944   YZ=             -0.9201
 Traceless Quadrupole moment (field-independent basis, Debye-Ang):
   XX=             12.4618   YY=              3.4466   ZZ=            -15.9084
   XY=              6.6696   XZ=              5.0944   YZ=             -0.9201
 Octapole moment (field-independent basis, Debye-Ang**2):
  XXX=             32.6587  YYY=             67.7810  ZZZ=            -41.9955  XYY=             57.8093
  XXY=             -3.2608  XXZ=            -19.1108  XZZ=             22.0651  YZZ=             18.2701
  YYZ=             12.6908  XYZ=             19.7510
 Hexadecapole moment (field-independent basis, Debye-Ang**3):
 XXXX=          -8818.1189 YYYY=          -2362.4537 ZZZZ=          -1318.6990 XXXY=           -135.9752
 XXXZ=           -131.1153 YYYX=            141.1153 YYYZ=             32.3078 ZZZX=            100.5252
 ZZZY=            -11.0689 XXYY=          -1919.1757 XXZZ=          -1867.9595 YYZZ=           -634.5606
 XXYZ=            -97.2196 YYXZ=             59.9702 ZZXY=              2.8475
 N-N= 1.989750711427D+03 E-N=-6.413407464798D+03  KE= 1.039834678734D+03
 Unable to Open any file for archive entry.
 1\1\GINC-N2\SP\RB3LYP TD-FC\6-31+G(d,p)\C21H17N3O1\HPCMGAC13\31-Jul-20
 25\0\\# td=(50-50,nstates=3) b3lyp/6-31+g(d,p) geom=connectivity\\Titl
 e Card Required\\0,1\C,0,2.994992,4.378098,0.845626\C,0,2.262956,3.207
 215,0.369278\C,0,1.674674,2.219491,-0.011434\C,0,0.913266,1.052048,-0.
 46478\C,0,-0.534352,1.078481,0.064057\N,0,-1.331889,2.053351,0.153915\
 C,0,-0.889118,-0.323704,0.540175\C,0,-1.424305,-0.320303,1.908025\N,0,
 -1.854082,-0.306376,2.985228\C,0,-1.798729,-1.138075,-0.442569\C,0,-3.
 231773,-0.673207,-0.561712\C,0,-4.202595,-1.108459,0.352615\C,0,-5.530
 617,-0.695723,0.23042\C,0,-5.909782,0.151754,-0.814012\C,0,-4.953193,0
 .582855,-1.736321\C,0,-3.624857,0.172562,-1.608298\N,0,0.46378,-1.0130
 44,0.551144\O,0,0.510185,-2.199376,1.007835\C,0,1.431823,-0.30432,-0.0
 10714\C,0,2.785275,-0.793143,-0.247265\C,0,3.275352,-1.995056,0.314124
 \C,0,4.576595,-2.417671,0.043348\C,0,5.412356,-1.672707,-0.791596\C,0,
 4.937955,-0.484734,-1.356725\C,0,3.645042,-0.046314,-1.085667\H,0,2.53
 1272,4.788193,1.749041\H,0,4.029928,4.114322,1.088808\H,0,3.016572,5.1
 67417,0.086654\H,0,0.86818,1.068411,-1.567506\H,0,-0.895939,2.917515,-
 0.183481\H,0,-1.306075,-1.101708,-1.420311\H,0,-1.748328,-2.172421,-0.
 090486\H,0,-3.918995,-1.770926,1.165354\H,0,-6.26839,-1.039725,0.94929
 8\H,0,-6.943778,0.469787,-0.910908\H,0,-5.239596,1.237225,-2.554623\H,
 0,-2.886982,0.511324,-2.330996\H,0,2.62864,-2.582135,0.950564\H,0,4.93
 5492,-3.341309,0.487831\H,0,6.422481,-2.012367,-1.001045\H,0,5.576918,
 0.103892,-2.008441\H,0,3.306658,0.885468,-1.523897\\Version=ES64L-G16R
 evC.02\State=1-A\HF=-1049.8526227\RMSD=4.847e-09\PG=C01 [X(C21H17N3O1)
 ]\\@
 The archive entry for this job was punched.


 THERE ONCE WAS A GIRL NAMED IRENE,
 WHO LIVED ON DISTILLED KEROSENE,
      BUT SHE STARTED ABSORBIN'
      A NEW HYDROCARBON,
 AND SINCE THEN HAS NEVER BENZENE.
 Job cpu time:       0 days  3 hours 52 minutes  6.9 seconds.
 Elapsed time:       0 days  0 hours 29 minutes 28.9 seconds.
 File lengths (MBytes):  RWF=   1630 Int=      0 D2E=      0 Chk=     80 Scr=      2
 Normal termination of Gaussian 16 at Thu Jul 31 13:35:54 2025.
