 Entering Gaussian System, Link 0=g16
 Input=M2418e.gjf
 Output=M2418e.log
 Initial command:
 /hpc/softwares/Gaussian/g16/l1.exe "/hpc/home/hpcmgac13/pbs.12495.admin1.x8z/Gau-1915047.inp" -scrdir="/hpc/home/hpcmgac13/pbs.12495.admin1.x8z/"
 Default linda workers: n1
 Default is to use  16 SMP processors on each worker.
 Entering Link 1 = /hpc/softwares/Gaussian/g16/l1.exe PID=   1915048.
  
 Copyright (c) 1988-2021, Gaussian, Inc.  All Rights Reserved.
  
 This is part of the Gaussian(R) 16 program.  It is based on
 the Gaussian(R) 09 system (copyright 2009, Gaussian, Inc.),
 the Gaussian(R) 03 system (copyright 2003, Gaussian, Inc.),
 the Gaussian(R) 98 system (copyright 1998, Gaussian, Inc.),
 the Gaussian(R) 94 system (copyright 1995, Gaussian, Inc.),
 the Gaussian 92(TM) system (copyright 1992, Gaussian, Inc.),
 the Gaussian 90(TM) system (copyright 1990, Gaussian, Inc.),
 the Gaussian 88(TM) system (copyright 1988, Gaussian, Inc.),
 the Gaussian 86(TM) system (copyright 1986, Carnegie Mellon
 University), and the Gaussian 82(TM) system (copyright 1983,
 Carnegie Mellon University). Gaussian is a federally registered
 trademark of Gaussian, Inc.
  
 This software contains proprietary and confidential information,
 including trade secrets, belonging to Gaussian, Inc.
  
 This software is provided under written license and may be
 used, copied, transmitted, or stored only in accord with that
 written license.
  
 The following legend is applicable only to US Government
 contracts under FAR:
  
                    RESTRICTED RIGHTS LEGEND
  
 Use, reproduction and disclosure by the US Government is
 subject to restrictions as set forth in subparagraphs (a)
 and (c) of the Commercial Computer Software - Restricted
 Rights clause in FAR 52.227-19.
  
 Gaussian, Inc.
 340 Quinnipiac St., Bldg. 40, Wallingford CT 06492
  
  
 ---------------------------------------------------------------
 Warning -- This program may not be used in any manner that
 competes with the business of Gaussian, Inc. or will provide
 assistance to any competitor of Gaussian, Inc.  The licensee
 of this program is prohibited from giving any competitor of
 Gaussian, Inc. access to this program.  By using this program,
 the user acknowledges that Gaussian, Inc. is engaged in the
 business of creating and licensing software in the field of
 computational chemistry and represents and warrants to the
 licensee that it is not a competitor of Gaussian, Inc. and that
 it will not use this program in any manner prohibited above.
 ---------------------------------------------------------------
  

 Cite this work as:
 Gaussian 16, Revision C.02,
 M. J. Frisch, G. W. Trucks, H. B. Schlegel, G. E. Scuseria, 
 M. A. Robb, J. R. Cheeseman, G. Scalmani, V. Barone, 
 G. A. Petersson, H. Nakatsuji, X. Li, M. Caricato, A. V. Marenich, 
 J. Bloino, B. G. Janesko, R. Gomperts, B. Mennucci, H. P. Hratchian, 
 J. V. Ortiz, A. F. Izmaylov, J. L. Sonnenberg, D. Williams-Young, 
 F. Ding, F. Lipparini, F. Egidi, J. Goings, B. Peng, A. Petrone, 
 T. Henderson, D. Ranasinghe, V. G. Zakrzewski, J. Gao, N. Rega, 
 G. Zheng, W. Liang, M. Hada, M. Ehara, K. Toyota, R. Fukuda, 
 J. Hasegawa, M. Ishida, T. Nakajima, Y. Honda, O. Kitao, H. Nakai, 
 T. Vreven, K. Throssell, J. A. Montgomery, Jr., J. E. Peralta, 
 F. Ogliaro, M. J. Bearpark, J. J. Heyd, E. N. Brothers, K. N. Kudin, 
 V. N. Staroverov, T. A. Keith, R. Kobayashi, J. Normand, 
 K. Raghavachari, A. P. Rendell, J. C. Burant, S. S. Iyengar, 
 J. Tomasi, M. Cossi, J. M. Millam, M. Klene, C. Adamo, R. Cammi, 
 J. W. Ochterski, R. L. Martin, K. Morokuma, O. Farkas, 
 J. B. Foresman, and D. J. Fox, Gaussian, Inc., Wallingford CT, 2019.
 
 ******************************************
 Gaussian 16:  ES64L-G16RevC.02  7-Dec-2021
                30-Jul-2025 
 ******************************************
 SetLPE:    new flags="-opt 'Tsnet.Node.lindarsharg: ssh'  -nodelist 'n1' -env GAUSS_MDEF=2147483648 -env GAUSS_EXEDIR="/hpc/softwares/Gaussian/g16/bsd:/hpc/softwares/Gaussian/g16""
 Will use up to    1 processors via Linda.
 ----------------------------------------------------------
 # td=(50-50,nstates=3) b3lyp/6-31+g(d,p) geom=connectivity
 ----------------------------------------------------------
 1/38=1,57=2,172=1/1;
 2/12=2,17=6,18=5,40=1/2;
 3/5=1,6=6,7=111,11=9,25=1,30=1,74=-5/1,2,3,8;
 4//1;
 5/5=2,38=5/2;
 8/6=1,10=2,108=3/1;
 9/41=3,42=1,48=2,70=2/14;
 6/7=2,8=2,9=2,10=2/1;
 99/5=1,9=1/99;
 -------------------
 Title Card Required
 -------------------
 Symbolic Z-matrix:
 Charge =  0 Multiplicity = 1
 C                    -3.63838  -1.89067  -0.96967 
 C                    -3.04936  -0.7724   -0.48668 
 C                    -3.87001   0.40262  -0.36995 
 N                    -4.59128   1.31176  -0.29146 
 C                    -1.64232  -0.74665  -0.06884 
 C                    -0.76982   0.1792    0.39087 
 C                    -0.88012   1.65649   0.72693 
 C                    -1.25238   2.56519  -0.4627 
 C                    -1.77556   1.91556   1.95902 
 C                     0.53888  -0.54241   0.67056 
 C                     1.77848  -0.02018  -0.05356 
 C                     1.6749    0.35568  -1.39968 
 C                     2.78465   0.8125   -2.11031 
 C                     4.02073   0.89747  -1.46854 
 C                     4.13194   0.51542  -0.13099 
 C                     3.02828   0.04719   0.59789 
 C                     3.21418  -0.38402   2.03651 
 C                     0.22468  -1.98945   0.29555 
 O                     0.91335  -2.97206   0.3571 
 O                    -1.07181  -2.03229  -0.16191 
 H                    -3.08065  -2.8131   -1.06829 
 H                    -4.68138  -1.87979  -1.26326 
 H                     0.13824   1.94522   1.01614 
 H                    -1.17865   3.61382  -0.15446 
 H                    -0.56594   2.41447  -1.30087 
 H                    -2.27219   2.39688  -0.81208 
 H                    -1.69197   2.96495   2.26206 
 H                    -1.47022   1.29495   2.80847 
 H                    -2.82791   1.71347   1.74762 
 H                     0.72855  -0.52968   1.75123 
 H                     0.71175   0.28732  -1.89819 
 H                     2.68248   1.09705  -3.15323 
 H                     4.89528   1.25345  -2.00521 
 H                     5.09843   0.57387   0.36274 
 H                     4.25743  -0.26468   2.33988 
 H                     2.60543   0.21135   2.7286 
 H                     2.94527  -1.43636   2.17901 
 
                          Input orientation:                          
 ---------------------------------------------------------------------
 Center     Atomic      Atomic             Coordinates (Angstroms)
 Number     Number       Type             X           Y           Z
 ---------------------------------------------------------------------
      1          6           0       -3.638375   -1.890672   -0.969671
      2          6           0       -3.049357   -0.772403   -0.486683
      3          6           0       -3.870005    0.402623   -0.369945
      4          7           0       -4.591283    1.311764   -0.291458
      5          6           0       -1.642317   -0.746649   -0.068842
      6          6           0       -0.769817    0.179195    0.390871
      7          6           0       -0.880118    1.656492    0.726928
      8          6           0       -1.252379    2.565192   -0.462695
      9          6           0       -1.775564    1.915563    1.959023
     10          6           0        0.538882   -0.542409    0.670563
     11          6           0        1.778483   -0.020181   -0.053564
     12          6           0        1.674901    0.355684   -1.399679
     13          6           0        2.784649    0.812495   -2.110312
     14          6           0        4.020727    0.897466   -1.468536
     15          6           0        4.131939    0.515423   -0.130985
     16          6           0        3.028285    0.047193    0.597885
     17          6           0        3.214176   -0.384020    2.036507
     18          6           0        0.224683   -1.989450    0.295549
     19          8           0        0.913345   -2.972059    0.357104
     20          8           0       -1.071809   -2.032290   -0.161910
     21          1           0       -3.080651   -2.813100   -1.068288
     22          1           0       -4.681377   -1.879794   -1.263263
     23          1           0        0.138235    1.945222    1.016144
     24          1           0       -1.178652    3.613823   -0.154458
     25          1           0       -0.565941    2.414474   -1.300871
     26          1           0       -2.272186    2.396883   -0.812079
     27          1           0       -1.691969    2.964945    2.262057
     28          1           0       -1.470217    1.294946    2.808468
     29          1           0       -2.827914    1.713467    1.747624
     30          1           0        0.728550   -0.529681    1.751230
     31          1           0        0.711745    0.287321   -1.898185
     32          1           0        2.682475    1.097048   -3.153227
     33          1           0        4.895275    1.253445   -2.005206
     34          1           0        5.098430    0.573871    0.362735
     35          1           0        4.257425   -0.264675    2.339878
     36          1           0        2.605430    0.211353    2.728604
     37          1           0        2.945274   -1.436360    2.179012
 ---------------------------------------------------------------------
                    Distance matrix (angstroms):
                    1          2          3          4          5
     1  C    0.000000
     2  C    1.353050   0.000000
     3  C    2.381706   1.437977   0.000000
     4  N    3.409341   2.599885   1.163159   0.000000
     5  C    2.470735   1.467997   2.524695   3.603196   0.000000
     6  C    3.789993   2.621439   3.199989   4.043747   1.352693
     7  C    4.802999   3.475339   3.422681   3.863767   2.643725
     8  C    5.079835   3.790679   3.396656   3.570530   3.357896
     9  C    5.151188   3.850868   3.478471   3.654793   3.349233
    10  C    4.685900   3.777244   4.627529   5.539137   2.312155
    11  C    5.803476   4.905249   5.673119   6.511881   3.497122
    12  C    5.784628   4.942141   5.639906   6.434851   3.740348
    13  C    7.061403   6.259688   6.890667   7.613269   5.118257
    14  C    8.166053   7.330661   7.982194   8.701946   6.060720
    15  C    8.177436   7.304521   8.006306   8.760965   5.910898
    16  C    7.117367   6.227821   6.974914   7.774824   4.784269
    17  C    7.633123   6.763814   7.522994   8.319873   5.305612
    18  C    4.066172   3.579445   4.788671   5.868230   2.272229
    19  O    4.862909   4.610149   5.898942   7.005191   3.415448
    20  O    2.694401   2.367169   3.715102   4.856560   1.409615
    21  H    1.082430   2.122189   3.384027   4.460939   2.708859
    22  H    1.083590   2.119642   2.581815   3.337449   3.456377
    23  H    5.737624   4.450249   4.512964   4.947669   3.404957
    24  H    6.083936   4.780051   4.195429   4.118773   4.385890
    25  H    5.299418   4.121461   3.978820   4.293980   3.559379
    26  H    4.502714   3.279367   2.593373   2.612803   3.291038
    27  H    6.148949   4.833823   4.270453   4.202317   4.383091
    28  H    5.396611   4.198290   4.081364   4.398963   3.532229
    29  H    4.585887   3.349733   2.699697   2.725562   3.279841
    30  H    5.322183   4.397698   5.149299   5.988666   2.996790
    31  H    4.952710   4.154665   4.831278   5.634994   3.155503
    32  H    7.324448   6.592359   7.152893   7.819423   5.622853
    33  H    9.153195   8.338294   8.957015   9.640286   7.105631
    34  H    9.175023   8.301831   8.999943   9.739763   6.882420
    35  H    8.714393   7.850879   8.593227   9.365293   6.390711
    36  H    7.555187   6.578941   7.181145   7.881901   5.175599
    37  H    7.311979   6.594116   7.505136   8.393754   5.155050
                    6          7          8          9         10
     6  C    0.000000
     7  C    1.519048   0.000000
     8  C    2.579617   1.542568   0.000000
     9  C    2.546684   1.544992   2.561339   0.000000
    10  C    1.520406   2.617614   3.761658   3.613643   0.000000
    11  C    2.594438   3.238605   4.004706   4.519830   1.527643
    12  C    3.035435   3.569689   3.785344   5.061602   2.526462
    13  C    4.392176   4.710921   4.699381   6.210619   3.822630
    14  C    5.188701   5.423510   5.621270   6.810409   4.332693
    15  C    4.940910   5.211408   5.770829   6.420835   3.830345
    16  C    3.806029   4.228724   5.078310   5.331085   2.559305
    17  C    4.347129   4.758354   5.907112   5.494688   3.008004
    18  C    2.387706   3.834001   4.847825   4.692255   1.527509
    19  O    3.572755   4.977626   6.001965   5.803897   2.478241
    20  O    2.299442   3.799196   4.610848   4.536427   2.346717
    21  H    4.052521   5.295507   5.712735   5.764384   4.613097
    22  H    4.719735   5.560193   5.670700   5.764687   5.725328
    23  H    2.081916   1.097294   2.122530   2.133665   2.543276
    24  H    3.501600   2.167281   1.095478   2.776183   4.572182
    25  H    2.810699   2.187513   1.093825   3.512693   3.721605
    26  H    2.936382   2.203310   1.091056   2.856100   4.328945
    27  H    3.480245   2.174344   2.788784   1.095454   4.450964
    28  H    2.753223   2.193568   3.515890   1.095426   3.461646
    29  H    2.903538   2.199767   2.844865   1.092233   4.193370
    30  H    2.144338   2.901096   4.289963   3.506135   1.097259
    31  H    2.728827   3.361529   3.332733   4.869901   2.704958
    32  H    5.032038   5.297230   4.987733   6.832216   4.680190
    33  H    6.244074   6.401732   6.472532   7.788042   5.418763
    34  H    5.881572   6.086686   6.706673   7.183319   4.704287
    35  H    5.410066   5.717240   6.798566   6.426153   4.085500
    36  H    4.105889   4.271320   5.532417   4.763370   3.012360
    37  H    4.428247   5.129123   6.372702   5.793971   2.977464
                   11         12         13         14         15
    11  C    0.000000
    12  C    1.401438   0.000000
    13  C    2.436377   1.394710   0.000000
    14  C    2.805687   2.408562   1.395344   0.000000
    15  C    2.414875   2.769862   2.412712   1.395481   0.000000
    16  C    1.411003   2.432504   2.824779   2.444995   1.403048
    17  C    2.561638   3.837174   4.337309   3.818122   2.519783
    18  C    2.532626   3.236755   4.493605   5.084902   4.660791
    19  O    3.103336   3.839287   4.890068   5.287911   4.770756
    20  O    3.490628   3.844334   5.173136   6.018693   5.794031
    21  H    5.695722   5.724184   6.973700   8.022348   7.998691
    22  H    6.830177   6.739306   7.981695   9.136844   9.202916
    23  H    2.774436   3.274778   4.249859   4.727068   4.394303
    24  H    4.686236   4.506530   5.232644   6.011567   6.148415
    25  H    3.602727   3.044627   3.801050   4.833937   5.200491
    26  H    4.777600   4.482328   5.455939   6.502303   6.709441
    27  H    5.130021   5.617149   6.617459   7.129284   6.756087
    28  H    4.524913   5.336898   6.521583   6.971457   6.374339
    29  H    5.241060   5.659013   6.869955   7.610087   7.307806
    30  H    2.149240   3.407004   4.576078   4.821003   4.027162
    31  H    2.152932   1.086670   2.148892   3.392084   3.856521
    32  H    3.416623   2.154009   1.085855   2.160772   3.401938
    33  H    3.891712   3.397565   2.158756   1.086080   2.154080
    34  H    3.398272   3.856716   3.395068   2.149351   1.086867
    35  H    3.454489   4.586781   4.809735   3.988811   2.594121
    36  H    2.911685   4.234316   4.879406   4.482165   3.255755
    37  H    2.889872   4.199083   4.845766   4.461833   3.248648
                   16         17         18         19         20
    16  C    0.000000
    17  C    1.513319   0.000000
    18  C    3.478434   3.813844   0.000000
    19  O    3.694162   3.848657   1.201484   0.000000
    20  O    4.659647   5.091120   1.375498   2.256851   0.000000
    21  H    6.948130   7.427316   3.669289   4.243703   2.338083
    22  H    8.161865   8.687093   5.148917   5.926175   3.776932
    23  H    3.482793   3.990980   4.001047   5.021432   4.321183
    24  H    5.566434   6.330878   5.793835   6.929068   5.647129
    25  H    4.704015   5.767057   4.750599   5.826826   4.618100
    26  H    5.966912   6.778498   5.167312   6.351388   4.634781
    27  H    5.793405   5.944468   5.664516   6.757553   5.588611
    28  H    5.165277   5.035711   4.469307   5.467896   4.477988
    29  H    6.196244   6.402324   5.013827   6.155056   4.556415
    30  H    2.636621   2.506180   2.122219   2.818323   3.026422
    31  H    3.413852   4.711121   3.198966   3.968694   3.402398
    32  H    3.910578   5.423063   5.240350   5.657727   5.730217
    33  H    3.422978   4.673631   6.133863   6.268266   7.056903
    34  H    2.148996   2.696198   5.507135   5.485307   6.718570
    35  H    2.154666   1.092998   4.839126   4.737530   6.146881
    36  H    2.178467   1.097287   4.053547   4.315238   5.187590
    37  H    2.169743   1.095461   3.354841   3.131526   4.687430
                   21         22         23         24         25
    21  H    0.000000
    22  H    1.863169   0.000000
    23  H    6.111277   6.561639   0.000000
    24  H    6.764468   6.608960   2.426670   0.000000
    25  H    5.805634   5.948022   2.466702   1.768648   0.000000
    26  H    5.278559   4.929273   3.058844   1.763299   1.774965
    27  H    6.812154   6.695964   2.437577   2.554228   3.776958
    28  H    5.873566   6.080256   2.494474   3.773742   4.354047
    29  H    5.336951   5.041060   3.063791   3.154256   3.860214
    30  H    5.260579   6.338555   2.648390   4.943449   4.433856
    31  H    4.968260   5.846818   3.401597   4.204735   2.552263
    32  H    7.269790   8.164549   4.957440   5.498643   3.964725
    33  H    9.001666  10.103461   5.677723   6.774160   5.627518
    34  H    8.967540  10.213176   5.187589   6.993608   6.183891
    35  H    8.482772   9.772073   4.858358   7.128492   6.610428
    36  H    7.476311   8.567698   3.467834   5.848771   5.581040
    37  H    6.982273   8.379242   4.546078   6.925041   6.266350
                   26         27         28         29         30
    26  H    0.000000
    27  H    3.179569   0.000000
    28  H    3.868563   1.771055   0.000000
    29  H    2.707022   1.766695   1.773102   0.000000
    30  H    4.913222   4.281620   3.046571   4.204778   0.000000
    31  H    3.812312   5.500466   5.284775   5.277784   3.739787
    32  H    5.631981   7.207642   7.268137   7.400182   5.524289
    33  H    7.355508   8.033091   7.980769   8.599012   5.886590
    34  H    7.683068   7.445413   7.046182   8.126717   4.716100
    35  H    7.723635   6.769918   5.954652   7.380098   3.587435
    36  H    6.411249   5.125190   4.217991   5.721879   2.242113
    37  H    7.131779   6.393935   5.229991   6.590691   2.432885
                   31         32         33         34         35
    31  H    0.000000
    32  H    2.472765   0.000000
    33  H    4.294971   2.497778   0.000000
    34  H    4.943367   4.297969   2.471889   0.000000
    35  H    5.553172   5.874433   4.646644   2.306414   0.000000
    36  H    4.999899   5.948641   5.360812   3.455981   1.762611
    37  H    4.958151   5.909314   5.342774   3.460632   1.766483
                   36         37
    36  H    0.000000
    37  H    1.769888   0.000000
 Stoichiometry    C17H17NO2
 Framework group  C1[X(C17H17NO2)]
 Deg. of freedom   105
 Full point group                 C1      NOp   1
 Largest Abelian subgroup         C1      NOp   1
 Largest concise Abelian subgroup C1      NOp   1
                         Standard orientation:                         
 ---------------------------------------------------------------------
 Center     Atomic      Atomic             Coordinates (Angstroms)
 Number     Number       Type             X           Y           Z
 ---------------------------------------------------------------------
      1          6           0        3.638375    1.890672   -0.969671
      2          6           0        3.049357    0.772403   -0.486683
      3          6           0        3.870005   -0.402623   -0.369945
      4          7           0        4.591283   -1.311764   -0.291458
      5          6           0        1.642317    0.746649   -0.068842
      6          6           0        0.769817   -0.179195    0.390871
      7          6           0        0.880118   -1.656492    0.726928
      8          6           0        1.252379   -2.565192   -0.462695
      9          6           0        1.775564   -1.915563    1.959023
     10          6           0       -0.538882    0.542409    0.670563
     11          6           0       -1.778483    0.020181   -0.053564
     12          6           0       -1.674901   -0.355684   -1.399679
     13          6           0       -2.784649   -0.812495   -2.110312
     14          6           0       -4.020727   -0.897466   -1.468536
     15          6           0       -4.131939   -0.515423   -0.130985
     16          6           0       -3.028285   -0.047193    0.597885
     17          6           0       -3.214176    0.384020    2.036507
     18          6           0       -0.224683    1.989450    0.295549
     19          8           0       -0.913345    2.972059    0.357104
     20          8           0        1.071809    2.032290   -0.161910
     21          1           0        3.080651    2.813100   -1.068288
     22          1           0        4.681377    1.879794   -1.263263
     23          1           0       -0.138235   -1.945222    1.016144
     24          1           0        1.178652   -3.613823   -0.154458
     25          1           0        0.565941   -2.414474   -1.300871
     26          1           0        2.272186   -2.396883   -0.812079
     27          1           0        1.691969   -2.964945    2.262057
     28          1           0        1.470217   -1.294946    2.808468
     29          1           0        2.827914   -1.713467    1.747624
     30          1           0       -0.728550    0.529681    1.751230
     31          1           0       -0.711745   -0.287321   -1.898185
     32          1           0       -2.682475   -1.097048   -3.153227
     33          1           0       -4.895275   -1.253445   -2.005206
     34          1           0       -5.098430   -0.573871    0.362735
     35          1           0       -4.257425    0.264675    2.339878
     36          1           0       -2.605430   -0.211353    2.728604
     37          1           0       -2.945274    1.436360    2.179012
 ---------------------------------------------------------------------
 Rotational constants (GHZ):           0.5735502           0.2373825           0.2098186
 Standard basis: 6-31+G(d,p) (6D, 7F)
 There are   465 symmetry adapted cartesian basis functions of A   symmetry.
 There are   465 symmetry adapted basis functions of A   symmetry.
   465 basis functions,   759 primitive gaussians,   465 cartesian basis functions
    71 alpha electrons       71 beta electrons
       nuclear repulsion energy      1502.3758645534 Hartrees.
 NAtoms=   37 NActive=   37 NUniq=   37 SFac= 1.00D+00 NAtFMM=   60 NAOKFM=F Big=F
 Integral buffers will be    131072 words long.
 Regular integral format.
 Two-electron integral symmetry is turned on.
 One-electron integrals computed using PRISM.
 NBasis=   465 RedAO= T EigKep=  2.09D-06  NBF=   465
 NBsUse=   461 1.00D-06 EigRej=  9.86D-07 NBFU=   461
 ExpMin= 4.38D-02 ExpMax= 5.48D+03 ExpMxC= 8.25D+02 IAcc=3 IRadAn=         5 AccDes= 0.00D+00
 Harris functional with IExCor=  402 and IRadAn=       5 diagonalized for initial guess.
 HarFok:  IExCor=  402 AccDes= 0.00D+00 IRadAn=         5 IDoV= 1 UseB2=F ITyADJ=14
 ICtDFT=  3500011 ScaDFX=  1.000000  1.000000  1.000000  1.000000
 FoFCou: FMM=F IPFlag=           0 FMFlag=      100000 FMFlg1=           0
         NFxFlg=           0 DoJE=T BraDBF=F KetDBF=T FulRan=T
         wScrn=  0.000000 ICntrl=       500 IOpCl=  0 I1Cent=   200000004 NGrid=           0
         NMat0=    1 NMatS0=      1 NMatT0=    0 NMatD0=    1 NMtDS0=    0 NMtDT0=    0
 Petite list used in FoFCou.
 Requested convergence on RMS density matrix=1.00D-08 within 128 cycles.
 Requested convergence on MAX density matrix=1.00D-06.
 Requested convergence on             energy=1.00D-06.
 No special actions if energy rises.
 SCF Done:  E(RB3LYP) =  -863.262518176     A.U. after   16 cycles
            NFock= 16  Conv=0.67D-08     -V/T= 2.0096
 DoSCS=F DFT=T ScalE2(SS,OS)=  1.000000  1.000000
 ExpMin= 4.38D-02 ExpMax= 5.48D+03 ExpMxC= 8.25D+02 IAcc=3 IRadAn=         5 AccDes= 0.00D+00
 HarFok:  IExCor=  205 AccDes= 0.00D+00 IRadAn=         5 IDoV=-2 UseB2=F ITyADJ=14
 ICtDFT= 12500011 ScaDFX=  1.000000  1.000000  1.000000  1.000000
 Range of M.O.s used for correlation:    21   461
 NBasis=   465 NAE=    71 NBE=    71 NFC=    20 NFV=     0
 NROrb=    441 NOA=    51 NOB=    51 NVA=   390 NVB=   390

 **** Warning!!: The largest alpha MO coefficient is  0.12586962D+03

 Orbital symmetries:
       Occupied  (A) (A) (A) (A) (A) (A) (A) (A) (A) (A) (A) (A)
                 (A) (A) (A) (A) (A) (A) (A) (A) (A) (A) (A) (A)
                 (A) (A) (A) (A) (A) (A) (A) (A) (A) (A) (A) (A)
                 (A) (A) (A) (A) (A) (A) (A) (A) (A) (A) (A) (A)
                 (A) (A) (A) (A) (A) (A) (A) (A) (A) (A) (A) (A)
                 (A) (A) (A) (A) (A) (A) (A) (A) (A) (A) (A)
       Virtual   (A) (A) (A) (A) (A) (A) (A) (A) (A) (A) (A) (A)
                 (A) (A) (A) (A) (A) (A) (A) (A) (A) (A) (A) (A)
                 (A) (A) (A) (A) (A) (A) (A) (A) (A) (A) (A) (A)
                 (A) (A) (A) (A) (A) (A) (A) (A) (A) (A) (A) (A)
                 (A) (A) (A) (A) (A) (A) (A) (A) (A) (A) (A) (A)
                 (A) (A) (A) (A) (A) (A) (A) (A) (A) (A) (A) (A)
                 (A) (A) (A) (A) (A) (A) (A) (A) (A) (A) (A) (A)
                 (A) (A) (A) (A) (A) (A) (A) (A) (A) (A) (A) (A)
                 (A) (A) (A) (A) (A) (A) (A) (A) (A) (A) (A) (A)
                 (A) (A) (A) (A) (A) (A) (A) (A) (A) (A) (A) (A)
                 (A) (A) (A) (A) (A) (A) (A) (A) (A) (A) (A) (A)
                 (A) (A) (A) (A) (A) (A) (A) (A) (A) (A) (A) (A)
                 (A) (A) (A) (A) (A) (A) (A) (A) (A) (A) (A) (A)
                 (A) (A) (A) (A) (A) (A) (A) (A) (A) (A) (A) (A)
                 (A) (A) (A) (A) (A) (A) (A) (A) (A) (A) (A) (A)
                 (A) (A) (A) (A) (A) (A) (A) (A) (A) (A) (A) (A)
                 (A) (A) (A) (A) (A) (A) (A) (A) (A) (A) (A) (A)
                 (A) (A) (A) (A) (A) (A) (A) (A) (A) (A) (A) (A)
                 (A) (A) (A) (A) (A) (A) (A) (A) (A) (A) (A) (A)
                 (A) (A) (A) (A) (A) (A) (A) (A) (A) (A) (A) (A)
                 (A) (A) (A) (A) (A) (A) (A) (A) (A) (A) (A) (A)
                 (A) (A) (A) (A) (A) (A) (A) (A) (A) (A) (A) (A)
                 (A) (A) (A) (A) (A) (A) (A) (A) (A) (A) (A) (A)
                 (A) (A) (A) (A) (A) (A) (A) (A) (A) (A) (A) (A)
                 (A) (A) (A) (A) (A) (A) (A) (A) (A) (A) (A) (A)
                 (A) (A) (A) (A) (A) (A) (A) (A) (A) (A) (A) (A)
                 (A) (A) (A) (A) (A) (A) (A) (A) (A) (A) (A) (A)
                 (A) (A) (A) (A) (A) (A) (A) (A) (A) (A) (A) (A)
                 (A) (A) (A) (A) (A) (A) (A) (A) (A) (A) (A) (A)
                 (A) (A) (A) (A) (A) (A) (A) (A) (A) (A) (A) (A)
                 (A) (A) (A) (A) (A) (A) (A) (A) (A) (A) (A) (A)
                 (A) (A) (A) (A) (A) (A) (A) (A) (A) (A) (A) (A)
                 (A) (A) (A) (A) (A) (A)
    24 initial guesses have been made.
 Convergence on wavefunction:    0.001000000000000
 Iteration     1 Dimension    24 NMult     0 NNew     24
 CISAX will form    24 AO SS matrices at one time.
 New state      1 was old state      2
 New state      2 was old state      4
 New state      4 was old state      6
 New state      6 was old state     14
 New state      7 was old state     24
 New state      8 was old state     16
 New state      9 was old state      1
 New state     11 was old state     20
 New state     12 was old state      8
 Vector   6 SDiff=1.60D+01 TDiff=1.09D+02 assumed to be singlet.
 Vector  12 SDiff=1.27D+01 TDiff=7.32D+01 assumed to be singlet.
 Iteration     2 Dimension    36 NMult    24 NNew     12
 New state      2 was old state      6
 New state      4 was old state      2
 New state      6 was old state      9
 Iteration     3 Dimension    48 NMult    36 NNew     12
 New state      3 was old state      4
 New state      4 was old state      3
 Iteration     4 Dimension    60 NMult    48 NNew     12
 Iteration     5 Dimension    72 NMult    60 NNew     12
 Iteration     6 Dimension    82 NMult    72 NNew     10
 Iteration     7 Dimension    86 NMult    82 NNew      4
 ***********************************************************************
 Excited states from <AA,BB:AA,BB> singles matrix:
 ***********************************************************************
 
 Ground to excited state transition densities written to RWF  633
 Ground to excited state transition electric dipole moments (Au):
       state          X           Y           Z        Dip. S.      Osc.
         1        -0.0000      0.0000     -0.0000      0.0000      0.0000
         2        -0.0000      0.0000     -0.0000      0.0000      0.0000
         3        -0.0000     -0.0000      0.0000      0.0000      0.0000
         4        -0.6585     -0.3566      0.2139      0.6066      0.0601
         5         0.8895      0.6311     -0.2741      1.2647      0.1298
         6        -0.7079     -0.6299      0.3186      0.9994      0.1062
 Ground to excited state transition velocity dipole moments (Au):
       state          X           Y           Z        Dip. S.      Osc.
         1         0.0000     -0.0000      0.0000      0.0000      0.0000
         2         0.0000      0.0000      0.0000      0.0000      0.0000
         3         0.0000      0.0000      0.0000      0.0000      0.0000
         4         0.0927      0.0517     -0.0327      0.0123      0.0553
         5        -0.1310     -0.0966      0.0400      0.0281      0.1216
         6         0.1105      0.0996     -0.0502      0.0246      0.1031
 Ground to excited state transition magnetic dipole moments (Au):
       state          X           Y           Z
         1         0.0000      0.0000     -0.0000
         2         0.0000     -0.0000     -0.0000
         3        -0.0000      0.0000     -0.0000
         4         0.1287      0.1023      0.1111
         5         0.0506     -0.2457     -0.2788
         6        -0.0879      0.2005      0.2838
 Ground to excited state transition velocity quadrupole moments (Au):
       state          XX          YY          ZZ          XY          XZ          YZ
         1        -0.0000      0.0000      0.0000     -0.0000     -0.0000     -0.0000
         2         0.0000     -0.0000      0.0000     -0.0000      0.0000      0.0000
         3         0.0000      0.0000      0.0000     -0.0000     -0.0000     -0.0000
         4         0.3181      0.1032     -0.0478      0.2970     -0.1801     -0.0713
         5        -0.6044     -0.1403      0.0679     -0.4999      0.3445      0.1128
         6         0.6495      0.1116     -0.0361      0.5413     -0.2853     -0.1053
 <0|del|b> * <b|rxdel|0> + <0|del|b> * <b|delr+rdel|0>
 Rotatory Strengths (R) in cgs (10**-40 erg-esu-cm/Gauss)
       state          XX          YY          ZZ    R(velocity)    E-M Angle
         1        -0.0000     -0.0000      0.0000     -0.0000       90.00
         2        -0.0000      0.0000     -0.0000     -0.0000       90.00
         3         0.0000     -0.0000      0.0000     -0.0000       90.00
         4         2.9985     27.1129     34.5421     21.5512       51.92
         5        59.4607    -28.8794     -3.1837      9.1325       84.56
         6        15.3630    -18.6609    -14.4834     -5.9271       94.08
 1/2[<0|r|b>*<b|rxdel|0> + (<0|rxdel|b>*<b|r|0>)*]
 Rotatory Strengths (R) in cgs (10**-40 erg-esu-cm/Gauss)
       state          XX          YY          ZZ     R(length)
         1         0.0000     -0.0000     -0.0000     -0.0000
         2         0.0000      0.0000     -0.0000     -0.0000
         3        -0.0000      0.0000      0.0000      0.0000
         4        59.9235     25.7872    -16.8026     22.9694
         5       -31.8379    109.6673    -54.0415      7.9293
         6       -44.0097     89.3075    -63.9367     -6.2130
  1/2[<0|del|b>*<b|r|0> + (<0|r|b>*<b|del|0>)*] (Au)
       state          X           Y           Z        Dip. S.   Osc.(frdel)
         1        -0.0000     -0.0000     -0.0000      0.0000      0.0000
         2        -0.0000      0.0000     -0.0000      0.0000      0.0000
         3        -0.0000     -0.0000      0.0000      0.0000      0.0000
         4        -0.0610     -0.0184     -0.0070      0.0864      0.0576
         5        -0.1165     -0.0610     -0.0110      0.1884      0.1256
         6        -0.0782     -0.0627     -0.0160      0.1570      0.1046

 Excitation energies and oscillator strengths:
 
 Excited State   1:      Triplet-A      2.3203 eV  534.35 nm  f=0.0000  <S**2>=2.000
      67 -> 72         0.19366
      69 -> 72         0.15291
      70 -> 72        -0.14722
      71 -> 72         0.63738
      71 <- 72         0.11932
 This state for optimization and/or second-order correction.
 Total Energy, E(TD-HF/TD-DFT) =  -863.177249297    
 Copying the excited state density for this state as the 1-particle RhoCI density.
 
 Excited State   2:      Triplet-A      3.6477 eV  339.89 nm  f=0.0000  <S**2>=2.000
      69 -> 73        -0.17418
      69 -> 74         0.36278
      69 -> 75        -0.14366
      70 -> 73         0.31867
      70 -> 75        -0.35437
      71 -> 73         0.18053
      71 -> 74        -0.14034
 
 Excited State   3:      Triplet-A      3.8784 eV  319.68 nm  f=0.0000  <S**2>=2.000
      67 -> 72         0.57016
      71 -> 72        -0.12146
      71 -> 73        -0.17076
      71 -> 74        -0.13191
      71 -> 75        -0.18925
      71 -> 80         0.14566
 
 Excited State   4:      Singlet-A      4.0425 eV  306.70 nm  f=0.0601  <S**2>=0.000
      69 -> 72        -0.19896
      70 -> 72         0.48640
      71 -> 72         0.46204
 
 Excited State   5:      Singlet-A      4.1879 eV  296.05 nm  f=0.1298  <S**2>=0.000
      67 -> 72         0.11147
      69 -> 72         0.23822
      70 -> 72         0.50541
      71 -> 72        -0.41363
 
 Excited State   6:      Singlet-A      4.3355 eV  285.98 nm  f=0.1062  <S**2>=0.000
      67 -> 72        -0.12470
      69 -> 72         0.62542
      71 -> 72         0.28769
 SavETr:  write IOETrn=   770 NScale= 10 NData=  16 NLR=1 NState=    6 LETran=     118.

 **********************************************************************

            Population analysis using the SCF Density.

 **********************************************************************

 Orbital symmetries:
       Occupied  (A) (A) (A) (A) (A) (A) (A) (A) (A) (A) (A) (A)
                 (A) (A) (A) (A) (A) (A) (A) (A) (A) (A) (A) (A)
                 (A) (A) (A) (A) (A) (A) (A) (A) (A) (A) (A) (A)
                 (A) (A) (A) (A) (A) (A) (A) (A) (A) (A) (A) (A)
                 (A) (A) (A) (A) (A) (A) (A) (A) (A) (A) (A) (A)
                 (A) (A) (A) (A) (A) (A) (A) (A) (A) (A) (A)
       Virtual   (A) (A) (A) (A) (A) (A) (A) (A) (A) (A) (A) (A)
                 (A) (A) (A) (A) (A) (A) (A) (A) (A) (A) (A) (A)
                 (A) (A) (A) (A) (A) (A) (A) (A) (A) (A) (A) (A)
                 (A) (A) (A) (A) (A) (A) (A) (A) (A) (A) (A) (A)
                 (A) (A) (A) (A) (A) (A) (A) (A) (A) (A) (A) (A)
                 (A) (A) (A) (A) (A) (A) (A) (A) (A) (A) (A) (A)
                 (A) (A) (A) (A) (A) (A) (A) (A) (A) (A) (A) (A)
                 (A) (A) (A) (A) (A) (A) (A) (A) (A) (A) (A) (A)
                 (A) (A) (A) (A) (A) (A) (A) (A) (A) (A) (A) (A)
                 (A) (A) (A) (A) (A) (A) (A) (A) (A) (A) (A) (A)
                 (A) (A) (A) (A) (A) (A) (A) (A) (A) (A) (A) (A)
                 (A) (A) (A) (A) (A) (A) (A) (A) (A) (A) (A) (A)
                 (A) (A) (A) (A) (A) (A) (A) (A) (A) (A) (A) (A)
                 (A) (A) (A) (A) (A) (A) (A) (A) (A) (A) (A) (A)
                 (A) (A) (A) (A) (A) (A) (A) (A) (A) (A) (A) (A)
                 (A) (A) (A) (A) (A) (A) (A) (A) (A) (A) (A) (A)
                 (A) (A) (A) (A) (A) (A) (A) (A) (A) (A) (A) (A)
                 (A) (A) (A) (A) (A) (A) (A) (A) (A) (A) (A) (A)
                 (A) (A) (A) (A) (A) (A) (A) (A) (A) (A) (A) (A)
                 (A) (A) (A) (A) (A) (A) (A) (A) (A) (A) (A) (A)
                 (A) (A) (A) (A) (A) (A) (A) (A) (A) (A) (A) (A)
                 (A) (A) (A) (A) (A) (A) (A) (A) (A) (A) (A) (A)
                 (A) (A) (A) (A) (A) (A) (A) (A) (A) (A) (A) (A)
                 (A) (A) (A) (A) (A) (A) (A) (A) (A) (A) (A) (A)
                 (A) (A) (A) (A) (A) (A) (A) (A) (A) (A) (A) (A)
                 (A) (A) (A) (A) (A) (A) (A) (A) (A) (A) (A) (A)
                 (A) (A) (A) (A) (A) (A) (A) (A) (A) (A) (A) (A)
                 (A) (A) (A) (A) (A) (A) (A) (A) (A) (A) (A) (A)
                 (A) (A) (A) (A) (A) (A) (A) (A) (A) (A) (A) (A)
                 (A) (A) (A) (A) (A) (A) (A) (A) (A) (A) (A) (A)
                 (A) (A) (A) (A) (A) (A) (A) (A) (A) (A) (A) (A)
                 (A) (A) (A) (A) (A) (A) (A) (A) (A) (A) (A) (A)
                 (A) (A) (A) (A) (A) (A)
 The electronic state is 1-A.
 Alpha  occ. eigenvalues --  -19.22901 -19.16674 -14.36253 -10.34109 -10.28786
 Alpha  occ. eigenvalues --  -10.27195 -10.25558 -10.23956 -10.23732 -10.23316
 Alpha  occ. eigenvalues --  -10.22258 -10.22185 -10.21917 -10.20812 -10.20678
 Alpha  occ. eigenvalues --  -10.20585 -10.20490 -10.19953 -10.19071 -10.18691
 Alpha  occ. eigenvalues --   -1.13825  -1.05662  -0.93227  -0.88499  -0.85998
 Alpha  occ. eigenvalues --   -0.84574  -0.80201  -0.78675  -0.76235  -0.73427
 Alpha  occ. eigenvalues --   -0.70079  -0.69785  -0.67095  -0.65753  -0.62920
 Alpha  occ. eigenvalues --   -0.60868  -0.59321  -0.56060  -0.53915  -0.52581
 Alpha  occ. eigenvalues --   -0.50812  -0.49525  -0.48132  -0.47927  -0.46695
 Alpha  occ. eigenvalues --   -0.46312  -0.44786  -0.44224  -0.43616  -0.43294
 Alpha  occ. eigenvalues --   -0.42369  -0.42253  -0.41961  -0.41333  -0.40464
 Alpha  occ. eigenvalues --   -0.39970  -0.39124  -0.38459  -0.37326  -0.36800
 Alpha  occ. eigenvalues --   -0.36522  -0.36250  -0.35969  -0.35441  -0.35198
 Alpha  occ. eigenvalues --   -0.33825  -0.31052  -0.30021  -0.26554  -0.25835
 Alpha  occ. eigenvalues --   -0.25106
 Alpha virt. eigenvalues --   -0.08810  -0.03585  -0.02965  -0.02242  -0.00946
 Alpha virt. eigenvalues --   -0.00356   0.00294   0.00653   0.01040   0.01542
 Alpha virt. eigenvalues --    0.02004   0.02556   0.03005   0.03669   0.04062
 Alpha virt. eigenvalues --    0.04263   0.04650   0.05020   0.05808   0.05985
 Alpha virt. eigenvalues --    0.06547   0.06917   0.07178   0.07564   0.07879
 Alpha virt. eigenvalues --    0.08331   0.09110   0.09509   0.09848   0.09981
 Alpha virt. eigenvalues --    0.10628   0.10855   0.11019   0.11474   0.11714
 Alpha virt. eigenvalues --    0.12143   0.12486   0.12752   0.12933   0.13235
 Alpha virt. eigenvalues --    0.13807   0.13955   0.14200   0.14672   0.15278
 Alpha virt. eigenvalues --    0.15415   0.15698   0.16078   0.16722   0.17327
 Alpha virt. eigenvalues --    0.17622   0.18166   0.18582   0.18642   0.18871
 Alpha virt. eigenvalues --    0.18988   0.19098   0.19525   0.19766   0.20292
 Alpha virt. eigenvalues --    0.20405   0.20724   0.21252   0.21635   0.22005
 Alpha virt. eigenvalues --    0.22260   0.22673   0.22872   0.23211   0.23484
 Alpha virt. eigenvalues --    0.23787   0.24130   0.24549   0.24768   0.25387
 Alpha virt. eigenvalues --    0.25938   0.26120   0.26395   0.26742   0.27109
 Alpha virt. eigenvalues --    0.27270   0.27786   0.27889   0.28510   0.29075
 Alpha virt. eigenvalues --    0.29807   0.29923   0.30464   0.30854   0.31040
 Alpha virt. eigenvalues --    0.31365   0.31719   0.32348   0.32643   0.33039
 Alpha virt. eigenvalues --    0.33616   0.34327   0.34614   0.34736   0.35002
 Alpha virt. eigenvalues --    0.35145   0.36068   0.36721   0.37479   0.37830
 Alpha virt. eigenvalues --    0.38504   0.39716   0.39890   0.40328   0.41730
 Alpha virt. eigenvalues --    0.42645   0.43381   0.44002   0.46347   0.47402
 Alpha virt. eigenvalues --    0.48862   0.49333   0.52405   0.54432   0.58676
 Alpha virt. eigenvalues --    0.60411   0.63865   0.64860   0.65891   0.66774
 Alpha virt. eigenvalues --    0.67732   0.68953   0.69170   0.69759   0.70219
 Alpha virt. eigenvalues --    0.70691   0.71516   0.71681   0.72446   0.72859
 Alpha virt. eigenvalues --    0.73181   0.73493   0.74574   0.75018   0.75799
 Alpha virt. eigenvalues --    0.76283   0.77122   0.77235   0.78739   0.79188
 Alpha virt. eigenvalues --    0.79797   0.80504   0.80761   0.81199   0.82874
 Alpha virt. eigenvalues --    0.83753   0.84612   0.85055   0.85781   0.86522
 Alpha virt. eigenvalues --    0.87558   0.88358   0.90256   0.90543   0.90937
 Alpha virt. eigenvalues --    0.91934   0.92803   0.93558   0.95052   0.96337
 Alpha virt. eigenvalues --    0.96511   0.98873   0.99227   0.99634   1.00108
 Alpha virt. eigenvalues --    1.01256   1.01734   1.02727   1.03150   1.03625
 Alpha virt. eigenvalues --    1.04367   1.05077   1.06465   1.07783   1.09021
 Alpha virt. eigenvalues --    1.10792   1.10829   1.12887   1.13548   1.14202
 Alpha virt. eigenvalues --    1.14939   1.16727   1.16811   1.17266   1.17861
 Alpha virt. eigenvalues --    1.19191   1.20767   1.22124   1.23476   1.23909
 Alpha virt. eigenvalues --    1.24823   1.25419   1.25918   1.27146   1.28455
 Alpha virt. eigenvalues --    1.29259   1.30082   1.30685   1.31472   1.32353
 Alpha virt. eigenvalues --    1.33598   1.34709   1.36248   1.36828   1.37336
 Alpha virt. eigenvalues --    1.39226   1.40010   1.40406   1.41542   1.42133
 Alpha virt. eigenvalues --    1.42978   1.44270   1.44452   1.45656   1.48357
 Alpha virt. eigenvalues --    1.49470   1.50832   1.53575   1.55169   1.56074
 Alpha virt. eigenvalues --    1.56398   1.58590   1.59842   1.62361   1.63866
 Alpha virt. eigenvalues --    1.65788   1.70968   1.71266   1.73080   1.74956
 Alpha virt. eigenvalues --    1.75741   1.77393   1.77754   1.79463   1.80262
 Alpha virt. eigenvalues --    1.81777   1.81970   1.83821   1.84934   1.85266
 Alpha virt. eigenvalues --    1.86899   1.87543   1.88657   1.89969   1.90516
 Alpha virt. eigenvalues --    1.91353   1.91859   1.92426   1.93019   1.93852
 Alpha virt. eigenvalues --    1.94870   1.96036   1.98374   1.99516   1.99804
 Alpha virt. eigenvalues --    2.00612   2.01259   2.02045   2.03046   2.03520
 Alpha virt. eigenvalues --    2.04079   2.04573   2.05576   2.06545   2.07285
 Alpha virt. eigenvalues --    2.09010   2.10225   2.11376   2.12294   2.13110
 Alpha virt. eigenvalues --    2.13605   2.14298   2.15102   2.16168   2.16575
 Alpha virt. eigenvalues --    2.18237   2.18823   2.19245   2.20429   2.23497
 Alpha virt. eigenvalues --    2.26858   2.27805   2.28422   2.30088   2.30980
 Alpha virt. eigenvalues --    2.31796   2.33859   2.34895   2.36029   2.36927
 Alpha virt. eigenvalues --    2.37880   2.38011   2.39168   2.42945   2.44193
 Alpha virt. eigenvalues --    2.45855   2.46291   2.47283   2.48976   2.50164
 Alpha virt. eigenvalues --    2.50821   2.52529   2.53008   2.54163   2.55791
 Alpha virt. eigenvalues --    2.56436   2.57341   2.58330   2.59086   2.61238
 Alpha virt. eigenvalues --    2.62367   2.65367   2.65640   2.66859   2.68107
 Alpha virt. eigenvalues --    2.69942   2.70677   2.71307   2.73378   2.73794
 Alpha virt. eigenvalues --    2.74489   2.76735   2.77299   2.79905   2.80544
 Alpha virt. eigenvalues --    2.80893   2.81973   2.84028   2.84294   2.86504
 Alpha virt. eigenvalues --    2.87807   2.89113   2.91019   2.91422   2.92996
 Alpha virt. eigenvalues --    2.96522   2.97409   3.01001   3.04239   3.07232
 Alpha virt. eigenvalues --    3.08330   3.09877   3.14205   3.19807   3.24729
 Alpha virt. eigenvalues --    3.26339   3.27529   3.27869   3.28424   3.30463
 Alpha virt. eigenvalues --    3.30912   3.32602   3.36167   3.39767   3.43232
 Alpha virt. eigenvalues --    3.44772   3.45058   3.45517   3.49424   3.50233
 Alpha virt. eigenvalues --    3.50363   3.51805   3.57237   3.60482   3.84744
 Alpha virt. eigenvalues --    4.27801   4.30124   4.31476   4.33558   4.35058
 Alpha virt. eigenvalues --    4.38931   4.41563   4.43869   4.47318   4.49603
 Alpha virt. eigenvalues --    4.51820   4.55079   4.57389   4.58727   4.67011
 Alpha virt. eigenvalues --    4.74162   4.77228   4.83139   4.84932   4.97745
          Condensed to atoms (all electrons):
               1          2          3          4          5          6
     1  C    8.480459  -0.787004  -2.454426   0.037717   0.677191  -0.253940
     2  C   -0.787004   8.827836  -0.969990   0.222249   0.321899  -0.404974
     3  C   -2.454426  -0.969990  13.386275  -0.159757  -1.475275  -1.495049
     4  N    0.037717   0.222249  -0.159757   7.249294   0.078451   0.051126
     5  C    0.677191   0.321899  -1.475275   0.078451   9.595659   0.899039
     6  C   -0.253940  -0.404974  -1.495049   0.051126   0.899039  12.432271
     7  C   -0.024353  -0.495837   0.756408  -0.014297  -1.273713  -3.658441
     8  C    0.025664   0.149648  -0.232741  -0.014637   0.451982   0.522923
     9  C   -0.040189  -0.101357  -0.057622  -0.011698  -0.115433   0.250939
    10  C   -0.008510  -1.923161  -0.967027   0.004061  -5.014997  -0.728951
    11  C   -0.116849   0.376047   0.193433   0.000414   2.170927   0.501000
    12  C    0.028263  -0.151134  -0.069640  -0.002292  -0.916625  -0.298292
    13  C    0.003576   0.061749   0.034767  -0.000170   0.106540  -0.196440
    14  C    0.001272  -0.013021  -0.005847  -0.000002  -0.086810  -0.094349
    15  C   -0.000108   0.024191   0.002231  -0.000123   0.135076   0.052119
    16  C    0.002902  -0.019916  -0.025957  -0.000332  -0.209904  -0.329202
    17  C   -0.001936  -0.001991   0.000452   0.000085  -0.070310  -0.149914
    18  C   -0.364640   0.465269   0.281492  -0.001601  -0.258202  -0.395809
    19  O   -0.021286   0.024188   0.000295  -0.000072  -0.086254   0.017433
    20  O    0.130547  -0.077763  -0.011574   0.001561   0.473629  -0.115899
    21  H    0.530292  -0.097975   0.004420   0.000396  -0.017131  -0.030862
    22  H    0.439132  -0.086193  -0.002037   0.001342   0.002111  -0.000759
    23  H   -0.003804  -0.024094   0.004484  -0.000492  -0.033117  -0.050560
    24  H    0.000959   0.004898   0.000271   0.001586   0.030857  -0.040415
    25  H    0.002426   0.015266   0.000542   0.000462   0.031126   0.078947
    26  H   -0.015963  -0.033470  -0.014459  -0.000587  -0.034707   0.116781
    27  H    0.000865   0.006240  -0.004369   0.001346   0.014389  -0.008796
    28  H    0.002706   0.008047   0.005399  -0.000163   0.004371  -0.020079
    29  H   -0.017923  -0.058596   0.017145  -0.001095  -0.042466   0.070186
    30  H   -0.002401   0.027983   0.010342  -0.000025   0.140211  -0.025755
    31  H   -0.001168  -0.001296  -0.001834   0.000018  -0.002408   0.004694
    32  H    0.000028   0.000118  -0.000029   0.000000   0.000644   0.001730
    33  H   -0.000001  -0.000002   0.000004  -0.000000   0.000272  -0.000073
    34  H    0.000000  -0.000015  -0.000001  -0.000000   0.000048  -0.000328
    35  H    0.000006   0.000031  -0.000010   0.000000  -0.001107  -0.000113
    36  H   -0.000005   0.001092   0.000123   0.000000   0.017694   0.042728
    37  H   -0.000056  -0.001228  -0.000032  -0.000000  -0.009620  -0.020775
               7          8          9         10         11         12
     1  C   -0.024353   0.025664  -0.040189  -0.008510  -0.116849   0.028263
     2  C   -0.495837   0.149648  -0.101357  -1.923161   0.376047  -0.151134
     3  C    0.756408  -0.232741  -0.057622  -0.967027   0.193433  -0.069640
     4  N   -0.014297  -0.014637  -0.011698   0.004061   0.000414  -0.002292
     5  C   -1.273713   0.451982  -0.115433  -5.014997   2.170927  -0.916625
     6  C   -3.658441   0.522923   0.250939  -0.728951   0.501000  -0.298292
     7  C   11.058274  -1.089589  -0.699638   2.067811  -1.116385   0.375287
     8  C   -1.089589   6.395726  -0.401330  -0.760783   0.624438  -0.376940
     9  C   -0.699638  -0.401330   6.339876   0.372332  -0.370541   0.031382
    10  C    2.067811  -0.760783   0.372332  20.085357  -7.894102   2.623926
    11  C   -1.116385   0.624438  -0.370541  -7.894102  16.168534  -3.928656
    12  C    0.375287  -0.376940   0.031382   2.623926  -3.928656  11.398312
    13  C    0.125140   0.048085  -0.021726  -0.178317  -0.797371  -2.871826
    14  C    0.029669  -0.011068   0.003223   0.293164  -0.505046   0.252986
    15  C   -0.139039  -0.016224  -0.022410  -1.268829  -0.598215   1.791348
    16  C    0.015869  -0.029365  -0.031624   0.605635   0.520090  -1.282911
    17  C    0.086767   0.005331  -0.001084  -0.556181   0.310174  -0.590645
    18  C    0.132306  -0.109051   0.113424  -0.168272  -0.615547  -0.076248
    19  O    0.000868  -0.001862  -0.003163  -0.148647   0.055014   0.028646
    20  O   -0.080466   0.000240   0.004763  -0.483146  -0.028229   0.009436
    21  H   -0.003720   0.000612   0.000199  -0.031462   0.002454  -0.001572
    22  H    0.000502  -0.000045  -0.000058  -0.000023   0.000236  -0.000194
    23  H    0.301623   0.014690  -0.023236   0.122458  -0.076297   0.044333
    24  H   -0.051464   0.437994  -0.002021  -0.025530   0.014076  -0.010152
    25  H   -0.189624   0.484358  -0.006550  -0.066598   0.026872  -0.029092
    26  H   -0.177348   0.500779  -0.024550   0.040479  -0.003404   0.003872
    27  H   -0.092406  -0.016190   0.471280  -0.013419   0.002600  -0.003582
    28  H   -0.096589  -0.008214   0.483102  -0.006447  -0.019896   0.001045
    29  H   -0.120798  -0.017656   0.475436   0.050682  -0.004148   0.002997
    30  H    0.021505   0.013674  -0.016389  -0.036270   0.184805  -0.046536
    31  H   -0.006108   0.001388   0.002744  -0.017472   0.108111   0.202911
    32  H   -0.000895   0.001333   0.000016  -0.016559   0.035674  -0.029389
    33  H    0.000040   0.000000  -0.000020   0.002569   0.001697   0.018491
    34  H    0.000195   0.000043  -0.000032   0.001391   0.060282  -0.030096
    35  H   -0.000443   0.000119  -0.000174  -0.048540  -0.001273  -0.005158
    36  H   -0.008948   0.000115  -0.000759  -0.049571   0.005464  -0.013208
    37  H    0.004971  -0.000066   0.000569   0.086056  -0.044473  -0.006734
              13         14         15         16         17         18
     1  C    0.003576   0.001272  -0.000108   0.002902  -0.001936  -0.364640
     2  C    0.061749  -0.013021   0.024191  -0.019916  -0.001991   0.465269
     3  C    0.034767  -0.005847   0.002231  -0.025957   0.000452   0.281492
     4  N   -0.000170  -0.000002  -0.000123  -0.000332   0.000085  -0.001601
     5  C    0.106540  -0.086810   0.135076  -0.209904  -0.070310  -0.258202
     6  C   -0.196440  -0.094349   0.052119  -0.329202  -0.149914  -0.395809
     7  C    0.125140   0.029669  -0.139039   0.015869   0.086767   0.132306
     8  C    0.048085  -0.011068  -0.016224  -0.029365   0.005331  -0.109051
     9  C   -0.021726   0.003223  -0.022410  -0.031624  -0.001084   0.113424
    10  C   -0.178317   0.293164  -1.268829   0.605635  -0.556181  -0.168272
    11  C   -0.797371  -0.505046  -0.598215   0.520090   0.310174  -0.615547
    12  C   -2.871826   0.252986   1.791348  -1.282911  -0.590645  -0.076248
    13  C    9.026316   0.331148  -1.356212   1.303530   0.378818   0.066277
    14  C    0.331148   5.513691   0.861409  -0.598360  -0.155205   0.020498
    15  C   -1.356212   0.861409   8.446189  -1.614717  -0.294937  -0.098646
    16  C    1.303530  -0.598360  -1.614717   8.261892  -0.596334  -0.113597
    17  C    0.378818  -0.155205  -0.294937  -0.596334   7.002034  -0.063575
    18  C    0.066277   0.020498  -0.098646  -0.113597  -0.063575   6.652198
    19  O   -0.006050   0.001917   0.031908   0.035413  -0.025775   0.433495
    20  O    0.015730   0.000754   0.013864   0.010990  -0.013097  -0.013941
    21  H   -0.000052  -0.000008   0.000011  -0.000353  -0.000079  -0.003497
    22  H   -0.000018  -0.000000  -0.000002  -0.000021   0.000000  -0.000333
    23  H   -0.011856   0.004456   0.000190  -0.003479  -0.015945   0.006522
    24  H   -0.002212  -0.000579  -0.000267  -0.003626  -0.000200   0.001062
    25  H    0.013526  -0.001208   0.000129   0.000857   0.000509  -0.004218
    26  H   -0.002363   0.000197  -0.000125   0.000093  -0.000143  -0.000498
    27  H   -0.000828  -0.000074   0.000119  -0.000843  -0.000375   0.000785
    28  H   -0.000111   0.000063   0.000201   0.000933  -0.000370   0.001222
    29  H    0.000208   0.000064  -0.000098   0.000063   0.000118   0.001607
    30  H    0.012261  -0.004537   0.010427  -0.040323   0.034875  -0.038349
    31  H   -0.019214  -0.009980  -0.034750   0.030613   0.012292   0.022254
    32  H    0.304886  -0.016232   0.026710   0.000994   0.002219  -0.000902
    33  H    0.000220   0.267455   0.000480   0.024708  -0.005661  -0.000017
    34  H    0.018866   0.019025   0.234979   0.017763  -0.026263   0.000428
    35  H   -0.000874   0.010328   0.065969  -0.194695   0.531204  -0.002033
    36  H    0.011439  -0.011482  -0.000514  -0.081385   0.427174  -0.002440
    37  H    0.006460  -0.008060  -0.056808  -0.091349   0.482728   0.010431
              19         20         21         22         23         24
     1  C   -0.021286   0.130547   0.530292   0.439132  -0.003804   0.000959
     2  C    0.024188  -0.077763  -0.097975  -0.086193  -0.024094   0.004898
     3  C    0.000295  -0.011574   0.004420  -0.002037   0.004484   0.000271
     4  N   -0.000072   0.001561   0.000396   0.001342  -0.000492   0.001586
     5  C   -0.086254   0.473629  -0.017131   0.002111  -0.033117   0.030857
     6  C    0.017433  -0.115899  -0.030862  -0.000759  -0.050560  -0.040415
     7  C    0.000868  -0.080466  -0.003720   0.000502   0.301623  -0.051464
     8  C   -0.001862   0.000240   0.000612  -0.000045   0.014690   0.437994
     9  C   -0.003163   0.004763   0.000199  -0.000058  -0.023236  -0.002021
    10  C   -0.148647  -0.483146  -0.031462  -0.000023   0.122458  -0.025530
    11  C    0.055014  -0.028229   0.002454   0.000236  -0.076297   0.014076
    12  C    0.028646   0.009436  -0.001572  -0.000194   0.044333  -0.010152
    13  C   -0.006050   0.015730  -0.000052  -0.000018  -0.011856  -0.002212
    14  C    0.001917   0.000754  -0.000008  -0.000000   0.004456  -0.000579
    15  C    0.031908   0.013864   0.000011  -0.000002   0.000190  -0.000267
    16  C    0.035413   0.010990  -0.000353  -0.000021  -0.003479  -0.003626
    17  C   -0.025775  -0.013097  -0.000079   0.000000  -0.015945  -0.000200
    18  C    0.433495  -0.013941  -0.003497  -0.000333   0.006522   0.001062
    19  O    8.157552  -0.072314   0.000122  -0.000010  -0.000096  -0.000002
    20  O   -0.072314   8.502345  -0.001730   0.000305  -0.000559  -0.000034
    21  H    0.000122  -0.001730   0.494611  -0.029298   0.000000   0.000000
    22  H   -0.000010   0.000305  -0.029298   0.507887  -0.000000  -0.000000
    23  H   -0.000096  -0.000559   0.000000  -0.000000   0.620345  -0.004801
    24  H   -0.000002  -0.000034   0.000000  -0.000000  -0.004801   0.553974
    25  H    0.000001  -0.000138  -0.000000   0.000000  -0.004613  -0.026728
    26  H   -0.000002   0.000077  -0.000001  -0.000001   0.005471  -0.026684
    27  H   -0.000002  -0.000021   0.000000  -0.000000  -0.004863   0.002993
    28  H    0.000009  -0.000128  -0.000000   0.000000  -0.004828   0.000113
    29  H   -0.000001   0.000250  -0.000000  -0.000001   0.005208  -0.000013
    30  H   -0.006601   0.016928   0.000002  -0.000000  -0.000466   0.000003
    31  H   -0.000766  -0.001438  -0.000000   0.000000  -0.000255   0.000011
    32  H   -0.000019  -0.000013  -0.000000   0.000000  -0.000002   0.000000
    33  H    0.000004   0.000000   0.000000  -0.000000   0.000000  -0.000000
    34  H   -0.000023  -0.000003  -0.000000   0.000000  -0.000002   0.000000
    35  H    0.000163   0.000009  -0.000000  -0.000000  -0.000001   0.000000
    36  H   -0.000180   0.000171   0.000000   0.000000  -0.000081  -0.000000
    37  H    0.000029  -0.000397  -0.000000  -0.000000   0.000012   0.000000
              25         26         27         28         29         30
     1  C    0.002426  -0.015963   0.000865   0.002706  -0.017923  -0.002401
     2  C    0.015266  -0.033470   0.006240   0.008047  -0.058596   0.027983
     3  C    0.000542  -0.014459  -0.004369   0.005399   0.017145   0.010342
     4  N    0.000462  -0.000587   0.001346  -0.000163  -0.001095  -0.000025
     5  C    0.031126  -0.034707   0.014389   0.004371  -0.042466   0.140211
     6  C    0.078947   0.116781  -0.008796  -0.020079   0.070186  -0.025755
     7  C   -0.189624  -0.177348  -0.092406  -0.096589  -0.120798   0.021505
     8  C    0.484358   0.500779  -0.016190  -0.008214  -0.017656   0.013674
     9  C   -0.006550  -0.024550   0.471280   0.483102   0.475436  -0.016389
    10  C   -0.066598   0.040479  -0.013419  -0.006447   0.050682  -0.036270
    11  C    0.026872  -0.003404   0.002600  -0.019896  -0.004148   0.184805
    12  C   -0.029092   0.003872  -0.003582   0.001045   0.002997  -0.046536
    13  C    0.013526  -0.002363  -0.000828  -0.000111   0.000208   0.012261
    14  C   -0.001208   0.000197  -0.000074   0.000063   0.000064  -0.004537
    15  C    0.000129  -0.000125   0.000119   0.000201  -0.000098   0.010427
    16  C    0.000857   0.000093  -0.000843   0.000933   0.000063  -0.040323
    17  C    0.000509  -0.000143  -0.000375  -0.000370   0.000118   0.034875
    18  C   -0.004218  -0.000498   0.000785   0.001222   0.001607  -0.038349
    19  O    0.000001  -0.000002  -0.000002   0.000009  -0.000001  -0.006601
    20  O   -0.000138   0.000077  -0.000021  -0.000128   0.000250   0.016928
    21  H   -0.000000  -0.000001   0.000000  -0.000000  -0.000000   0.000002
    22  H    0.000000  -0.000001  -0.000000   0.000000  -0.000001  -0.000000
    23  H   -0.004613   0.005471  -0.004863  -0.004828   0.005208  -0.000466
    24  H   -0.026728  -0.026684   0.002993   0.000113  -0.000013   0.000003
    25  H    0.554711  -0.027845   0.000114  -0.000153   0.000021  -0.000005
    26  H   -0.027845   0.528333  -0.000051   0.000005   0.002198  -0.000005
    27  H    0.000114  -0.000051   0.551347  -0.027961  -0.026744  -0.000050
    28  H   -0.000153   0.000005  -0.027961   0.563696  -0.027976   0.000373
    29  H    0.000021   0.002198  -0.026744  -0.027976   0.522032   0.000013
    30  H   -0.000005  -0.000005  -0.000050   0.000373   0.000013   0.568617
    31  H    0.001118   0.000025  -0.000000  -0.000001  -0.000000   0.000002
    32  H   -0.000018   0.000000   0.000000   0.000000   0.000000   0.000002
    33  H   -0.000000   0.000000   0.000000   0.000000   0.000000   0.000000
    34  H    0.000000  -0.000000  -0.000000   0.000000  -0.000000  -0.000010
    35  H    0.000000  -0.000000  -0.000000  -0.000000   0.000000   0.000064
    36  H    0.000000   0.000000  -0.000001   0.000001   0.000000   0.003137
    37  H    0.000000  -0.000000  -0.000000   0.000000  -0.000000  -0.002428
              31         32         33         34         35         36
     1  C   -0.001168   0.000028  -0.000001   0.000000   0.000006  -0.000005
     2  C   -0.001296   0.000118  -0.000002  -0.000015   0.000031   0.001092
     3  C   -0.001834  -0.000029   0.000004  -0.000001  -0.000010   0.000123
     4  N    0.000018   0.000000  -0.000000  -0.000000   0.000000   0.000000
     5  C   -0.002408   0.000644   0.000272   0.000048  -0.001107   0.017694
     6  C    0.004694   0.001730  -0.000073  -0.000328  -0.000113   0.042728
     7  C   -0.006108  -0.000895   0.000040   0.000195  -0.000443  -0.008948
     8  C    0.001388   0.001333   0.000000   0.000043   0.000119   0.000115
     9  C    0.002744   0.000016  -0.000020  -0.000032  -0.000174  -0.000759
    10  C   -0.017472  -0.016559   0.002569   0.001391  -0.048540  -0.049571
    11  C    0.108111   0.035674   0.001697   0.060282  -0.001273   0.005464
    12  C    0.202911  -0.029389   0.018491  -0.030096  -0.005158  -0.013208
    13  C   -0.019214   0.304886   0.000220   0.018866  -0.000874   0.011439
    14  C   -0.009980  -0.016232   0.267455   0.019025   0.010328  -0.011482
    15  C   -0.034750   0.026710   0.000480   0.234979   0.065969  -0.000514
    16  C    0.030613   0.000994   0.024708   0.017763  -0.194695  -0.081385
    17  C    0.012292   0.002219  -0.005661  -0.026263   0.531204   0.427174
    18  C    0.022254  -0.000902  -0.000017   0.000428  -0.002033  -0.002440
    19  O   -0.000766  -0.000019   0.000004  -0.000023   0.000163  -0.000180
    20  O   -0.001438  -0.000013   0.000000  -0.000003   0.000009   0.000171
    21  H   -0.000000  -0.000000   0.000000  -0.000000  -0.000000   0.000000
    22  H    0.000000   0.000000  -0.000000   0.000000  -0.000000   0.000000
    23  H   -0.000255  -0.000002   0.000000  -0.000002  -0.000001  -0.000081
    24  H    0.000011   0.000000  -0.000000   0.000000   0.000000  -0.000000
    25  H    0.001118  -0.000018  -0.000000   0.000000   0.000000   0.000000
    26  H    0.000025   0.000000   0.000000  -0.000000  -0.000000   0.000000
    27  H   -0.000000   0.000000   0.000000  -0.000000  -0.000000  -0.000001
    28  H   -0.000001   0.000000   0.000000   0.000000  -0.000000   0.000001
    29  H   -0.000000   0.000000   0.000000  -0.000000   0.000000   0.000000
    30  H    0.000002   0.000002   0.000000  -0.000010   0.000064   0.003137
    31  H    0.593805  -0.005579  -0.000187   0.000017   0.000002  -0.000000
    32  H   -0.005579   0.570243  -0.005008  -0.000178  -0.000000  -0.000000
    33  H   -0.000187  -0.005008   0.572536  -0.005447  -0.000006   0.000002
    34  H    0.000017  -0.000178  -0.005447   0.582871   0.003885   0.000229
    35  H    0.000002  -0.000000  -0.000006   0.003885   0.543221  -0.025773
    36  H   -0.000000  -0.000000   0.000002   0.000229  -0.025773   0.561708
    37  H   -0.000002  -0.000000   0.000003   0.000202  -0.024375  -0.033020
              37
     1  C   -0.000056
     2  C   -0.001228
     3  C   -0.000032
     4  N   -0.000000
     5  C   -0.009620
     6  C   -0.020775
     7  C    0.004971
     8  C   -0.000066
     9  C    0.000569
    10  C    0.086056
    11  C   -0.044473
    12  C   -0.006734
    13  C    0.006460
    14  C   -0.008060
    15  C   -0.056808
    16  C   -0.091349
    17  C    0.482728
    18  C    0.010431
    19  O    0.000029
    20  O   -0.000397
    21  H   -0.000000
    22  H   -0.000000
    23  H    0.000012
    24  H    0.000000
    25  H    0.000000
    26  H   -0.000000
    27  H   -0.000000
    28  H    0.000000
    29  H   -0.000000
    30  H   -0.002428
    31  H   -0.000002
    32  H   -0.000000
    33  H    0.000003
    34  H    0.000202
    35  H   -0.024375
    36  H   -0.033020
    37  H    0.520118
 Mulliken charges:
               1
     1  C   -0.249443
     2  C    0.712268
     3  C   -0.750407
     4  N   -0.442763
     5  C    0.495963
     6  C   -0.722139
     7  C    0.362868
     8  C   -0.593377
     9  C   -0.597679
    10  C    0.056893
    11  C    0.758089
    12  C   -0.072314
    13  C   -0.403904
    14  C   -0.089448
    15  C   -0.195529
    16  C    0.435946
    17  C   -0.704761
    18  C    0.122146
    19  O   -0.413933
    20  O   -0.280708
    21  H    0.184622
    22  H    0.167479
    23  H    0.133656
    24  H    0.145930
    25  H    0.145803
    26  H    0.163896
    27  H    0.148499
    28  H    0.141628
    29  H    0.169288
    30  H    0.174927
    31  H    0.122452
    32  H    0.130227
    33  H    0.127941
    34  H    0.122174
    35  H    0.149576
    36  H    0.156288
    37  H    0.187845
 Sum of Mulliken charges =  -0.00000
 Mulliken charges with hydrogens summed into heavy atoms:
               1
     1  C    0.102659
     2  C    0.712268
     3  C   -0.750407
     4  N   -0.442763
     5  C    0.495963
     6  C   -0.722139
     7  C    0.496524
     8  C   -0.137748
     9  C   -0.138263
    10  C    0.231820
    11  C    0.758089
    12  C    0.050138
    13  C   -0.273677
    14  C    0.038493
    15  C   -0.073355
    16  C    0.435946
    17  C   -0.211052
    18  C    0.122146
    19  O   -0.413933
    20  O   -0.280708
 Electronic spatial extent (au):  <R**2>=           5578.1602
 Charge=             -0.0000 electrons
 Dipole moment (field-independent basis, Debye):
    X=             -1.8121    Y=             -1.2497    Z=              0.4659  Tot=              2.2500
 Quadrupole moment (field-independent basis, Debye-Ang):
   XX=           -123.8507   YY=           -131.9266   ZZ=           -112.2571
   XY=             17.1499   XZ=             -2.8997   YZ=             -1.4644
 Traceless Quadrupole moment (field-independent basis, Debye-Ang):
   XX=             -1.1726   YY=             -9.2485   ZZ=             10.4211
   XY=             17.1499   XZ=             -2.8997   YZ=             -1.4644
 Octapole moment (field-independent basis, Debye-Ang**2):
  XXX=           -110.9628  YYY=            -16.1221  ZZZ=             -0.6172  XYY=             16.0766
  XXY=             58.3392  XXZ=             -6.4317  XZZ=            -11.4651  YZZ=              3.0260
  YYZ=             -2.1345  XYZ=            -17.4858
 Hexadecapole moment (field-independent basis, Debye-Ang**3):
 XXXX=          -5246.1191 YYYY=          -1767.8108 ZZZZ=           -998.0783 XXXY=            379.6960
 XXXZ=            -53.3621 YYYX=             69.2076 YYYZ=            -38.0536 ZZZX=             12.7404
 ZZZY=             22.7173 XXYY=          -1194.3097 XXZZ=           -976.0895 YYZZ=           -439.3716
 XXYZ=            -16.9646 YYXZ=             -8.5958 ZZXY=             23.0980
 N-N= 1.502375864553D+03 E-N=-5.007372259221D+03  KE= 8.550562922956D+02
 Unable to Open any file for archive entry.
 1\1\GINC-N1\SP\RB3LYP TD-FC\6-31+G(d,p)\C17H17N1O2\HPCMGAC13\30-Jul-20
 25\0\\# td=(50-50,nstates=3) b3lyp/6-31+g(d,p) geom=connectivity\\Titl
 e Card Required\\0,1\C,0,-3.638375,-1.890672,-0.969671\C,0,-3.049357,-
 0.772403,-0.486683\C,0,-3.870005,0.402623,-0.369945\N,0,-4.591283,1.31
 1764,-0.291458\C,0,-1.642317,-0.746649,-0.068842\C,0,-0.769817,0.17919
 5,0.390871\C,0,-0.880118,1.656492,0.726928\C,0,-1.252379,2.565192,-0.4
 62695\C,0,-1.775564,1.915563,1.959023\C,0,0.538882,-0.542409,0.670563\
 C,0,1.778483,-0.020181,-0.053564\C,0,1.674901,0.355684,-1.399679\C,0,2
 .784649,0.812495,-2.110312\C,0,4.020727,0.897466,-1.468536\C,0,4.13193
 9,0.515423,-0.130985\C,0,3.028285,0.047193,0.597885\C,0,3.214176,-0.38
 402,2.036507\C,0,0.224683,-1.98945,0.295549\O,0,0.913345,-2.972059,0.3
 57104\O,0,-1.071809,-2.03229,-0.16191\H,0,-3.080651,-2.8131,-1.068288\
 H,0,-4.681377,-1.879794,-1.263263\H,0,0.138235,1.945222,1.016144\H,0,-
 1.178652,3.613823,-0.154458\H,0,-0.565941,2.414474,-1.300871\H,0,-2.27
 2186,2.396883,-0.812079\H,0,-1.691969,2.964945,2.262057\H,0,-1.470217,
 1.294946,2.808468\H,0,-2.827914,1.713467,1.747624\H,0,0.72855,-0.52968
 1,1.75123\H,0,0.711745,0.287321,-1.898185\H,0,2.682475,1.097048,-3.153
 227\H,0,4.895275,1.253445,-2.005206\H,0,5.09843,0.573871,0.362735\H,0,
 4.257425,-0.264675,2.339878\H,0,2.60543,0.211353,2.728604\H,0,2.945274
 ,-1.43636,2.179012\\Version=ES64L-G16RevC.02\State=1-A\HF=-863.2625182
 \RMSD=6.735e-09\PG=C01 [X(C17H17N1O2)]\\@
 The archive entry for this job was punched.



 IN THIS SHORT LIFE

 THAT ONLY LASTS AN HOUR

 HOW MUCH, HOW LITTLE, IS WITHIN OUR POWER....


 EMILY DICKINSON BOLTS OF MELODY NO. 521
 Job cpu time:       0 days  1 hours 45 minutes 57.7 seconds.
 Elapsed time:       0 days  0 hours  6 minutes 47.2 seconds.
 File lengths (MBytes):  RWF=   1207 Int=      0 D2E=      0 Chk=     56 Scr=      2
 Normal termination of Gaussian 16 at Wed Jul 30 17:23:38 2025.
