 Entering Gaussian System, Link 0=g16
 Input=M2449e.gjf
 Output=M2449e.log
 Initial command:
 /hpc/softwares/Gaussian/g16/l1.exe "/hpc/home/hpcmgac13/pbs.12513.admin1.x8z/Gau-1930535.inp" -scrdir="/hpc/home/hpcmgac13/pbs.12513.admin1.x8z/"
 Default linda workers: n1
 Default is to use  16 SMP processors on each worker.
 Entering Link 1 = /hpc/softwares/Gaussian/g16/l1.exe PID=   1930536.
  
 Copyright (c) 1988-2021, Gaussian, Inc.  All Rights Reserved.
  
 This is part of the Gaussian(R) 16 program.  It is based on
 the Gaussian(R) 09 system (copyright 2009, Gaussian, Inc.),
 the Gaussian(R) 03 system (copyright 2003, Gaussian, Inc.),
 the Gaussian(R) 98 system (copyright 1998, Gaussian, Inc.),
 the Gaussian(R) 94 system (copyright 1995, Gaussian, Inc.),
 the Gaussian 92(TM) system (copyright 1992, Gaussian, Inc.),
 the Gaussian 90(TM) system (copyright 1990, Gaussian, Inc.),
 the Gaussian 88(TM) system (copyright 1988, Gaussian, Inc.),
 the Gaussian 86(TM) system (copyright 1986, Carnegie Mellon
 University), and the Gaussian 82(TM) system (copyright 1983,
 Carnegie Mellon University). Gaussian is a federally registered
 trademark of Gaussian, Inc.
  
 This software contains proprietary and confidential information,
 including trade secrets, belonging to Gaussian, Inc.
  
 This software is provided under written license and may be
 used, copied, transmitted, or stored only in accord with that
 written license.
  
 The following legend is applicable only to US Government
 contracts under FAR:
  
                    RESTRICTED RIGHTS LEGEND
  
 Use, reproduction and disclosure by the US Government is
 subject to restrictions as set forth in subparagraphs (a)
 and (c) of the Commercial Computer Software - Restricted
 Rights clause in FAR 52.227-19.
  
 Gaussian, Inc.
 340 Quinnipiac St., Bldg. 40, Wallingford CT 06492
  
  
 ---------------------------------------------------------------
 Warning -- This program may not be used in any manner that
 competes with the business of Gaussian, Inc. or will provide
 assistance to any competitor of Gaussian, Inc.  The licensee
 of this program is prohibited from giving any competitor of
 Gaussian, Inc. access to this program.  By using this program,
 the user acknowledges that Gaussian, Inc. is engaged in the
 business of creating and licensing software in the field of
 computational chemistry and represents and warrants to the
 licensee that it is not a competitor of Gaussian, Inc. and that
 it will not use this program in any manner prohibited above.
 ---------------------------------------------------------------
  

 Cite this work as:
 Gaussian 16, Revision C.02,
 M. J. Frisch, G. W. Trucks, H. B. Schlegel, G. E. Scuseria, 
 M. A. Robb, J. R. Cheeseman, G. Scalmani, V. Barone, 
 G. A. Petersson, H. Nakatsuji, X. Li, M. Caricato, A. V. Marenich, 
 J. Bloino, B. G. Janesko, R. Gomperts, B. Mennucci, H. P. Hratchian, 
 J. V. Ortiz, A. F. Izmaylov, J. L. Sonnenberg, D. Williams-Young, 
 F. Ding, F. Lipparini, F. Egidi, J. Goings, B. Peng, A. Petrone, 
 T. Henderson, D. Ranasinghe, V. G. Zakrzewski, J. Gao, N. Rega, 
 G. Zheng, W. Liang, M. Hada, M. Ehara, K. Toyota, R. Fukuda, 
 J. Hasegawa, M. Ishida, T. Nakajima, Y. Honda, O. Kitao, H. Nakai, 
 T. Vreven, K. Throssell, J. A. Montgomery, Jr., J. E. Peralta, 
 F. Ogliaro, M. J. Bearpark, J. J. Heyd, E. N. Brothers, K. N. Kudin, 
 V. N. Staroverov, T. A. Keith, R. Kobayashi, J. Normand, 
 K. Raghavachari, A. P. Rendell, J. C. Burant, S. S. Iyengar, 
 J. Tomasi, M. Cossi, J. M. Millam, M. Klene, C. Adamo, R. Cammi, 
 J. W. Ochterski, R. L. Martin, K. Morokuma, O. Farkas, 
 J. B. Foresman, and D. J. Fox, Gaussian, Inc., Wallingford CT, 2019.
 
 ******************************************
 Gaussian 16:  ES64L-G16RevC.02  7-Dec-2021
                30-Jul-2025 
 ******************************************
 SetLPE:    new flags="-opt 'Tsnet.Node.lindarsharg: ssh'  -nodelist 'n1' -env GAUSS_MDEF=4294967296 -env GAUSS_EXEDIR="/hpc/softwares/Gaussian/g16/bsd:/hpc/softwares/Gaussian/g16""
 Will use up to    1 processors via Linda.
 ----------------------------------------------------------
 # td=(50-50,nstates=3) b3lyp/6-31+g(d,p) geom=connectivity
 ----------------------------------------------------------
 1/38=1,57=2,172=1/1;
 2/12=2,17=6,18=5,40=1/2;
 3/5=1,6=6,7=111,11=9,25=1,30=1,74=-5/1,2,3,8;
 4//1;
 5/5=2,38=5/2;
 8/6=1,10=2,108=3/1;
 9/41=3,42=1,48=2,70=2/14;
 6/7=2,8=2,9=2,10=2/1;
 99/5=1,9=1/99;
 -------------------
 Title Card Required
 -------------------
 Symbolic Z-matrix:
 Charge =  0 Multiplicity = 1
 C                    -4.25519   3.12679  -0.66127 
 N                    -4.51482   1.76866  -0.20522 
 C                    -5.84096   1.36612   0.03955 
 C                    -6.1696    0.0917    0.29045 
 C                    -5.16004  -1.02973   0.31888 
 C                    -3.75263  -0.49855   0.09268 
 C                    -2.67633  -1.487     0.0664 
 O                    -2.94328  -2.69584   0.05008 
 C                    -1.22482  -1.07561   0.04857 
 C                    -0.34838  -1.75799  -0.80952 
 C                     1.01043  -1.45854  -0.8265 
 C                     1.54912  -0.48785   0.03916 
 C                     3.0003   -0.17644   0.02924 
 C                     3.7199   -0.12401  -1.17922 
 C                     5.0796    0.16942  -1.19692 
 C                     5.75955   0.42067   0.00745 
 C                     7.16075   0.72657  -0.00381 
 N                     8.29783   0.97638  -0.01304 
 C                     5.0552    0.37009   1.22294 
 C                     3.6959    0.0745    1.22682 
 C                     0.67395   0.1708    0.91878 
 C                    -0.69249  -0.11222   0.9184 
 C                    -3.53008   0.82106  -0.1801 
 H                    -4.76338   3.8461   -0.01096 
 H                    -3.18251   3.32529  -0.61859 
 H                    -4.59928   3.28182  -1.69255 
 H                    -6.57054   2.1681    0.01724 
 H                    -7.21269  -0.14263   0.47987 
 H                    -5.39944  -1.79372  -0.4355 
 H                    -5.20658  -1.57023   1.27578 
 H                    -0.74671  -2.53746  -1.45112 
 H                     1.66865  -2.0091   -1.49218 
 H                     3.20256  -0.29182  -2.11848 
 H                     5.61842   0.21483  -2.13755 
 H                     5.57925   0.55201   2.15539 
 H                     3.17102   0.01155   2.1747 
 H                     1.0598    0.9267    1.59655 
 H                    -1.34274   0.40296   1.6188 
 H                    -2.53565   1.18842  -0.40607 
 
                          Input orientation:                          
 ---------------------------------------------------------------------
 Center     Atomic      Atomic             Coordinates (Angstroms)
 Number     Number       Type             X           Y           Z
 ---------------------------------------------------------------------
      1          6           0       -4.255186    3.126792   -0.661271
      2          7           0       -4.514822    1.768657   -0.205223
      3          6           0       -5.840962    1.366121    0.039548
      4          6           0       -6.169604    0.091702    0.290449
      5          6           0       -5.160037   -1.029727    0.318878
      6          6           0       -3.752632   -0.498546    0.092675
      7          6           0       -2.676334   -1.487001    0.066404
      8          8           0       -2.943277   -2.695838    0.050079
      9          6           0       -1.224821   -1.075612    0.048571
     10          6           0       -0.348380   -1.757993   -0.809521
     11          6           0        1.010434   -1.458544   -0.826495
     12          6           0        1.549118   -0.487845    0.039162
     13          6           0        3.000299   -0.176438    0.029243
     14          6           0        3.719896   -0.124007   -1.179220
     15          6           0        5.079597    0.169418   -1.196919
     16          6           0        5.759545    0.420667    0.007453
     17          6           0        7.160748    0.726569   -0.003813
     18          7           0        8.297831    0.976376   -0.013044
     19          6           0        5.055196    0.370087    1.222942
     20          6           0        3.695898    0.074500    1.226820
     21          6           0        0.673950    0.170797    0.918776
     22          6           0       -0.692493   -0.112222    0.918400
     23          6           0       -3.530075    0.821060   -0.180096
     24          1           0       -4.763380    3.846096   -0.010957
     25          1           0       -3.182507    3.325290   -0.618590
     26          1           0       -4.599280    3.281819   -1.692551
     27          1           0       -6.570544    2.168099    0.017235
     28          1           0       -7.212685   -0.142627    0.479873
     29          1           0       -5.399437   -1.793724   -0.435504
     30          1           0       -5.206578   -1.570228    1.275777
     31          1           0       -0.746711   -2.537460   -1.451117
     32          1           0        1.668654   -2.009096   -1.492182
     33          1           0        3.202565   -0.291819   -2.118480
     34          1           0        5.618424    0.214827   -2.137553
     35          1           0        5.579247    0.552011    2.155392
     36          1           0        3.171019    0.011554    2.174697
     37          1           0        1.059803    0.926695    1.596553
     38          1           0       -1.342741    0.402958    1.618796
     39          1           0       -2.535649    1.188422   -0.406068
 ---------------------------------------------------------------------
                    Distance matrix (angstroms):
                    1          2          3          4          5
     1  C    0.000000
     2  N    1.455995   0.000000
     3  C    2.470991   1.407336   0.000000
     4  C    3.712484   2.407524   1.339814   0.000000
     5  C    4.365329   2.919236   2.506346   1.509184   0.000000
     6  C    3.736853   2.410371   2.800166   2.495849   1.521220
     7  C    4.930453   3.748750   4.260974   3.839978   2.538035
     8  O    6.010836   4.739900   4.989609   4.270520   2.786073
     9  C    5.229454   4.356419   5.222155   5.086453   3.944756
    10  C    6.256695   5.491965   6.375693   6.206283   4.995568
    11  C    6.984222   6.428784   7.461259   7.429924   6.290507
    12  C    6.873584   6.474789   7.619086   7.744526   6.736812
    13  C    8.001887   7.766300   8.974825   9.177540   8.209938
    14  C    8.627740   8.505376   9.752737  10.000433   9.050847
    15  C    9.806689   9.777213  11.055295  11.347371  10.420446
    16  C   10.395438  10.364600  11.639015  11.937039  11.019887
    17  C   11.684043  11.723713  13.017502  13.348705  12.449516
    18  N   12.752361  12.838564  14.144262  14.497635  13.610615
    19  C    9.891051   9.776548  11.005397  11.266906  10.350256
    20  C    8.723595   8.505107   9.696886   9.909855   8.970577
    21  C    5.960775   5.544356   6.681760   6.872793   5.986363
    22  C    5.067480   4.405727   5.428132   5.516761   4.600021
    23  C    2.464491   1.366857   2.384436   2.778577   2.516180
    24  H    1.094791   2.101255   2.704443   4.020421   4.903038
    25  H    1.091725   2.090225   3.367324   4.495019   4.873976
    26  H    1.098168   2.123426   2.865631   4.071247   4.790587
    27  H    2.596218   2.105952   1.084415   2.132328   3.508078
    28  H    4.553912   3.376511   2.086104   1.085730   2.241925
    29  H    5.056853   3.677789   3.225715   2.162174   1.100044
    30  H    5.169071   3.717531   3.248515   2.158773   1.099983
    31  H    6.709471   5.856070   6.588734   6.273222   4.988345
    32  H    7.884138   7.359555   8.374522   8.308394   7.132329
    33  H    8.332371   8.213658   9.444111   9.684399   8.741758
    34  H   10.399381  10.432208  11.721040  12.036111  11.124666
    35  H   10.548894  10.437574  11.643056  11.904848  11.009401
    36  H    8.537912   8.235507   9.359995   9.529116   8.598536
    37  H    6.179588   5.918762   7.087871   7.393744   6.644279
    38  H    4.593508   3.905672   4.863713   5.015974   4.279500
    39  H    2.603692   2.072230   3.339947   3.859217   3.511858
                    6          7          8          9         10
     6  C    0.000000
     7  C    1.461558   0.000000
     8  O    2.342000   1.238068   0.000000
     9  C    2.593218   1.508791   2.361827   0.000000
    10  C    3.740200   2.502009   2.889975   1.403608   0.000000
    11  C    4.945025   3.793460   4.234514   2.430790   1.391522
    12  C    5.302031   4.342062   5.005693   2.835542   2.435988
    13  C    6.760906   5.826072   6.455533   4.319783   3.797169
    14  C    7.589247   6.657409   7.247301   5.182977   4.399711
    15  C    8.950838   8.030827   8.609948   6.545764   5.773034
    16  C    9.556868   8.649088   9.244108   7.142962   6.536112
    17  C   10.982353  10.083303  10.668041   8.577200   7.950422
    18  N   12.140850  11.247526  11.825889   9.741425   9.103193
    19  C    8.922436   8.035105   8.645870   6.550405   6.152907
    20  C    7.556141   6.662596   7.289591   5.188883   4.884762
    21  C    4.552482   3.833958   4.696441   2.432308   2.784313
    22  C    3.193042   2.559598   3.534838   1.402888   2.410951
    23  C    1.365758   2.473213   3.572938   2.993969   4.143775
    24  H    4.461868   5.727449   6.790685   6.062025   7.178840
    25  H    3.930987   4.887082   6.062865   4.862672   5.823100
    26  H    4.265560   5.434454   6.442941   5.779765   6.652037
    27  H    3.880376   5.341072   6.067621   6.252951   7.403584
    28  H    3.499795   4.749398   4.993141   6.075442   7.168726
    29  H    2.160654   2.785907   2.661263   4.263500   5.065012
    30  H    2.159211   2.805645   2.809246   4.195839   5.290162
    31  H    3.946647   2.670165   2.665253   2.148174   1.085303
    32  H    5.846698   4.645503   4.911221   3.408447   2.144179
    33  H    7.301144   6.384640   6.946462   4.991211   4.058602
    34  H    9.659167   8.749666   9.303786   7.298930   6.423273
    35  H    9.614699   8.756487   9.360250   7.306380   7.018803
    36  H    7.247894   6.393911   7.016309   5.002574   4.941965
    37  H    5.239513   4.703829   5.615957   3.409544   3.870364
    38  H    2.991543   2.785738   3.824281   2.160019   3.399292
    39  H    2.139078   2.720461   3.932138   2.655337   3.691650
                   11         12         13         14         15
    11  C    0.000000
    12  C    1.407764   0.000000
    13  C    2.517071   1.484250   0.000000
    14  C    3.040820   2.515772   1.407463   0.000000
    15  C    4.398359   3.797917   2.438559   1.391114   0.000000
    16  C    5.175032   4.307446   2.823198   2.421783   1.405691
    17  C    6.578593   5.741693   4.257446   3.734237   2.462744
    18  N    7.726364   6.905925   5.421680   4.850598   3.522751
    19  C    4.889190   3.798679   2.438485   2.792407   2.428290
    20  C    3.711879   2.517028   1.407487   2.414334   2.792516
    21  C    2.411212   1.404795   2.514705   3.710294   4.887320
    22  C    2.785175   2.437001   3.798873   4.885624   6.153935
    23  C    5.121586   5.249715   6.609433   7.379260   8.693964
    24  H    7.882971   7.657231   8.743975   9.438884  10.573962
    25  H    6.364672   6.112357   7.135046   7.736609   8.863202
    26  H    7.395268   7.417007   8.525123   9.003991  10.179064
    27  H    8.446043   8.543034   9.853833  10.610297  11.882537
    28  H    8.429586   8.779669  10.222977  11.057769  12.410044
    29  H    6.430526   7.086116   8.566631   9.300715  10.688491
    30  H    6.563784   6.952712   8.417204   9.370192  10.721287
    31  H    2.154477   3.419457   4.669687   5.084217   6.429438
    32  H    1.086048   2.161830   2.728855   2.803409   4.058033
    33  H    2.799270   2.725387   2.160310   1.085358   2.141323
    34  H    5.074703   4.668092   3.420917   2.153513   1.084983
    35  H    5.814468   4.669226   3.420836   3.877348   3.410867
    36  H    3.979506   2.727723   2.160430   3.401235   3.877549
    37  H    3.400436   2.160051   2.727432   3.985597   4.953352
    38  H    3.870668   3.413447   4.660941   5.808346   7.016354
    39  H    4.444985   4.437727   5.718309   6.438329   7.723716
                   16         17         18         19         20
    16  C    0.000000
    17  C    1.434250   0.000000
    18  N    2.598486   1.164236   0.000000
    19  C    1.405731   2.462794   3.522773   0.000000
    20  C    2.421844   3.734279   4.850611   1.391071   0.000000
    21  C    5.172642   6.575607   7.722746   4.396311   3.039134
    22  C    6.537782   7.951568   9.103766   5.775924   4.403177
    23  C    9.300136  10.692694  11.830105   8.710842   7.399422
    24  H   11.066429  12.325434  13.372753  10.488545   9.344325
    25  H    9.422795  10.682426  11.733808   8.943389   7.828514
    26  H   10.880324  12.152341  13.208758  10.497009   9.360534
    27  H   12.453301  13.806768  14.916088  11.825583  10.547326
    28  H   12.993046  14.407811  15.558639  12.301054  10.936282
    29  H   11.385193  12.817819  13.980954  10.804253   9.432852
    30  H   11.217315  12.643709  13.802728  10.443736   9.053265
    31  H    7.294471   8.676202   9.809120   7.019013   5.807793
    32  H    4.988792   6.313652   7.419358   4.949856   3.980460
    33  H    3.400790   4.601754   5.657112   3.877559   3.401264
    34  H    2.159476   2.682068   3.503244   3.410903   3.877474
    35  H    2.159491   2.682123   3.503270   1.084983   2.153431
    36  H    3.400704   4.601640   5.656969   2.141146   1.085325
    37  H    4.986871   6.310527   7.415006   4.051242   2.794984
    38  H    7.282802   8.662962   9.794506   6.410256   5.064525
    39  H    8.340905   9.715721  10.842680   7.806681   6.537532
                   21         22         23         24         25
    21  C    0.000000
    22  C    1.395445   0.000000
    23  C    4.393653   3.182700   0.000000
    24  H    6.628483   5.753617   3.271161   0.000000
    25  H    5.214075   4.514310   2.565979   1.771896   0.000000
    26  H    6.656158   5.796513   3.079944   1.781319   1.778350
    27  H    7.568665   6.368944   3.331352   2.466234   3.636229
    28  H    7.905054   6.534993   3.863401   4.706370   5.429126
    29  H    6.525293   5.178400   3.224414   5.691430   5.581452
    30  H    6.143226   4.757149   3.263202   5.584682   5.625974
    31  H    3.869021   3.391066   4.543376   7.678377   6.402971
    32  H    3.399130   3.870924   6.062849   8.823172   7.263099
    33  H    3.979049   4.942304   7.093960   9.220644   7.490146
    34  H    5.812995   7.019507   9.375190  11.202249   9.457199
    35  H    5.073114   6.426980   9.407797  11.068604   9.599708
    36  H    2.799652   4.064521   7.148777   9.079399   7.690942
    37  H    1.086115   2.147040   4.922867   6.709430   5.353252
    38  H    2.147317   1.085720   2.862735   5.119772   4.114688
    39  H    3.618328   2.615935   1.083929   3.490291   2.242721
                   26         27         28         29         30
    26  H    0.000000
    27  H    2.837186   0.000000
    28  H    4.824535   2.442506   0.000000
    29  H    5.289759   4.156020   2.617614   0.000000
    30  H    5.720327   4.173658   2.587658   1.736556   0.000000
    31  H    6.983164   7.629900   7.160500   4.820007   5.316192
    32  H    8.204933   9.360111   9.287136   7.149886   7.424488
    33  H    8.591920  10.301754  10.735508   8.892838   9.158002
    34  H   10.677356  12.531134  13.100231  11.328041  11.489905
    35  H   11.218776  12.441900  12.919884  11.521576  11.027767
    36  H    9.275117  10.208006  10.522239   9.139195   8.572877
    37  H    6.956295   7.890344   8.415728   7.297377   6.753151
    38  H    5.464239   5.745489   6.004253   5.049984   4.352053
    39  H    3.208726   4.173647   4.942798   4.134651   4.191970
                   31         32         33         34         35
    31  H    0.000000
    32  H    2.472821   0.000000
    33  H    4.591847   2.386247   0.000000
    34  H    6.968588   4.578539   2.468487   0.000000
    35  H    7.910087   5.929317   4.962524   4.306345   0.000000
    36  H    5.915455   4.448160   4.303998   4.962521   2.468204
    37  H    4.955013   4.304631   4.458439   5.935598   4.569252
    38  H    4.292514   4.956278   5.925348   7.912229   6.944355
    39  H    4.263171   5.392581   6.168514   8.392546   8.533325
                   36         37         38         39
    36  H    0.000000
    37  H    2.372544   0.000000
    38  H    4.564674   2.459067   0.000000
    39  H    6.372709   4.123866   2.477914   0.000000
 Stoichiometry    C20H16N2O
 Framework group  C1[X(C20H16N2O)]
 Deg. of freedom   111
 Full point group                 C1      NOp   1
 Largest Abelian subgroup         C1      NOp   1
 Largest concise Abelian subgroup C1      NOp   1
                         Standard orientation:                         
 ---------------------------------------------------------------------
 Center     Atomic      Atomic             Coordinates (Angstroms)
 Number     Number       Type             X           Y           Z
 ---------------------------------------------------------------------
      1          6           0       -4.255186    3.126792   -0.661271
      2          7           0       -4.514822    1.768657   -0.205223
      3          6           0       -5.840962    1.366121    0.039548
      4          6           0       -6.169604    0.091702    0.290449
      5          6           0       -5.160037   -1.029727    0.318878
      6          6           0       -3.752632   -0.498546    0.092675
      7          6           0       -2.676334   -1.487001    0.066404
      8          8           0       -2.943277   -2.695838    0.050079
      9          6           0       -1.224821   -1.075612    0.048571
     10          6           0       -0.348380   -1.757993   -0.809521
     11          6           0        1.010434   -1.458544   -0.826495
     12          6           0        1.549118   -0.487845    0.039162
     13          6           0        3.000299   -0.176438    0.029243
     14          6           0        3.719896   -0.124007   -1.179220
     15          6           0        5.079597    0.169418   -1.196919
     16          6           0        5.759545    0.420667    0.007453
     17          6           0        7.160748    0.726569   -0.003813
     18          7           0        8.297831    0.976376   -0.013044
     19          6           0        5.055196    0.370087    1.222942
     20          6           0        3.695898    0.074500    1.226820
     21          6           0        0.673950    0.170797    0.918776
     22          6           0       -0.692493   -0.112222    0.918400
     23          6           0       -3.530075    0.821060   -0.180096
     24          1           0       -4.763380    3.846096   -0.010957
     25          1           0       -3.182507    3.325290   -0.618590
     26          1           0       -4.599280    3.281819   -1.692551
     27          1           0       -6.570544    2.168099    0.017235
     28          1           0       -7.212685   -0.142627    0.479873
     29          1           0       -5.399437   -1.793724   -0.435504
     30          1           0       -5.206578   -1.570228    1.275777
     31          1           0       -0.746711   -2.537460   -1.451117
     32          1           0        1.668654   -2.009096   -1.492182
     33          1           0        3.202565   -0.291819   -2.118480
     34          1           0        5.618424    0.214827   -2.137553
     35          1           0        5.579247    0.552011    2.155392
     36          1           0        3.171019    0.011554    2.174697
     37          1           0        1.059803    0.926695    1.596553
     38          1           0       -1.342741    0.402958    1.618796
     39          1           0       -2.535649    1.188422   -0.406068
 ---------------------------------------------------------------------
 Rotational constants (GHZ):           0.7618070           0.0873470           0.0821473
 Standard basis: 6-31+G(d,p) (6D, 7F)
 There are   517 symmetry adapted cartesian basis functions of A   symmetry.
 There are   517 symmetry adapted basis functions of A   symmetry.
   517 basis functions,   848 primitive gaussians,   517 cartesian basis functions
    79 alpha electrons       79 beta electrons
       nuclear repulsion energy      1619.4452019940 Hartrees.
 NAtoms=   39 NActive=   39 NUniq=   39 SFac= 1.00D+00 NAtFMM=   60 NAOKFM=F Big=F
 Integral buffers will be    131072 words long.
 Regular integral format.
 Two-electron integral symmetry is turned on.
 One-electron integrals computed using PRISM.
 NBasis=   517 RedAO= T EigKep=  1.16D-06  NBF=   517
 NBsUse=   515 1.00D-06 EigRej=  4.68D-07 NBFU=   515
 ExpMin= 4.38D-02 ExpMax= 5.48D+03 ExpMxC= 8.25D+02 IAcc=3 IRadAn=         5 AccDes= 0.00D+00
 Harris functional with IExCor=  402 and IRadAn=       5 diagonalized for initial guess.
 HarFok:  IExCor=  402 AccDes= 0.00D+00 IRadAn=         5 IDoV= 1 UseB2=F ITyADJ=14
 ICtDFT=  3500011 ScaDFX=  1.000000  1.000000  1.000000  1.000000
 FoFCou: FMM=F IPFlag=           0 FMFlag=      100000 FMFlg1=           0
         NFxFlg=           0 DoJE=T BraDBF=F KetDBF=T FulRan=T
         wScrn=  0.000000 ICntrl=       500 IOpCl=  0 I1Cent=   200000004 NGrid=           0
         NMat0=    1 NMatS0=      1 NMatT0=    0 NMatD0=    1 NMtDS0=    0 NMtDT0=    0
 Petite list used in FoFCou.
 Requested convergence on RMS density matrix=1.00D-08 within 128 cycles.
 Requested convergence on MAX density matrix=1.00D-06.
 Requested convergence on             energy=1.00D-06.
 No special actions if energy rises.
 SCF Done:  E(RB3LYP) =  -956.518492529     A.U. after   18 cycles
            NFock= 18  Conv=0.57D-08     -V/T= 2.0097
 DoSCS=F DFT=T ScalE2(SS,OS)=  1.000000  1.000000
 ExpMin= 4.38D-02 ExpMax= 5.48D+03 ExpMxC= 8.25D+02 IAcc=3 IRadAn=         5 AccDes= 0.00D+00
 HarFok:  IExCor=  205 AccDes= 0.00D+00 IRadAn=         5 IDoV=-2 UseB2=F ITyADJ=14
 ICtDFT= 12500011 ScaDFX=  1.000000  1.000000  1.000000  1.000000
 GSVD:  LWork=        -713 too small for GESVD, short by        2990 words or        2990 for optimal perf.
 Range of M.O.s used for correlation:    24   515
 NBasis=   517 NAE=    79 NBE=    79 NFC=    23 NFV=     0
 NROrb=    492 NOA=    56 NOB=    56 NVA=   436 NVB=   436

 **** Warning!!: The largest alpha MO coefficient is  0.17479262D+03

 Orbital symmetries:
       Occupied  (A) (A) (A) (A) (A) (A) (A) (A) (A) (A) (A) (A)
                 (A) (A) (A) (A) (A) (A) (A) (A) (A) (A) (A) (A)
                 (A) (A) (A) (A) (A) (A) (A) (A) (A) (A) (A) (A)
                 (A) (A) (A) (A) (A) (A) (A) (A) (A) (A) (A) (A)
                 (A) (A) (A) (A) (A) (A) (A) (A) (A) (A) (A) (A)
                 (A) (A) (A) (A) (A) (A) (A) (A) (A) (A) (A) (A)
                 (A) (A) (A) (A) (A) (A) (A)
       Virtual   (A) (A) (A) (A) (A) (A) (A) (A) (A) (A) (A) (A)
                 (A) (A) (A) (A) (A) (A) (A) (A) (A) (A) (A) (A)
                 (A) (A) (A) (A) (A) (A) (A) (A) (A) (A) (A) (A)
                 (A) (A) (A) (A) (A) (A) (A) (A) (A) (A) (A) (A)
                 (A) (A) (A) (A) (A) (A) (A) (A) (A) (A) (A) (A)
                 (A) (A) (A) (A) (A) (A) (A) (A) (A) (A) (A) (A)
                 (A) (A) (A) (A) (A) (A) (A) (A) (A) (A) (A) (A)
                 (A) (A) (A) (A) (A) (A) (A) (A) (A) (A) (A) (A)
                 (A) (A) (A) (A) (A) (A) (A) (A) (A) (A) (A) (A)
                 (A) (A) (A) (A) (A) (A) (A) (A) (A) (A) (A) (A)
                 (A) (A) (A) (A) (A) (A) (A) (A) (A) (A) (A) (A)
                 (A) (A) (A) (A) (A) (A) (A) (A) (A) (A) (A) (A)
                 (A) (A) (A) (A) (A) (A) (A) (A) (A) (A) (A) (A)
                 (A) (A) (A) (A) (A) (A) (A) (A) (A) (A) (A) (A)
                 (A) (A) (A) (A) (A) (A) (A) (A) (A) (A) (A) (A)
                 (A) (A) (A) (A) (A) (A) (A) (A) (A) (A) (A) (A)
                 (A) (A) (A) (A) (A) (A) (A) (A) (A) (A) (A) (A)
                 (A) (A) (A) (A) (A) (A) (A) (A) (A) (A) (A) (A)
                 (A) (A) (A) (A) (A) (A) (A) (A) (A) (A) (A) (A)
                 (A) (A) (A) (A) (A) (A) (A) (A) (A) (A) (A) (A)
                 (A) (A) (A) (A) (A) (A) (A) (A) (A) (A) (A) (A)
                 (A) (A) (A) (A) (A) (A) (A) (A) (A) (A) (A) (A)
                 (A) (A) (A) (A) (A) (A) (A) (A) (A) (A) (A) (A)
                 (A) (A) (A) (A) (A) (A) (A) (A) (A) (A) (A) (A)
                 (A) (A) (A) (A) (A) (A) (A) (A) (A) (A) (A) (A)
                 (A) (A) (A) (A) (A) (A) (A) (A) (A) (A) (A) (A)
                 (A) (A) (A) (A) (A) (A) (A) (A) (A) (A) (A) (A)
                 (A) (A) (A) (A) (A) (A) (A) (A) (A) (A) (A) (A)
                 (A) (A) (A) (A) (A) (A) (A) (A) (A) (A) (A) (A)
                 (A) (A) (A) (A) (A) (A) (A) (A) (A) (A) (A) (A)
                 (A) (A) (A) (A) (A) (A) (A) (A) (A) (A) (A) (A)
                 (A) (A) (A) (A) (A) (A) (A) (A) (A) (A) (A) (A)
                 (A) (A) (A) (A) (A) (A) (A) (A) (A) (A) (A) (A)
                 (A) (A) (A) (A) (A) (A) (A) (A) (A) (A) (A) (A)
                 (A) (A) (A) (A) (A) (A) (A) (A) (A) (A) (A) (A)
                 (A) (A) (A) (A) (A) (A) (A) (A) (A) (A) (A) (A)
                 (A) (A) (A) (A)
    24 initial guesses have been made.
 Convergence on wavefunction:    0.001000000000000
 Iteration     1 Dimension    24 NMult     0 NNew     24
 CISAX will form    24 AO SS matrices at one time.
 New state      1 was old state      4
 New state      2 was old state      1
 New state      3 was old state      2
 New state      4 was old state      8
 New state      5 was old state     12
 New state      6 was old state      7
 New state      7 was old state      3
 New state      8 was old state      6
 New state      9 was old state      5
 New state     11 was old state      9
 New state     12 was old state     14
 Vector   5 SDiff=5.11D-01 TDiff=5.04D+00 assumed to be singlet.
 Vector  11 SDiff=3.51D+00 TDiff=1.45D+00 assumed to be triplet.
 Iteration     2 Dimension    36 NMult    24 NNew     12
 New state      2 was old state      3
 New state      3 was old state      2
 New state      5 was old state      6
 New state      6 was old state      7
 Iteration     3 Dimension    48 NMult    36 NNew     12
 Iteration     4 Dimension    60 NMult    48 NNew     12
 Iteration     5 Dimension    72 NMult    60 NNew     12
 Iteration     6 Dimension    82 NMult    72 NNew     10
 Iteration     7 Dimension    88 NMult    82 NNew      6
 Iteration     8 Dimension    90 NMult    88 NNew      2
 ***********************************************************************
 Excited states from <AA,BB:AA,BB> singles matrix:
 ***********************************************************************
 
 Ground to excited state transition densities written to RWF  633
 Ground to excited state transition electric dipole moments (Au):
       state          X           Y           Z        Dip. S.      Osc.
         1        -0.0000      0.0000     -0.0000      0.0000      0.0000
         2        -0.0000     -0.0000     -0.0000      0.0000      0.0000
         3        -1.2547      0.4266     -0.0191      1.7565      0.1296
         4         0.0000      0.0000      0.0000      0.0000      0.0000
         5        -1.2193      0.4443     -0.0188      1.6845      0.1446
         6        -0.2815      0.4458     -0.0561      0.2811      0.0250
 Ground to excited state transition velocity dipole moments (Au):
       state          X           Y           Z        Dip. S.      Osc.
         1         0.0000     -0.0000      0.0000      0.0000      0.0000
         2         0.0000      0.0000      0.0000      0.0000      0.0000
         3         0.1357     -0.0439     -0.0010      0.0204      0.1226
         4        -0.0000      0.0000     -0.0000      0.0000      0.0000
         5         0.1557     -0.0530      0.0015      0.0271      0.1400
         6         0.0374     -0.0544      0.0069      0.0044      0.0220
 Ground to excited state transition magnetic dipole moments (Au):
       state          X           Y           Z
         1         0.0000     -0.0000      0.0000
         2         0.0000      0.0000      0.0000
         3        -0.0357      0.0178      0.1124
         4         0.0000      0.0000     -0.0000
         5        -0.0349      0.2723     -0.3799
         6        -0.1803     -0.6936     -0.1860
 Ground to excited state transition velocity quadrupole moments (Au):
       state          XX          YY          ZZ          XY          XZ          YZ
         1         0.0000     -0.0000     -0.0000      0.0000      0.0000      0.0000
         2        -0.0000      0.0000     -0.0000      0.0000     -0.0000      0.0000
         3        -0.6002      0.0128      0.0031      0.3223      0.0179      0.0484
         4         0.0000     -0.0000     -0.0000     -0.0000     -0.0000      0.0000
         5        -1.0257      0.0266     -0.0009      0.3549      0.0017      0.0543
         6        -1.0979      0.1403     -0.0266      0.3123      0.0528      0.0102
 <0|del|b> * <b|rxdel|0> + <0|del|b> * <b|delr+rdel|0>
 Rotatory Strengths (R) in cgs (10**-40 erg-esu-cm/Gauss)
       state          XX          YY          ZZ    R(velocity)    E-M Angle
         1         0.0000      0.0000      0.0000      0.0000       90.00
         2         0.0000      0.0000     -0.0000      0.0000       90.00
         3        -1.4185      6.1851    -41.4984    -12.2439      109.74
         4         0.0000     -0.0000      0.0000      0.0000       90.00
         5       -39.4826      5.2969    -78.0129    -37.3995      105.37
         6       110.0880    -26.0569     73.6127     52.5479       52.81
 1/2[<0|r|b>*<b|rxdel|0> + (<0|rxdel|b>*<b|r|0>)*]
 Rotatory Strengths (R) in cgs (10**-40 erg-esu-cm/Gauss)
       state          XX          YY          ZZ     R(length)
         1         0.0000      0.0000      0.0000      0.0000
         2         0.0000      0.0000      0.0000      0.0000
         3       -31.7015     -5.3667      1.5175    -11.8503
         4        -0.0000     -0.0000      0.0000     -0.0000
         5       -30.0583    -85.5636     -5.0576    -40.2265
         6       -35.8926    218.6255     -7.3780     58.4517
  1/2[<0|del|b>*<b|r|0> + (<0|r|b>*<b|del|0>)*] (Au)
       state          X           Y           Z        Dip. S.   Osc.(frdel)
         1        -0.0000     -0.0000     -0.0000      0.0000      0.0000
         2        -0.0000     -0.0000     -0.0000      0.0000      0.0000
         3        -0.1703     -0.0187      0.0000      0.1890      0.1260
         4        -0.0000      0.0000     -0.0000      0.0000      0.0000
         5        -0.1898     -0.0236     -0.0000      0.2134      0.1423
         6        -0.0105     -0.0242     -0.0004      0.0352      0.0234

 Excitation energies and oscillator strengths:
 
 Excited State   1:      Triplet-A      2.2516 eV  550.66 nm  f=0.0000  <S**2>=2.000
      79 -> 80         0.41399
      79 -> 81         0.54602
      79 -> 84        -0.12839
 This state for optimization and/or second-order correction.
 Total Energy, E(TD-HF/TD-DFT) =  -956.435749056    
 Copying the excited state density for this state as the 1-particle RhoCI density.
 
 Excited State   2:      Triplet-A      2.8986 eV  427.75 nm  f=0.0000  <S**2>=2.000
      73 -> 84         0.10756
      74 -> 82         0.11731
      76 -> 83        -0.11400
      77 -> 80        -0.26534
      77 -> 81         0.15443
      78 -> 80         0.51956
      79 -> 80        -0.21993
      79 -> 81         0.12237
 
 Excited State   3:      Singlet-A      3.0114 eV  411.72 nm  f=0.1296  <S**2>=0.000
      79 -> 80         0.70165
 
 Excited State   4:      Triplet-A      3.0853 eV  401.85 nm  f=0.0000  <S**2>=2.000
      77 -> 81         0.10486
      78 -> 80         0.24560
      78 -> 81         0.13957
      79 -> 80         0.48584
      79 -> 81        -0.33539
      79 -> 84         0.18001
 
 Excited State   5:      Singlet-A      3.5046 eV  353.77 nm  f=0.1446  <S**2>=0.000
      77 -> 81        -0.10918
      78 -> 80        -0.29416
      78 -> 81        -0.17548
      79 -> 81         0.58558
 
 Excited State   6:      Singlet-A      3.6249 eV  342.04 nm  f=0.0250  <S**2>=0.000
      77 -> 80         0.28372
      77 -> 81         0.21313
      78 -> 80         0.37905
      78 -> 81         0.27806
      79 -> 81         0.36118
 SavETr:  write IOETrn=   770 NScale= 10 NData=  16 NLR=1 NState=    6 LETran=     118.

 **********************************************************************

            Population analysis using the SCF Density.

 **********************************************************************

 Orbital symmetries:
       Occupied  (A) (A) (A) (A) (A) (A) (A) (A) (A) (A) (A) (A)
                 (A) (A) (A) (A) (A) (A) (A) (A) (A) (A) (A) (A)
                 (A) (A) (A) (A) (A) (A) (A) (A) (A) (A) (A) (A)
                 (A) (A) (A) (A) (A) (A) (A) (A) (A) (A) (A) (A)
                 (A) (A) (A) (A) (A) (A) (A) (A) (A) (A) (A) (A)
                 (A) (A) (A) (A) (A) (A) (A) (A) (A) (A) (A) (A)
                 (A) (A) (A) (A) (A) (A) (A)
       Virtual   (A) (A) (A) (A) (A) (A) (A) (A) (A) (A) (A) (A)
                 (A) (A) (A) (A) (A) (A) (A) (A) (A) (A) (A) (A)
                 (A) (A) (A) (A) (A) (A) (A) (A) (A) (A) (A) (A)
                 (A) (A) (A) (A) (A) (A) (A) (A) (A) (A) (A) (A)
                 (A) (A) (A) (A) (A) (A) (A) (A) (A) (A) (A) (A)
                 (A) (A) (A) (A) (A) (A) (A) (A) (A) (A) (A) (A)
                 (A) (A) (A) (A) (A) (A) (A) (A) (A) (A) (A) (A)
                 (A) (A) (A) (A) (A) (A) (A) (A) (A) (A) (A) (A)
                 (A) (A) (A) (A) (A) (A) (A) (A) (A) (A) (A) (A)
                 (A) (A) (A) (A) (A) (A) (A) (A) (A) (A) (A) (A)
                 (A) (A) (A) (A) (A) (A) (A) (A) (A) (A) (A) (A)
                 (A) (A) (A) (A) (A) (A) (A) (A) (A) (A) (A) (A)
                 (A) (A) (A) (A) (A) (A) (A) (A) (A) (A) (A) (A)
                 (A) (A) (A) (A) (A) (A) (A) (A) (A) (A) (A) (A)
                 (A) (A) (A) (A) (A) (A) (A) (A) (A) (A) (A) (A)
                 (A) (A) (A) (A) (A) (A) (A) (A) (A) (A) (A) (A)
                 (A) (A) (A) (A) (A) (A) (A) (A) (A) (A) (A) (A)
                 (A) (A) (A) (A) (A) (A) (A) (A) (A) (A) (A) (A)
                 (A) (A) (A) (A) (A) (A) (A) (A) (A) (A) (A) (A)
                 (A) (A) (A) (A) (A) (A) (A) (A) (A) (A) (A) (A)
                 (A) (A) (A) (A) (A) (A) (A) (A) (A) (A) (A) (A)
                 (A) (A) (A) (A) (A) (A) (A) (A) (A) (A) (A) (A)
                 (A) (A) (A) (A) (A) (A) (A) (A) (A) (A) (A) (A)
                 (A) (A) (A) (A) (A) (A) (A) (A) (A) (A) (A) (A)
                 (A) (A) (A) (A) (A) (A) (A) (A) (A) (A) (A) (A)
                 (A) (A) (A) (A) (A) (A) (A) (A) (A) (A) (A) (A)
                 (A) (A) (A) (A) (A) (A) (A) (A) (A) (A) (A) (A)
                 (A) (A) (A) (A) (A) (A) (A) (A) (A) (A) (A) (A)
                 (A) (A) (A) (A) (A) (A) (A) (A) (A) (A) (A) (A)
                 (A) (A) (A) (A) (A) (A) (A) (A) (A) (A) (A) (A)
                 (A) (A) (A) (A) (A) (A) (A) (A) (A) (A) (A) (A)
                 (A) (A) (A) (A) (A) (A) (A) (A) (A) (A) (A) (A)
                 (A) (A) (A) (A) (A) (A) (A) (A) (A) (A) (A) (A)
                 (A) (A) (A) (A) (A) (A) (A) (A) (A) (A) (A) (A)
                 (A) (A) (A) (A) (A) (A) (A) (A) (A) (A) (A) (A)
                 (A) (A) (A) (A) (A) (A) (A) (A) (A) (A) (A) (A)
                 (A) (A) (A) (A)
 The electronic state is 1-A.
 Alpha  occ. eigenvalues --  -19.13116 -14.40404 -14.34832 -10.27187 -10.25530
 Alpha  occ. eigenvalues --  -10.25211 -10.25092 -10.24004 -10.23964 -10.23565
 Alpha  occ. eigenvalues --  -10.23033 -10.23029 -10.22621 -10.22290 -10.22284
 Alpha  occ. eigenvalues --  -10.21568 -10.21513 -10.21460 -10.21279 -10.20983
 Alpha  occ. eigenvalues --  -10.20347 -10.20190 -10.20034  -1.02685  -0.99539
 Alpha  occ. eigenvalues --   -0.91840  -0.89621  -0.87471  -0.82780  -0.81464
 Alpha  occ. eigenvalues --   -0.79288  -0.78178  -0.76626  -0.76150  -0.73969
 Alpha  occ. eigenvalues --   -0.68935  -0.66389  -0.65301  -0.64838  -0.62068
 Alpha  occ. eigenvalues --   -0.61663  -0.57613  -0.57292  -0.54513  -0.53629
 Alpha  occ. eigenvalues --   -0.51347  -0.50203  -0.49902  -0.48509  -0.47410
 Alpha  occ. eigenvalues --   -0.47101  -0.46515  -0.45769  -0.45641  -0.45383
 Alpha  occ. eigenvalues --   -0.43966  -0.43580  -0.43231  -0.42880  -0.41574
 Alpha  occ. eigenvalues --   -0.41126  -0.39511  -0.38595  -0.37981  -0.37729
 Alpha  occ. eigenvalues --   -0.37023  -0.36882  -0.36765  -0.36025  -0.35464
 Alpha  occ. eigenvalues --   -0.35150  -0.34028  -0.29466  -0.28651  -0.28596
 Alpha  occ. eigenvalues --   -0.27430  -0.25637  -0.24454  -0.20534
 Alpha virt. eigenvalues --   -0.08015  -0.05695  -0.04170  -0.03118  -0.02353
 Alpha virt. eigenvalues --   -0.01587  -0.00623   0.00575   0.00736   0.00971
 Alpha virt. eigenvalues --    0.01077   0.02007   0.02136   0.02483   0.02836
 Alpha virt. eigenvalues --    0.03346   0.03563   0.03890   0.04309   0.04479
 Alpha virt. eigenvalues --    0.04789   0.05246   0.05780   0.06005   0.06425
 Alpha virt. eigenvalues --    0.06569   0.06653   0.07545   0.07649   0.08227
 Alpha virt. eigenvalues --    0.08330   0.08728   0.09130   0.09705   0.10068
 Alpha virt. eigenvalues --    0.10232   0.10830   0.11143   0.11329   0.11662
 Alpha virt. eigenvalues --    0.11818   0.11977   0.12515   0.12806   0.13271
 Alpha virt. eigenvalues --    0.13735   0.13989   0.14147   0.14347   0.15211
 Alpha virt. eigenvalues --    0.15378   0.15516   0.16034   0.16117   0.16308
 Alpha virt. eigenvalues --    0.16504   0.17070   0.17288   0.17482   0.18036
 Alpha virt. eigenvalues --    0.18198   0.18841   0.19095   0.19393   0.19654
 Alpha virt. eigenvalues --    0.19999   0.20313   0.20469   0.20737   0.20888
 Alpha virt. eigenvalues --    0.21238   0.21419   0.21720   0.21924   0.22209
 Alpha virt. eigenvalues --    0.22666   0.22822   0.23029   0.23469   0.23717
 Alpha virt. eigenvalues --    0.24024   0.24199   0.24558   0.24681   0.25161
 Alpha virt. eigenvalues --    0.25473   0.25575   0.25708   0.25908   0.26197
 Alpha virt. eigenvalues --    0.26349   0.27010   0.27075   0.27264   0.27910
 Alpha virt. eigenvalues --    0.28117   0.28312   0.28742   0.29006   0.29111
 Alpha virt. eigenvalues --    0.29296   0.29672   0.29884   0.30137   0.30177
 Alpha virt. eigenvalues --    0.30659   0.30905   0.31034   0.31636   0.32313
 Alpha virt. eigenvalues --    0.32574   0.32859   0.33376   0.33503   0.33927
 Alpha virt. eigenvalues --    0.34509   0.34604   0.35104   0.35615   0.36345
 Alpha virt. eigenvalues --    0.36908   0.37652   0.38137   0.38481   0.39384
 Alpha virt. eigenvalues --    0.40052   0.40376   0.42103   0.42167   0.42667
 Alpha virt. eigenvalues --    0.44359   0.46746   0.47742   0.49207   0.49870
 Alpha virt. eigenvalues --    0.51407   0.53510   0.53718   0.58432   0.58846
 Alpha virt. eigenvalues --    0.59814   0.63270   0.64885   0.65853   0.66462
 Alpha virt. eigenvalues --    0.66761   0.68023   0.68383   0.69034   0.69809
 Alpha virt. eigenvalues --    0.70317   0.70384   0.70511   0.71440   0.71901
 Alpha virt. eigenvalues --    0.71996   0.72906   0.73220   0.73581   0.74358
 Alpha virt. eigenvalues --    0.75155   0.75227   0.75429   0.76637   0.76970
 Alpha virt. eigenvalues --    0.77016   0.77448   0.78440   0.78849   0.79163
 Alpha virt. eigenvalues --    0.79741   0.80874   0.81569   0.81808   0.82438
 Alpha virt. eigenvalues --    0.84035   0.84698   0.85205   0.85615   0.87118
 Alpha virt. eigenvalues --    0.87898   0.88045   0.88454   0.88846   0.89825
 Alpha virt. eigenvalues --    0.91007   0.91422   0.92428   0.93093   0.93908
 Alpha virt. eigenvalues --    0.94323   0.94694   0.95220   0.96440   0.96918
 Alpha virt. eigenvalues --    0.97065   0.97972   0.98868   0.99489   1.00586
 Alpha virt. eigenvalues --    1.01579   1.01732   1.02159   1.03968   1.04444
 Alpha virt. eigenvalues --    1.05048   1.05878   1.07757   1.09200   1.09670
 Alpha virt. eigenvalues --    1.09894   1.10974   1.12194   1.12920   1.15002
 Alpha virt. eigenvalues --    1.15790   1.17362   1.18671   1.18701   1.19182
 Alpha virt. eigenvalues --    1.19657   1.20060   1.21054   1.22840   1.23287
 Alpha virt. eigenvalues --    1.24023   1.24881   1.25198   1.26142   1.27357
 Alpha virt. eigenvalues --    1.28185   1.29399   1.29729   1.30451   1.31225
 Alpha virt. eigenvalues --    1.31842   1.33467   1.33998   1.34606   1.36191
 Alpha virt. eigenvalues --    1.36708   1.36943   1.37656   1.37848   1.38176
 Alpha virt. eigenvalues --    1.38853   1.39519   1.39700   1.40360   1.41443
 Alpha virt. eigenvalues --    1.43410   1.44111   1.44528   1.46496   1.47854
 Alpha virt. eigenvalues --    1.48943   1.50588   1.52624   1.53422   1.55403
 Alpha virt. eigenvalues --    1.57476   1.59373   1.63219   1.66516   1.69829
 Alpha virt. eigenvalues --    1.72838   1.73763   1.73906   1.75252   1.76469
 Alpha virt. eigenvalues --    1.76852   1.78272   1.79091   1.79554   1.80399
 Alpha virt. eigenvalues --    1.80592   1.81427   1.81860   1.82651   1.86256
 Alpha virt. eigenvalues --    1.86317   1.87186   1.88511   1.89214   1.90044
 Alpha virt. eigenvalues --    1.90801   1.93146   1.93275   1.93849   1.94948
 Alpha virt. eigenvalues --    1.95638   1.95977   1.96104   1.96890   1.98194
 Alpha virt. eigenvalues --    1.98766   1.99363   1.99738   2.00175   2.00770
 Alpha virt. eigenvalues --    2.01573   2.02155   2.02343   2.04469   2.05887
 Alpha virt. eigenvalues --    2.06335   2.07179   2.07337   2.07970   2.08947
 Alpha virt. eigenvalues --    2.09320   2.11036   2.13288   2.16017   2.16533
 Alpha virt. eigenvalues --    2.17903   2.18636   2.22503   2.22816   2.23923
 Alpha virt. eigenvalues --    2.25230   2.27215   2.27772   2.28685   2.30675
 Alpha virt. eigenvalues --    2.31858   2.32738   2.33983   2.35356   2.36357
 Alpha virt. eigenvalues --    2.38443   2.39196   2.39646   2.40792   2.41932
 Alpha virt. eigenvalues --    2.41967   2.42663   2.43187   2.43541   2.44426
 Alpha virt. eigenvalues --    2.45103   2.46587   2.47882   2.48539   2.50315
 Alpha virt. eigenvalues --    2.51214   2.52109   2.52735   2.53271   2.54406
 Alpha virt. eigenvalues --    2.56077   2.56769   2.57696   2.58633   2.59169
 Alpha virt. eigenvalues --    2.60408   2.60873   2.61505   2.61986   2.62468
 Alpha virt. eigenvalues --    2.63510   2.63738   2.65648   2.67302   2.67812
 Alpha virt. eigenvalues --    2.70663   2.70942   2.73241   2.74674   2.76060
 Alpha virt. eigenvalues --    2.77198   2.78495   2.79888   2.81110   2.82190
 Alpha virt. eigenvalues --    2.83013   2.84451   2.84999   2.86204   2.88882
 Alpha virt. eigenvalues --    2.92220   2.93819   2.98271   3.00918   3.04128
 Alpha virt. eigenvalues --    3.05721   3.06844   3.07206   3.08766   3.17349
 Alpha virt. eigenvalues --    3.18515   3.19798   3.20710   3.22493   3.26321
 Alpha virt. eigenvalues --    3.26652   3.27098   3.28320   3.29885   3.32694
 Alpha virt. eigenvalues --    3.35523   3.36480   3.37759   3.38608   3.40425
 Alpha virt. eigenvalues --    3.44018   3.47801   3.49681   3.51213   3.52721
 Alpha virt. eigenvalues --    3.71842   3.76973   3.84412   4.20787   4.24075
 Alpha virt. eigenvalues --    4.29152   4.29369   4.31782   4.32841   4.34037
 Alpha virt. eigenvalues --    4.35994   4.38948   4.41725   4.43364   4.44373
 Alpha virt. eigenvalues --    4.48816   4.49016   4.49401   4.53482   4.54826
 Alpha virt. eigenvalues --    4.57352   4.62309   4.71904   4.80670   4.85015
 Alpha virt. eigenvalues --    4.92607
          Condensed to atoms (all electrons):
               1          2          3          4          5          6
     1  C    5.269516   0.112691  -0.094328   0.016080  -0.114886  -0.543218
     2  N    0.112691   6.901756   0.267117  -0.075616  -0.108250  -0.083138
     3  C   -0.094328   0.267117   5.436670   0.374215   0.252895   0.236055
     4  C    0.016080  -0.075616   0.374215   5.779948  -1.034270   0.356865
     5  C   -0.114886  -0.108250   0.252895  -1.034270  11.382524  -0.708079
     6  C   -0.543218  -0.083138   0.236055   0.356865  -0.708079  20.815387
     7  C   -0.017977  -0.005246  -0.049205  -0.285320   0.940951  -4.020935
     8  O    0.001403  -0.001951  -0.000085   0.018828  -0.003975  -0.078636
     9  C   -0.136262  -0.045479  -0.042992  -0.100388  -0.058285  -2.312912
    10  C   -0.034411  -0.049777   0.003945  -0.062914   0.336482   0.621411
    11  C    0.012471   0.005111   0.019517  -0.016950   0.212755  -0.016145
    12  C    0.001937  -0.017537   0.000234  -0.001567  -0.019664  -0.076303
    13  C    0.000674  -0.001233  -0.000031  -0.000469   0.011736   0.061486
    14  C   -0.001355  -0.000619   0.000498  -0.000397   0.011556   0.053824
    15  C    0.000006  -0.000000   0.000006   0.000037  -0.000779  -0.006550
    16  C   -0.000056  -0.000004  -0.000004   0.000002   0.000108   0.004009
    17  C    0.000000  -0.000000  -0.000000   0.000000   0.000002   0.000313
    18  N   -0.000000  -0.000000  -0.000000   0.000000   0.000000  -0.000000
    19  C    0.000282  -0.000035  -0.000003  -0.000035   0.000825   0.007597
    20  C    0.000463   0.000802  -0.000328   0.000456  -0.010162  -0.020515
    21  C    0.057677   0.055480  -0.008360  -0.001245  -0.280506  -1.261156
    22  C    0.074082  -0.018577  -0.047588   0.071049  -0.324394   0.150772
    23  C    0.428120   0.386325  -0.779437   0.858244  -5.115581  -7.793725
    24  H    0.411002  -0.050157  -0.008578   0.004947  -0.003950   0.000814
    25  H    0.423407  -0.059219   0.005632  -0.013659   0.008109  -0.002169
    26  H    0.404406  -0.051340  -0.001982   0.016280  -0.009743  -0.004854
    27  H   -0.013575  -0.078599   0.300947   0.036496   0.045310   0.008483
    28  H   -0.001600   0.003574   0.040125   0.313611  -0.072879   0.031040
    29  H    0.002260   0.010743   0.010241  -0.038919   0.481412  -0.080418
    30  H    0.000051   0.006742  -0.006241  -0.041124   0.370866  -0.042358
    31  H   -0.000015   0.000090   0.000225  -0.000016   0.008581   0.054169
    32  H   -0.000004   0.000001  -0.000003  -0.000000  -0.000043   0.000357
    33  H   -0.000000  -0.000000   0.000000  -0.000000   0.000003  -0.000087
    34  H    0.000000   0.000000   0.000000  -0.000000  -0.000000  -0.000001
    35  H   -0.000000   0.000000   0.000000  -0.000000   0.000000  -0.000001
    36  H   -0.000001  -0.000000  -0.000000   0.000000  -0.000008  -0.000037
    37  H   -0.000135  -0.000040   0.000059  -0.000077   0.000998   0.012180
    38  H   -0.002274   0.000694   0.000685  -0.000396  -0.006090  -0.011319
    39  H   -0.031321  -0.088651   0.004150  -0.003471  -0.006203   0.081659
               7          8          9         10         11         12
     1  C   -0.017977   0.001403  -0.136262  -0.034411   0.012471   0.001937
     2  N   -0.005246  -0.001951  -0.045479  -0.049777   0.005111  -0.017537
     3  C   -0.049205  -0.000085  -0.042992   0.003945   0.019517   0.000234
     4  C   -0.285320   0.018828  -0.100388  -0.062914  -0.016950  -0.001567
     5  C    0.940951  -0.003975  -0.058285   0.336482   0.212755  -0.019664
     6  C   -4.020935  -0.078636  -2.312912   0.621411  -0.016145  -0.076303
     7  C   10.370550   0.510843  -0.937740  -1.776652   1.720626  -0.689566
     8  O    0.510843   8.284161  -0.250075   0.031999   0.034960  -0.024688
     9  C   -0.937740  -0.250075  19.625753  -1.853705  -0.704631  -2.585534
    10  C   -1.776652   0.031999  -1.853705  16.244247  -6.005097   2.471603
    11  C    1.720626   0.034960  -0.704631  -6.005097  19.515829  -3.971481
    12  C   -0.689566  -0.024688  -2.585534   2.471603  -3.971481  13.414829
    13  C    0.078230   0.003438  -0.939434   0.298745   0.954829  -1.411044
    14  C    0.060527  -0.000105  -0.092010  -0.879175   0.694691  -0.406813
    15  C   -0.016534  -0.000129  -0.042910   0.324241  -0.266523   0.320313
    16  C    0.004538   0.000042   0.020504  -0.087661   0.144126  -0.186790
    17  C    0.000377   0.000003   0.013136  -0.031140   0.072025   0.111102
    18  N    0.000001  -0.000000  -0.000057   0.000147  -0.000491  -0.003273
    19  C    0.017032   0.000313  -0.004620  -0.163401   0.254649   0.012248
    20  C   -0.055832  -0.000056   0.266497   0.608845  -0.262015   0.075807
    21  C   -1.009972  -0.041997   5.094657  -5.107475  -4.696804  -3.308600
    22  C    0.644729  -0.032232  -8.161879   2.443810  -1.865602   1.851037
    23  C    0.437907  -0.031884  -1.447907  -1.277167  -0.138406   0.073822
    24  H   -0.002182   0.000001  -0.001998   0.000149  -0.000043   0.000082
    25  H   -0.001544   0.000007  -0.005961   0.000781  -0.000238   0.000946
    26  H    0.003258  -0.000010   0.004366  -0.000700   0.000098  -0.000226
    27  H    0.009385   0.000004   0.002475   0.000284  -0.000007   0.000010
    28  H   -0.009732   0.000129   0.001063   0.000232  -0.000002   0.000002
    29  H   -0.032927   0.003151  -0.057221  -0.001520  -0.000235   0.000258
    30  H   -0.025367   0.002749   0.025285  -0.005721   0.000781  -0.000593
    31  H    0.046018   0.000077  -0.027304   0.290874  -0.089677  -0.001158
    32  H   -0.010030   0.000099   0.016209  -0.034036   0.213671   0.100859
    33  H   -0.000041  -0.000000  -0.008975   0.077418   0.106909  -0.106155
    34  H   -0.000002  -0.000000  -0.000206   0.000463  -0.004878  -0.000908
    35  H   -0.000003  -0.000000  -0.000169   0.000156   0.000634  -0.003780
    36  H   -0.000495  -0.000000  -0.008446   0.009014  -0.098947  -0.083259
    37  H    0.000039   0.000043   0.006780   0.003418   0.037473   0.072770
    38  H    0.011919  -0.000758   0.110881   0.051239  -0.008422   0.000775
    39  H   -0.013573  -0.001242   0.062564   0.019377  -0.016820  -0.002991
              13         14         15         16         17         18
     1  C    0.000674  -0.001355   0.000006  -0.000056   0.000000  -0.000000
     2  N   -0.001233  -0.000619  -0.000000  -0.000004  -0.000000  -0.000000
     3  C   -0.000031   0.000498   0.000006  -0.000004  -0.000000  -0.000000
     4  C   -0.000469  -0.000397   0.000037   0.000002   0.000000   0.000000
     5  C    0.011736   0.011556  -0.000779   0.000108   0.000002   0.000000
     6  C    0.061486   0.053824  -0.006550   0.004009   0.000313  -0.000000
     7  C    0.078230   0.060527  -0.016534   0.004538   0.000377   0.000001
     8  O    0.003438  -0.000105  -0.000129   0.000042   0.000003  -0.000000
     9  C   -0.939434  -0.092010  -0.042910   0.020504   0.013136  -0.000057
    10  C    0.298745  -0.879175   0.324241  -0.087661  -0.031140   0.000147
    11  C    0.954829   0.694691  -0.266523   0.144126   0.072025  -0.000491
    12  C   -1.411044  -0.406813   0.320313  -0.186790   0.111102  -0.003273
    13  C   15.122732  -3.413568   1.472388  -1.640164  -0.879223   0.041494
    14  C   -3.413568  26.251280  -9.359559   1.360572   0.453542  -0.008303
    15  C    1.472388  -9.359559  15.226491  -1.007983  -0.439725  -0.030962
    16  C   -1.640164   1.360572  -1.007983  10.093680  -4.272300   0.795984
    17  C   -0.879223   0.453542  -0.439725  -4.272300  11.919111  -0.573397
    18  N    0.041494  -0.008303  -0.030962   0.795984  -0.573397   7.356798
    19  C    1.374478   5.305609  -5.124423  -1.471286   0.672076  -0.048424
    20  C   -4.175858 -14.518182   5.047841   1.663705  -0.747044   0.003982
    21  C   -2.498495  -0.911016   0.235136  -0.048592  -0.088404   0.000577
    22  C    1.285435   1.066084  -0.175641  -0.031766   0.010721   0.000015
    23  C   -0.024186  -0.058392   0.006476  -0.002320  -0.000108   0.000000
    24  H    0.000005   0.000001  -0.000000   0.000000   0.000000   0.000000
    25  H    0.000018   0.000004  -0.000001  -0.000001  -0.000000   0.000000
    26  H   -0.000011  -0.000002   0.000000  -0.000000  -0.000000  -0.000000
    27  H    0.000000  -0.000000  -0.000000   0.000000   0.000000  -0.000000
    28  H   -0.000000  -0.000000  -0.000000   0.000000   0.000000  -0.000000
    29  H    0.000035  -0.000000  -0.000000   0.000000   0.000000   0.000000
    30  H   -0.000046  -0.000001   0.000000  -0.000000  -0.000000  -0.000000
    31  H    0.003539  -0.005873   0.000517  -0.000083  -0.000002   0.000000
    32  H   -0.122799   0.132120   0.063937  -0.003701  -0.000271   0.000000
    33  H    0.154379   0.168294  -0.003818  -0.028037  -0.008706   0.000028
    34  H    0.010270  -0.033269   0.227781   0.101251  -0.043757   0.000507
    35  H    0.009434   0.004515   0.043665   0.101821  -0.040615   0.000519
    36  H    0.138940   0.049361  -0.010211  -0.031814  -0.009422   0.000028
    37  H   -0.087848  -0.093763   0.003673  -0.002608  -0.000109   0.000001
    38  H    0.002521   0.003418  -0.000086  -0.000159  -0.000006   0.000000
    39  H   -0.001163   0.000342  -0.000005  -0.000010  -0.000000  -0.000000
              19         20         21         22         23         24
     1  C    0.000282   0.000463   0.057677   0.074082   0.428120   0.411002
     2  N   -0.000035   0.000802   0.055480  -0.018577   0.386325  -0.050157
     3  C   -0.000003  -0.000328  -0.008360  -0.047588  -0.779437  -0.008578
     4  C   -0.000035   0.000456  -0.001245   0.071049   0.858244   0.004947
     5  C    0.000825  -0.010162  -0.280506  -0.324394  -5.115581  -0.003950
     6  C    0.007597  -0.020515  -1.261156   0.150772  -7.793725   0.000814
     7  C    0.017032  -0.055832  -1.009972   0.644729   0.437907  -0.002182
     8  O    0.000313  -0.000056  -0.041997  -0.032232  -0.031884   0.000001
     9  C   -0.004620   0.266497   5.094657  -8.161879  -1.447907  -0.001998
    10  C   -0.163401   0.608845  -5.107475   2.443810  -1.277167   0.000149
    11  C    0.254649  -0.262015  -4.696804  -1.865602  -0.138406  -0.000043
    12  C    0.012248   0.075807  -3.308600   1.851037   0.073822   0.000082
    13  C    1.374478  -4.175858  -2.498495   1.285435  -0.024186   0.000005
    14  C    5.305609 -14.518182  -0.911016   1.066084  -0.058392   0.000001
    15  C   -5.124423   5.047841   0.235136  -0.175641   0.006476  -0.000000
    16  C   -1.471286   1.663705  -0.048592  -0.031766  -0.002320   0.000000
    17  C    0.672076  -0.747044  -0.088404   0.010721  -0.000108   0.000000
    18  N   -0.048424   0.003982   0.000577   0.000015   0.000000   0.000000
    19  C   16.043534 -10.431068  -0.677027   0.405660  -0.000727   0.000000
    20  C  -10.431068  27.778867   2.150173  -1.751225   0.033816  -0.000001
    21  C   -0.677027   2.150173  26.319669  -9.204912   1.346076  -0.000087
    22  C    0.405660  -1.751225  -9.204912  18.248651   1.551702   0.001780
    23  C   -0.000727   0.033816   1.346076   1.551702  18.480240   0.004587
    24  H    0.000000  -0.000001  -0.000087   0.001780   0.004587   0.548360
    25  H    0.000006   0.000011  -0.001408   0.006900  -0.001232  -0.022080
    26  H   -0.000000   0.000001   0.000643  -0.003635  -0.006158  -0.040207
    27  H    0.000000   0.000000  -0.000238  -0.000939  -0.003694   0.001351
    28  H    0.000000   0.000000  -0.000113  -0.000824   0.015597  -0.000005
    29  H    0.000000   0.000000  -0.001496   0.022502  -0.006634   0.000002
    30  H   -0.000000   0.000001   0.004126  -0.016429   0.039061  -0.000002
    31  H   -0.000192   0.002331  -0.007542   0.048495  -0.014710  -0.000000
    32  H    0.004049  -0.103664   0.035505   0.007919  -0.000756   0.000000
    33  H   -0.011912   0.052583  -0.098081   0.006717   0.000005   0.000000
    34  H    0.040179   0.007271   0.001736   0.000046   0.000001  -0.000000
    35  H    0.219209  -0.026428  -0.002824   0.000329  -0.000000  -0.000000
    36  H   -0.009785   0.169657   0.111158   0.074749   0.000026   0.000000
    37  H    0.060569   0.119182   0.139567   0.035837  -0.010461   0.000000
    38  H   -0.000594  -0.010320  -0.097887   0.275260  -0.019856   0.000001
    39  H   -0.000017  -0.000437  -0.021667  -0.008616   0.317337   0.000201
              25         26         27         28         29         30
     1  C    0.423407   0.404406  -0.013575  -0.001600   0.002260   0.000051
     2  N   -0.059219  -0.051340  -0.078599   0.003574   0.010743   0.006742
     3  C    0.005632  -0.001982   0.300947   0.040125   0.010241  -0.006241
     4  C   -0.013659   0.016280   0.036496   0.313611  -0.038919  -0.041124
     5  C    0.008109  -0.009743   0.045310  -0.072879   0.481412   0.370866
     6  C   -0.002169  -0.004854   0.008483   0.031040  -0.080418  -0.042358
     7  C   -0.001544   0.003258   0.009385  -0.009732  -0.032927  -0.025367
     8  O    0.000007  -0.000010   0.000004   0.000129   0.003151   0.002749
     9  C   -0.005961   0.004366   0.002475   0.001063  -0.057221   0.025285
    10  C    0.000781  -0.000700   0.000284   0.000232  -0.001520  -0.005721
    11  C   -0.000238   0.000098  -0.000007  -0.000002  -0.000235   0.000781
    12  C    0.000946  -0.000226   0.000010   0.000002   0.000258  -0.000593
    13  C    0.000018  -0.000011   0.000000  -0.000000   0.000035  -0.000046
    14  C    0.000004  -0.000002  -0.000000  -0.000000  -0.000000  -0.000001
    15  C   -0.000001   0.000000  -0.000000  -0.000000  -0.000000   0.000000
    16  C   -0.000001  -0.000000   0.000000   0.000000   0.000000  -0.000000
    17  C   -0.000000  -0.000000   0.000000   0.000000   0.000000  -0.000000
    18  N    0.000000  -0.000000  -0.000000  -0.000000   0.000000  -0.000000
    19  C    0.000006  -0.000000   0.000000   0.000000   0.000000  -0.000000
    20  C    0.000011   0.000001   0.000000   0.000000   0.000000   0.000001
    21  C   -0.001408   0.000643  -0.000238  -0.000113  -0.001496   0.004126
    22  C    0.006900  -0.003635  -0.000939  -0.000824   0.022502  -0.016429
    23  C   -0.001232  -0.006158  -0.003694   0.015597  -0.006634   0.039061
    24  H   -0.022080  -0.040207   0.001351  -0.000005   0.000002  -0.000002
    25  H    0.539137  -0.029595   0.000180   0.000002   0.000000  -0.000001
    26  H   -0.029595   0.555308  -0.000282  -0.000005  -0.000007   0.000002
    27  H    0.000180  -0.000282   0.571739  -0.006303  -0.000108  -0.000127
    28  H    0.000002  -0.000005  -0.006303   0.560721  -0.001144  -0.002040
    29  H    0.000000  -0.000007  -0.000108  -0.001144   0.552048  -0.039269
    30  H   -0.000001   0.000002  -0.000127  -0.002040  -0.039269   0.562626
    31  H    0.000000  -0.000000  -0.000000  -0.000000  -0.000000  -0.000000
    32  H    0.000000  -0.000000   0.000000  -0.000000   0.000000  -0.000000
    33  H    0.000000  -0.000000   0.000000   0.000000   0.000000  -0.000000
    34  H   -0.000000   0.000000  -0.000000   0.000000  -0.000000   0.000000
    35  H   -0.000000   0.000000  -0.000000   0.000000  -0.000000   0.000000
    36  H   -0.000000  -0.000000   0.000000   0.000000   0.000000  -0.000000
    37  H   -0.000000  -0.000000   0.000000  -0.000000   0.000000  -0.000000
    38  H   -0.000012   0.000000   0.000000  -0.000000  -0.000002  -0.000005
    39  H    0.004340   0.000036  -0.000158   0.000014  -0.000126  -0.000127
              31         32         33         34         35         36
     1  C   -0.000015  -0.000004  -0.000000   0.000000  -0.000000  -0.000001
     2  N    0.000090   0.000001  -0.000000   0.000000   0.000000  -0.000000
     3  C    0.000225  -0.000003   0.000000   0.000000   0.000000  -0.000000
     4  C   -0.000016  -0.000000  -0.000000  -0.000000  -0.000000   0.000000
     5  C    0.008581  -0.000043   0.000003  -0.000000   0.000000  -0.000008
     6  C    0.054169   0.000357  -0.000087  -0.000001  -0.000001  -0.000037
     7  C    0.046018  -0.010030  -0.000041  -0.000002  -0.000003  -0.000495
     8  O    0.000077   0.000099  -0.000000  -0.000000  -0.000000  -0.000000
     9  C   -0.027304   0.016209  -0.008975  -0.000206  -0.000169  -0.008446
    10  C    0.290874  -0.034036   0.077418   0.000463   0.000156   0.009014
    11  C   -0.089677   0.213671   0.106909  -0.004878   0.000634  -0.098947
    12  C   -0.001158   0.100859  -0.106155  -0.000908  -0.003780  -0.083259
    13  C    0.003539  -0.122799   0.154379   0.010270   0.009434   0.138940
    14  C   -0.005873   0.132120   0.168294  -0.033269   0.004515   0.049361
    15  C    0.000517   0.063937  -0.003818   0.227781   0.043665  -0.010211
    16  C   -0.000083  -0.003701  -0.028037   0.101251   0.101821  -0.031814
    17  C   -0.000002  -0.000271  -0.008706  -0.043757  -0.040615  -0.009422
    18  N    0.000000   0.000000   0.000028   0.000507   0.000519   0.000028
    19  C   -0.000192   0.004049  -0.011912   0.040179   0.219209  -0.009785
    20  C    0.002331  -0.103664   0.052583   0.007271  -0.026428   0.169657
    21  C   -0.007542   0.035505  -0.098081   0.001736  -0.002824   0.111158
    22  C    0.048495   0.007919   0.006717   0.000046   0.000329   0.074749
    23  C   -0.014710  -0.000756   0.000005   0.000001  -0.000000   0.000026
    24  H   -0.000000   0.000000   0.000000  -0.000000  -0.000000   0.000000
    25  H    0.000000   0.000000   0.000000  -0.000000  -0.000000  -0.000000
    26  H   -0.000000  -0.000000  -0.000000   0.000000   0.000000  -0.000000
    27  H   -0.000000   0.000000   0.000000  -0.000000  -0.000000   0.000000
    28  H   -0.000000  -0.000000   0.000000   0.000000   0.000000   0.000000
    29  H   -0.000000   0.000000   0.000000  -0.000000  -0.000000   0.000000
    30  H   -0.000000  -0.000000  -0.000000   0.000000   0.000000  -0.000000
    31  H    0.546482  -0.005035   0.000003   0.000000   0.000000   0.000000
    32  H   -0.005035   0.580856   0.000977   0.000003   0.000000   0.000014
    33  H    0.000003   0.000977   0.573164  -0.005000   0.000016  -0.000160
    34  H    0.000000   0.000003  -0.005000   0.550197  -0.000144   0.000016
    35  H    0.000000   0.000000   0.000016  -0.000144   0.550119  -0.004977
    36  H    0.000000   0.000014  -0.000160   0.000016  -0.004977   0.572768
    37  H    0.000016  -0.000164   0.000014   0.000000   0.000003   0.001145
    38  H   -0.000173   0.000018   0.000000   0.000000   0.000000   0.000004
    39  H    0.000002  -0.000000   0.000000  -0.000000  -0.000000  -0.000000
              37         38         39
     1  C   -0.000135  -0.002274  -0.031321
     2  N   -0.000040   0.000694  -0.088651
     3  C    0.000059   0.000685   0.004150
     4  C   -0.000077  -0.000396  -0.003471
     5  C    0.000998  -0.006090  -0.006203
     6  C    0.012180  -0.011319   0.081659
     7  C    0.000039   0.011919  -0.013573
     8  O    0.000043  -0.000758  -0.001242
     9  C    0.006780   0.110881   0.062564
    10  C    0.003418   0.051239   0.019377
    11  C    0.037473  -0.008422  -0.016820
    12  C    0.072770   0.000775  -0.002991
    13  C   -0.087848   0.002521  -0.001163
    14  C   -0.093763   0.003418   0.000342
    15  C    0.003673  -0.000086  -0.000005
    16  C   -0.002608  -0.000159  -0.000010
    17  C   -0.000109  -0.000006  -0.000000
    18  N    0.000001   0.000000  -0.000000
    19  C    0.060569  -0.000594  -0.000017
    20  C    0.119182  -0.010320  -0.000437
    21  C    0.139567  -0.097887  -0.021667
    22  C    0.035837   0.275260  -0.008616
    23  C   -0.010461  -0.019856   0.317337
    24  H    0.000000   0.000001   0.000201
    25  H   -0.000000  -0.000012   0.004340
    26  H   -0.000000   0.000000   0.000036
    27  H    0.000000   0.000000  -0.000158
    28  H   -0.000000  -0.000000   0.000014
    29  H    0.000000  -0.000002  -0.000126
    30  H   -0.000000  -0.000005  -0.000127
    31  H    0.000016  -0.000173   0.000002
    32  H   -0.000164   0.000018  -0.000000
    33  H    0.000014   0.000000   0.000000
    34  H    0.000000   0.000000  -0.000000
    35  H    0.000003   0.000000  -0.000000
    36  H    0.001145   0.000004  -0.000000
    37  H    0.586331  -0.005397  -0.000014
    38  H   -0.005397   0.572992  -0.000143
    39  H   -0.000014  -0.000143   0.574664
 Mulliken charges:
               1
     1  C   -0.225115
     2  N   -0.015654
     3  C    0.085949
     4  C   -0.170224
     5  C   -0.187366
     6  C    0.566134
     7  C    0.103946
     8  O   -0.424428
     9  C    0.576930
    10  C   -0.468327
    11  C    0.162261
    12  C    0.393295
    13  C    0.170766
    14  C    0.166166
    15  C   -0.486667
    16  C    0.524995
    17  C   -0.118183
    18  N   -0.535173
    19  C   -0.474766
    20  C    0.130844
    21  C   -0.176276
    22  C   -0.640019
    23  C   -1.246001
    24  H    0.156008
    25  H    0.147639
    26  H    0.164361
    27  H    0.127366
    28  H    0.128538
    29  H    0.177372
    30  H    0.167162
    31  H    0.150361
    32  H    0.123913
    33  H    0.130463
    34  H    0.148444
    35  H    0.148521
    36  H    0.130684
    37  H    0.120516
    38  H    0.133492
    39  H    0.132071
 Sum of Mulliken charges =  -0.00000
 Mulliken charges with hydrogens summed into heavy atoms:
               1
     1  C    0.242893
     2  N   -0.015654
     3  C    0.213315
     4  C   -0.041686
     5  C    0.157168
     6  C    0.566134
     7  C    0.103946
     8  O   -0.424428
     9  C    0.576930
    10  C   -0.317966
    11  C    0.286174
    12  C    0.393295
    13  C    0.170766
    14  C    0.296628
    15  C   -0.338223
    16  C    0.524995
    17  C   -0.118183
    18  N   -0.535173
    19  C   -0.326245
    20  C    0.261528
    21  C   -0.055759
    22  C   -0.506526
    23  C   -1.113930
 Electronic spatial extent (au):  <R**2>=          12283.4749
 Charge=              0.0000 electrons
 Dipole moment (field-independent basis, Debye):
    X=             -5.8708    Y=              4.6572    Z=             -0.5927  Tot=              7.5171
 Quadrupole moment (field-independent basis, Debye-Ang):
   XX=           -179.3396   YY=           -138.8817   ZZ=           -127.2306
   XY=            -29.0742   XZ=              0.9572   YZ=              2.1607
 Traceless Quadrupole moment (field-independent basis, Debye-Ang):
   XX=            -30.8556   YY=              9.6023   ZZ=             21.2534
   XY=            -29.0742   XZ=              0.9572   YZ=              2.1607
 Octapole moment (field-independent basis, Debye-Ang**2):
  XXX=           -749.5932  YYY=             61.6156  ZZZ=             -1.3048  XYY=            -37.7308
  XXY=             -8.0073  XXZ=             -0.4569  XZZ=             26.9240  YZZ=             -1.7848
  YYZ=            -13.1432  XYZ=             14.2758
 Hexadecapole moment (field-independent basis, Debye-Ang**3):
 XXXX=         -20372.4284 YYYY=          -1562.6663 ZZZZ=           -561.0402 XXXY=          -1057.2115
 XXXZ=            -22.3015 YYYX=           -276.0752 YYYZ=              4.6504 ZZZX=              8.9912
 ZZZY=              6.9473 XXYY=          -2839.4631 XXZZ=          -2534.1674 YYZZ=           -343.6734
 XXYZ=            -22.9412 YYXZ=             26.6714 ZZXY=             13.1599
 N-N= 1.619445201994D+03 E-N=-5.455697716784D+03  KE= 9.473026973578D+02
 Unable to Open any file for archive entry.
 1\1\GINC-N1\SP\RB3LYP TD-FC\6-31+G(d,p)\C20H16N2O1\HPCMGAC13\30-Jul-20
 25\0\\# td=(50-50,nstates=3) b3lyp/6-31+g(d,p) geom=connectivity\\Titl
 e Card Required\\0,1\C,0,-4.255186,3.126792,-0.661271\N,0,-4.514822,1.
 768657,-0.205223\C,0,-5.840962,1.366121,0.039548\C,0,-6.169604,0.09170
 2,0.290449\C,0,-5.160037,-1.029727,0.318878\C,0,-3.752632,-0.498546,0.
 092675\C,0,-2.676334,-1.487001,0.066404\O,0,-2.943277,-2.695838,0.0500
 79\C,0,-1.224821,-1.075612,0.048571\C,0,-0.34838,-1.757993,-0.809521\C
 ,0,1.010434,-1.458544,-0.826495\C,0,1.549118,-0.487845,0.039162\C,0,3.
 000299,-0.176438,0.029243\C,0,3.719896,-0.124007,-1.17922\C,0,5.079597
 ,0.169418,-1.196919\C,0,5.759545,0.420667,0.007453\C,0,7.160748,0.7265
 69,-0.003813\N,0,8.297831,0.976376,-0.013044\C,0,5.055196,0.370087,1.2
 22942\C,0,3.695898,0.0745,1.22682\C,0,0.67395,0.170797,0.918776\C,0,-0
 .692493,-0.112222,0.9184\C,0,-3.530075,0.82106,-0.180096\H,0,-4.76338,
 3.846096,-0.010957\H,0,-3.182507,3.32529,-0.61859\H,0,-4.59928,3.28181
 9,-1.692551\H,0,-6.570544,2.168099,0.017235\H,0,-7.212685,-0.142627,0.
 479873\H,0,-5.399437,-1.793724,-0.435504\H,0,-5.206578,-1.570228,1.275
 777\H,0,-0.746711,-2.53746,-1.451117\H,0,1.668654,-2.009096,-1.492182\
 H,0,3.202565,-0.291819,-2.11848\H,0,5.618424,0.214827,-2.137553\H,0,5.
 579247,0.552011,2.155392\H,0,3.171019,0.011554,2.174697\H,0,1.059803,0
 .926695,1.596553\H,0,-1.342741,0.402958,1.618796\H,0,-2.535649,1.18842
 2,-0.406068\\Version=ES64L-G16RevC.02\State=1-A\HF=-956.5184925\RMSD=5
 .719e-09\PG=C01 [X(C20H16N2O1)]\\@
 The archive entry for this job was punched.


 THE MORE POWERFUL THE METHOD, THE MORE CATASTROPHIC THE ERRORS.
     -- M.D. KAMEN
 Job cpu time:       0 days  2 hours  7 minutes 48.2 seconds.
 Elapsed time:       0 days  0 hours  8 minutes 13.3 seconds.
 File lengths (MBytes):  RWF=   1406 Int=      0 D2E=      0 Chk=     69 Scr=      2
 Normal termination of Gaussian 16 at Wed Jul 30 17:59:47 2025.
