 Entering Gaussian System, Link 0=g16
 Input=M2542E.gjf
 Output=M2542E.log
 Initial command:
 /hpc/softwares/Gaussian/g16/l1.exe "/hpc/home/hpcmgac13/pbs.12417.admin1.x8z/Gau-1776260.inp" -scrdir="/hpc/home/hpcmgac13/pbs.12417.admin1.x8z/"
 Default linda workers: n1
 Default is to use  16 SMP processors on each worker.
 Entering Link 1 = /hpc/softwares/Gaussian/g16/l1.exe PID=   1776261.
  
 Copyright (c) 1988-2021, Gaussian, Inc.  All Rights Reserved.
  
 This is part of the Gaussian(R) 16 program.  It is based on
 the Gaussian(R) 09 system (copyright 2009, Gaussian, Inc.),
 the Gaussian(R) 03 system (copyright 2003, Gaussian, Inc.),
 the Gaussian(R) 98 system (copyright 1998, Gaussian, Inc.),
 the Gaussian(R) 94 system (copyright 1995, Gaussian, Inc.),
 the Gaussian 92(TM) system (copyright 1992, Gaussian, Inc.),
 the Gaussian 90(TM) system (copyright 1990, Gaussian, Inc.),
 the Gaussian 88(TM) system (copyright 1988, Gaussian, Inc.),
 the Gaussian 86(TM) system (copyright 1986, Carnegie Mellon
 University), and the Gaussian 82(TM) system (copyright 1983,
 Carnegie Mellon University). Gaussian is a federally registered
 trademark of Gaussian, Inc.
  
 This software contains proprietary and confidential information,
 including trade secrets, belonging to Gaussian, Inc.
  
 This software is provided under written license and may be
 used, copied, transmitted, or stored only in accord with that
 written license.
  
 The following legend is applicable only to US Government
 contracts under FAR:
  
                    RESTRICTED RIGHTS LEGEND
  
 Use, reproduction and disclosure by the US Government is
 subject to restrictions as set forth in subparagraphs (a)
 and (c) of the Commercial Computer Software - Restricted
 Rights clause in FAR 52.227-19.
  
 Gaussian, Inc.
 340 Quinnipiac St., Bldg. 40, Wallingford CT 06492
  
  
 ---------------------------------------------------------------
 Warning -- This program may not be used in any manner that
 competes with the business of Gaussian, Inc. or will provide
 assistance to any competitor of Gaussian, Inc.  The licensee
 of this program is prohibited from giving any competitor of
 Gaussian, Inc. access to this program.  By using this program,
 the user acknowledges that Gaussian, Inc. is engaged in the
 business of creating and licensing software in the field of
 computational chemistry and represents and warrants to the
 licensee that it is not a competitor of Gaussian, Inc. and that
 it will not use this program in any manner prohibited above.
 ---------------------------------------------------------------
  

 Cite this work as:
 Gaussian 16, Revision C.02,
 M. J. Frisch, G. W. Trucks, H. B. Schlegel, G. E. Scuseria, 
 M. A. Robb, J. R. Cheeseman, G. Scalmani, V. Barone, 
 G. A. Petersson, H. Nakatsuji, X. Li, M. Caricato, A. V. Marenich, 
 J. Bloino, B. G. Janesko, R. Gomperts, B. Mennucci, H. P. Hratchian, 
 J. V. Ortiz, A. F. Izmaylov, J. L. Sonnenberg, D. Williams-Young, 
 F. Ding, F. Lipparini, F. Egidi, J. Goings, B. Peng, A. Petrone, 
 T. Henderson, D. Ranasinghe, V. G. Zakrzewski, J. Gao, N. Rega, 
 G. Zheng, W. Liang, M. Hada, M. Ehara, K. Toyota, R. Fukuda, 
 J. Hasegawa, M. Ishida, T. Nakajima, Y. Honda, O. Kitao, H. Nakai, 
 T. Vreven, K. Throssell, J. A. Montgomery, Jr., J. E. Peralta, 
 F. Ogliaro, M. J. Bearpark, J. J. Heyd, E. N. Brothers, K. N. Kudin, 
 V. N. Staroverov, T. A. Keith, R. Kobayashi, J. Normand, 
 K. Raghavachari, A. P. Rendell, J. C. Burant, S. S. Iyengar, 
 J. Tomasi, M. Cossi, J. M. Millam, M. Klene, C. Adamo, R. Cammi, 
 J. W. Ochterski, R. L. Martin, K. Morokuma, O. Farkas, 
 J. B. Foresman, and D. J. Fox, Gaussian, Inc., Wallingford CT, 2019.
 
 ******************************************
 Gaussian 16:  ES64L-G16RevC.02  7-Dec-2021
                29-Jul-2025 
 ******************************************
 SetLPE:    new flags="-opt 'Tsnet.Node.lindarsharg: ssh'  -nodelist 'n1' -env GAUSS_MDEF=2147483648 -env GAUSS_EXEDIR="/hpc/softwares/Gaussian/g16/bsd:/hpc/softwares/Gaussian/g16""
 Will use up to    1 processors via Linda.
 ----------------------------------------------------------
 # td=(50-50,nstates=3) b3lyp/6-31+g(d,p) geom=connectivity
 ----------------------------------------------------------
 1/38=1,57=2,172=1/1;
 2/12=2,17=6,18=5,40=1/2;
 3/5=1,6=6,7=111,11=9,25=1,30=1,74=-5/1,2,3,8;
 4//1;
 5/5=2,38=5/2;
 8/6=1,10=2,108=3/1;
 9/41=3,42=1,48=2,70=2/14;
 6/7=2,8=2,9=2,10=2/1;
 99/5=1,9=1/99;
 -------------------
 Title Card Required
 -------------------
 Symbolic Z-matrix:
 Charge =  0 Multiplicity = 1
 C                     2.97642   2.82473  -0.00019 
 O                     2.76762   1.41006   0. 
 C                     1.51497   0.92068   0.00003 
 C                     0.38087   1.67679  -0.00006 
 C                    -0.95215   1.11114  -0.00011 
 C                    -2.06516   1.93542  -0.0001 
 C                    -3.52752   1.54323  -0.00039 
 C                    -1.8387    3.34731   0.00011 
 N                    -1.6905    4.50443   0.00036 
 C                    -1.01459  -0.3526   -0.00007 
 O                    -2.2681   -0.87945  -0.00019 
 C                    -2.41013  -2.30042   0.00024 
 C                    -3.84512  -2.60135   0.00023 
 N                    -4.97384  -2.86692   0.00011 
 C                     0.11793  -1.1125    0.00018 
 C                     1.43754  -0.53824   0.00011 
 C                     2.55641  -1.36683   0.00001 
 C                     3.92376  -0.95431   0.00015 
 N                     5.06844  -0.73691   0.00029 
 C                     2.37492  -2.78588  -0.00017 
 N                     2.19111  -3.93685  -0.00041 
 H                     2.5444    3.28077  -0.89781 
 H                     2.54452   3.28097   0.89738 
 H                     4.05785   2.95487  -0.00027 
 H                     0.45899   2.75555  -0.00013 
 H                    -3.77865   0.94371   0.87907 
 H                    -4.15161   2.43784  -0.00081 
 H                    -3.77817   0.94303  -0.87948 
 H                    -1.94589  -2.7397   -0.89186 
 H                    -1.94606  -2.73914   0.8927 
 H                     0.05526  -2.19211   0.00044 
 
                          Input orientation:                          
 ---------------------------------------------------------------------
 Center     Atomic      Atomic             Coordinates (Angstroms)
 Number     Number       Type             X           Y           Z
 ---------------------------------------------------------------------
      1          6           0        2.976422    2.824732   -0.000191
      2          8           0        2.767617    1.410060    0.000002
      3          6           0        1.514972    0.920676    0.000033
      4          6           0        0.380873    1.676787   -0.000063
      5          6           0       -0.952149    1.111136   -0.000112
      6          6           0       -2.065161    1.935419   -0.000102
      7          6           0       -3.527523    1.543231   -0.000385
      8          6           0       -1.838702    3.347311    0.000114
      9          7           0       -1.690501    4.504433    0.000358
     10          6           0       -1.014585   -0.352601   -0.000068
     11          8           0       -2.268097   -0.879446   -0.000193
     12          6           0       -2.410126   -2.300421    0.000240
     13          6           0       -3.845122   -2.601351    0.000225
     14          7           0       -4.973839   -2.866915    0.000107
     15          6           0        0.117925   -1.112498    0.000179
     16          6           0        1.437542   -0.538239    0.000106
     17          6           0        2.556409   -1.366833    0.000012
     18          6           0        3.923763   -0.954306    0.000153
     19          7           0        5.068442   -0.736909    0.000290
     20          6           0        2.374915   -2.785876   -0.000166
     21          7           0        2.191111   -3.936854   -0.000406
     22          1           0        2.544395    3.280773   -0.897807
     23          1           0        2.544517    3.280971    0.897384
     24          1           0        4.057849    2.954873   -0.000272
     25          1           0        0.458991    2.755553   -0.000130
     26          1           0       -3.778651    0.943707    0.879066
     27          1           0       -4.151612    2.437844   -0.000805
     28          1           0       -3.778169    0.943026   -0.879478
     29          1           0       -1.945892   -2.739700   -0.891862
     30          1           0       -1.946060   -2.739142    0.892701
     31          1           0        0.055256   -2.192109    0.000438
 ---------------------------------------------------------------------
                    Distance matrix (angstroms):
                    1          2          3          4          5
     1  C    0.000000
     2  O    1.429999   0.000000
     3  C    2.400264   1.344848   0.000000
     4  C    2.838072   2.401602   1.363042   0.000000
     5  C    4.286033   3.731758   2.474462   1.448071   0.000000
     6  C    5.119418   4.861249   3.721163   2.459669   1.385005
     7  C    6.628993   6.296548   5.080781   3.910677   2.611371
     8  C    4.843398   4.997111   4.139527   2.777978   2.405505
     9  N    4.959997   5.426782   4.808157   3.505164   3.472698
    10  C    5.101331   4.172772   2.831942   2.462868   1.465068
    11  O    6.420741   5.531750   4.189517   3.681218   2.386239
    12  C    7.435193   6.369984   5.077584   4.858792   3.710043
    13  C    8.716412   7.734322   6.413679   6.013443   4.706575
    14  N    9.777602   8.844357   7.513356   7.022690   5.656755
    15  C    4.865469   3.658438   2.466888   2.801652   2.467713
    16  C    3.698341   2.359019   1.460968   2.454158   2.903629
    17  C    4.212556   2.784914   2.513422   3.741200   4.295382
    18  C    3.895970   2.631900   3.052512   4.413017   5.295335
    19  N    4.130597   3.146946   3.921063   5.272498   6.297840
    20  C    5.642759   4.214273   3.805001   4.887900   5.124066
    21  N    6.807037   5.377904   4.904362   5.898299   5.946620
    22  H    1.095598   2.086973   2.726882   2.838933   4.211769
    23  H    1.095599   2.086954   2.726939   2.839044   4.211930
    24  H    1.089230   2.012746   3.256406   3.892770   5.338487
    25  H    2.518381   2.672098   2.117043   1.081591   2.166893
    26  H    7.066991   6.621470   5.366160   4.314153   2.964810
    27  H    7.138526   6.995146   5.866172   4.595936   3.463628
    28  H    7.066715   6.621097   5.365760   4.313862   2.964445
    29  H    7.482457   6.342956   5.115800   5.070946   4.075743
    30  H    7.482298   6.342834   5.115649   5.070707   4.075490
    31  H    5.805334   4.509160   3.438052   3.882574   3.453446
                    6          7          8          9         10
     6  C    0.000000
     7  C    1.514039   0.000000
     8  C    1.429938   2.471198   0.000000
     9  N    2.596190   3.484734   1.166574   0.000000
    10  C    2.517687   3.147862   3.790583   4.903840   0.000000
    11  O    2.822171   2.730479   4.248512   5.414773   1.359727
    12  C    4.249864   4.002779   5.676566   6.842799   2.396151
    13  C    4.873453   4.156733   6.277922   7.425265   3.615082
    14  N    5.614519   4.641252   6.960294   8.069515   4.690146
    15  C    3.749088   4.510231   4.870142   5.900874   1.363826
    16  C    4.288113   5.383715   5.082448   5.934071   2.459144
    17  C    5.680121   6.744086   6.445165   7.246241   3.712232
    18  C    6.649641   7.858712   7.190960   7.830568   4.974870
    19  N    7.617718   8.893236   8.024306   8.553068   6.095155
    20  C    6.481119   7.319832   7.441139   8.347228   4.172474
    21  N    7.252547   7.920487   8.324569   9.290976   4.808675
    22  H    4.885065   6.379076   4.474621   4.498710   5.164657
    23  H    4.885194   6.379295   4.474606   4.498543   5.164830
    24  H    6.207297   7.715608   5.909596   5.953542   6.055491
    25  H    2.654047   4.166776   2.372672   2.771082   3.439774
    26  H    2.166213   1.093585   3.211428   4.220340   3.177004
    27  H    2.146092   1.090789   2.485293   3.213699   4.198514
    28  H    2.166228   1.093560   3.211822   4.220911   3.176383
    29  H    4.760903   4.651858   6.152952   7.303338   2.713092
    30  H    4.760546   4.651596   6.152491   7.302805   2.712980
    31  H    4.640329   5.175816   5.854251   6.920357   2.127992
                   11         12         13         14         15
    11  O    0.000000
    12  C    1.428055   0.000000
    13  C    2.334944   1.466210   0.000000
    14  N    3.357242   2.625555   1.159537   0.000000
    15  C    2.397377   2.793242   4.233488   5.385540   0.000000
    16  C    3.721315   4.232001   5.671241   6.821183   1.439153
    17  C    4.849062   5.053519   6.519481   7.678208   2.451712
    18  C    6.192313   6.475351   7.941557   9.100846   3.809124
    19  N    7.337924   7.640258   9.106468  10.265687   4.964744
    20  C    5.019167   4.809603   6.222773   7.349201   2.809662
    21  N    5.406688   4.883574   6.182207   7.244396   3.503582
    22  H    6.424423   7.516881   8.731081   9.753162   5.098526
    23  H    6.424638   7.517000   8.731214   9.753322   5.098617
    24  H    7.397269   8.333836   9.660672  10.745446   5.662730
    25  H    4.544252   5.813321   6.871813   7.818426   3.883059
    26  H    2.525620   3.628989   3.652974   4.089240   4.492630
    27  H    3.814714   5.048161   5.048507   5.368103   5.552826
    28  H    2.524849   3.628415   3.652529   4.088881   4.492051
    29  H    2.087926   1.097418   2.102863   3.159154   2.775403
    30  H    2.087926   1.097415   2.102840   3.159192   2.775356
    31  H    2.668530   2.467760   3.921789   5.074166   1.081428
                   16         17         18         19         20
    16  C    0.000000
    17  C    1.392276   0.000000
    18  C    2.520795   1.428228   0.000000
    19  N    3.636331   2.589810   1.165140   0.000000
    20  C    2.435270   1.430602   2.398662   3.384280   0.000000
    21  N    3.481156   2.595853   3.449301   4.303334   1.165562
    22  H    4.076300   4.733547   4.543664   4.828992   6.135040
    23  H    4.076379   4.733656   4.543667   4.828906   6.135226
    24  H    4.366674   4.575092   3.911478   3.827604   5.982346
    25  H    3.436077   4.625281   5.076189   5.783107   5.863293
    26  H    5.493396   6.800317   7.981361   9.048081   7.249084
    27  H    6.332118   7.711881   8.758902   9.751331   8.359594
    28  H    5.492855   6.799693   7.980813   9.047580   7.248334
    29  H    4.133965   4.790712   6.199691   7.349013   4.412100
    30  H    4.133940   4.790861   6.199766   7.349053   4.412507
    31  H    2.155458   2.633789   4.061712   5.220119   2.394447
                   21         22         23         24         25
    21  N    0.000000
    22  H    7.281777   0.000000
    23  H    7.282027   1.795191   0.000000
    24  H    7.140071   1.789504   1.789497   0.000000
    25  H    6.912926   2.330363   2.330454   3.604373   0.000000
    26  H    7.760889   6.971375   6.741335   8.138105   4.691842
    27  H    8.992603   6.808205   6.808506   8.225726   4.621536
    28  H    7.760045   6.740936   6.971340   8.137795   4.691698
    29  H    4.398030   7.510580   7.720988   8.322740   6.064359
    30  H    4.398675   7.720718   7.510464   8.322628   6.064082
    31  H    2.757900   6.079070   6.079107   6.520136   4.964107
                   26         27         28         29         30
    26  H    0.000000
    27  H    1.773617   0.000000
    28  H    1.758544   1.773699   0.000000
    29  H    4.479138   5.697907   4.113376   0.000000
    30  H    4.113630   5.697719   4.478348   1.784563   0.000000
    31  H    5.030325   6.255734   5.029759   2.258462   2.258461
                   31
    31  H    0.000000
 Stoichiometry    C15H10N4O2
 Framework group  C1[X(C15H10N4O2)]
 Deg. of freedom    87
 Full point group                 C1      NOp   1
 Largest Abelian subgroup         C1      NOp   1
 Largest concise Abelian subgroup C1      NOp   1
                         Standard orientation:                         
 ---------------------------------------------------------------------
 Center     Atomic      Atomic             Coordinates (Angstroms)
 Number     Number       Type             X           Y           Z
 ---------------------------------------------------------------------
      1          6           0        2.976422    2.824732   -0.000191
      2          8           0        2.767617    1.410060    0.000002
      3          6           0        1.514972    0.920676    0.000033
      4          6           0        0.380873    1.676787   -0.000063
      5          6           0       -0.952149    1.111136   -0.000112
      6          6           0       -2.065161    1.935419   -0.000102
      7          6           0       -3.527523    1.543231   -0.000385
      8          6           0       -1.838702    3.347311    0.000114
      9          7           0       -1.690501    4.504433    0.000358
     10          6           0       -1.014585   -0.352601   -0.000068
     11          8           0       -2.268097   -0.879446   -0.000193
     12          6           0       -2.410126   -2.300421    0.000240
     13          6           0       -3.845122   -2.601351    0.000225
     14          7           0       -4.973839   -2.866915    0.000107
     15          6           0        0.117925   -1.112498    0.000179
     16          6           0        1.437542   -0.538239    0.000106
     17          6           0        2.556409   -1.366833    0.000012
     18          6           0        3.923763   -0.954306    0.000153
     19          7           0        5.068442   -0.736909    0.000290
     20          6           0        2.374915   -2.785876   -0.000166
     21          7           0        2.191111   -3.936854   -0.000406
     22          1           0        2.544395    3.280773   -0.897807
     23          1           0        2.544517    3.280971    0.897384
     24          1           0        4.057849    2.954873   -0.000272
     25          1           0        0.458991    2.755553   -0.000130
     26          1           0       -3.778651    0.943707    0.879066
     27          1           0       -4.151612    2.437844   -0.000805
     28          1           0       -3.778169    0.943026   -0.879478
     29          1           0       -1.945892   -2.739700   -0.891862
     30          1           0       -1.946060   -2.739142    0.892701
     31          1           0        0.055256   -2.192109    0.000438
 ---------------------------------------------------------------------
 Rotational constants (GHZ):           0.3632776           0.2395086           0.1447390
 Standard basis: 6-31+G(d,p) (6D, 7F)
 There are   449 symmetry adapted cartesian basis functions of A   symmetry.
 There are   449 symmetry adapted basis functions of A   symmetry.
   449 basis functions,   742 primitive gaussians,   449 cartesian basis functions
    72 alpha electrons       72 beta electrons
       nuclear repulsion energy      1466.8973761838 Hartrees.
 NAtoms=   31 NActive=   31 NUniq=   31 SFac= 1.00D+00 NAtFMM=   60 NAOKFM=F Big=F
 Integral buffers will be    131072 words long.
 Regular integral format.
 Two-electron integral symmetry is turned on.
 One-electron integrals computed using PRISM.
 NBasis=   449 RedAO= T EigKep=  1.10D-06  NBF=   449
 NBsUse=   443 1.00D-06 EigRej=  7.48D-07 NBFU=   443
 ExpMin= 4.38D-02 ExpMax= 5.48D+03 ExpMxC= 8.25D+02 IAcc=3 IRadAn=         5 AccDes= 0.00D+00
 Harris functional with IExCor=  402 and IRadAn=       5 diagonalized for initial guess.
 HarFok:  IExCor=  402 AccDes= 0.00D+00 IRadAn=         5 IDoV= 1 UseB2=F ITyADJ=14
 ICtDFT=  3500011 ScaDFX=  1.000000  1.000000  1.000000  1.000000
 FoFCou: FMM=F IPFlag=           0 FMFlag=      100000 FMFlg1=           0
         NFxFlg=           0 DoJE=T BraDBF=F KetDBF=T FulRan=T
         wScrn=  0.000000 ICntrl=       500 IOpCl=  0 I1Cent=   200000004 NGrid=           0
         NMat0=    1 NMatS0=      1 NMatT0=    0 NMatD0=    1 NMtDS0=    0 NMtDT0=    0
 Petite list used in FoFCou.
 Requested convergence on RMS density matrix=1.00D-08 within 128 cycles.
 Requested convergence on MAX density matrix=1.00D-06.
 Requested convergence on             energy=1.00D-06.
 No special actions if energy rises.
 SCF Done:  E(RB3LYP) =  -946.981461939     A.U. after   17 cycles
            NFock= 17  Conv=0.44D-08     -V/T= 2.0094
 DoSCS=F DFT=T ScalE2(SS,OS)=  1.000000  1.000000
 ExpMin= 4.38D-02 ExpMax= 5.48D+03 ExpMxC= 8.25D+02 IAcc=3 IRadAn=         5 AccDes= 0.00D+00
 HarFok:  IExCor=  205 AccDes= 0.00D+00 IRadAn=         5 IDoV=-2 UseB2=F ITyADJ=14
 ICtDFT= 12500011 ScaDFX=  1.000000  1.000000  1.000000  1.000000
 GSVD:  LWork=        -609 too small for GESVD, short by        2520 words or        2520 for optimal perf.
 Range of M.O.s used for correlation:    22   443
 NBasis=   449 NAE=    72 NBE=    72 NFC=    21 NFV=     0
 NROrb=    422 NOA=    51 NOB=    51 NVA=   371 NVB=   371

 **** Warning!!: The largest alpha MO coefficient is  0.17640062D+03


 **** Warning!!: The smallest alpha delta epsilon is  0.97728706D-01

 Orbital symmetries:
       Occupied  (A) (A) (A) (A) (A) (A) (A) (A) (A) (A) (A) (A)
                 (A) (A) (A) (A) (A) (A) (A) (A) (A) (A) (A) (A)
                 (A) (A) (A) (A) (A) (A) (A) (A) (A) (A) (A) (A)
                 (A) (A) (A) (A) (A) (A) (A) (A) (A) (A) (A) (A)
                 (A) (A) (A) (A) (A) (A) (A) (A) (A) (A) (A) (A)
                 (A) (A) (A) (A) (A) (A) (A) (A) (A) (A) (A) (A)
       Virtual   (A) (A) (A) (A) (A) (A) (A) (A) (A) (A) (A) (A)
                 (A) (A) (A) (A) (A) (A) (A) (A) (A) (A) (A) (A)
                 (A) (A) (A) (A) (A) (A) (A) (A) (A) (A) (A) (A)
                 (A) (A) (A) (A) (A) (A) (A) (A) (A) (A) (A) (A)
                 (A) (A) (A) (A) (A) (A) (A) (A) (A) (A) (A) (A)
                 (A) (A) (A) (A) (A) (A) (A) (A) (A) (A) (A) (A)
                 (A) (A) (A) (A) (A) (A) (A) (A) (A) (A) (A) (A)
                 (A) (A) (A) (A) (A) (A) (A) (A) (A) (A) (A) (A)
                 (A) (A) (A) (A) (A) (A) (A) (A) (A) (A) (A) (A)
                 (A) (A) (A) (A) (A) (A) (A) (A) (A) (A) (A) (A)
                 (A) (A) (A) (A) (A) (A) (A) (A) (A) (A) (A) (A)
                 (A) (A) (A) (A) (A) (A) (A) (A) (A) (A) (A) (A)
                 (A) (A) (A) (A) (A) (A) (A) (A) (A) (A) (A) (A)
                 (A) (A) (A) (A) (A) (A) (A) (A) (A) (A) (A) (A)
                 (A) (A) (A) (A) (A) (A) (A) (A) (A) (A) (A) (A)
                 (A) (A) (A) (A) (A) (A) (A) (A) (A) (A) (A) (A)
                 (A) (A) (A) (A) (A) (A) (A) (A) (A) (A) (A) (A)
                 (A) (A) (A) (A) (A) (A) (A) (A) (A) (A) (A) (A)
                 (A) (A) (A) (A) (A) (A) (A) (A) (A) (A) (A) (A)
                 (A) (A) (A) (A) (A) (A) (A) (A) (A) (A) (A) (A)
                 (A) (A) (A) (A) (A) (A) (A) (A) (A) (A) (A) (A)
                 (A) (A) (A) (A) (A) (A) (A) (A) (A) (A) (A) (A)
                 (A) (A) (A) (A) (A) (A) (A) (A) (A) (A) (A) (A)
                 (A) (A) (A) (A) (A) (A) (A) (A) (A) (A) (A) (A)
                 (A) (A) (A) (A) (A) (A) (A) (A) (A) (A) (A) (A)
                 (A) (A) (A) (A) (A) (A) (A) (A) (A) (A) (A) (A)
                 (A) (A) (A) (A) (A) (A) (A) (A) (A) (A) (A) (A)
                 (A) (A) (A) (A) (A) (A) (A) (A) (A) (A) (A) (A)
                 (A) (A) (A) (A) (A) (A) (A) (A) (A) (A) (A) (A)
                 (A) (A) (A) (A) (A) (A) (A) (A) (A) (A) (A) (A)
                 (A) (A) (A) (A) (A) (A) (A) (A) (A) (A) (A)
    24 initial guesses have been made.
 Convergence on wavefunction:    0.001000000000000
 Iteration     1 Dimension    24 NMult     0 NNew     24
 CISAX will form    24 AO SS matrices at one time.
 New state      1 was old state      2
 New state      2 was old state      4
 New state      4 was old state      6
 New state      5 was old state      1
 New state      6 was old state     10
 New state      7 was old state      8
 New state      8 was old state      7
 New state     10 was old state     12
 New state     11 was old state     16
 New state     12 was old state     22
 Vector   6 SDiff=2.34D-03 TDiff=6.48D+00 assumed to be singlet.
 Vector  12 SDiff=2.34D-03 TDiff=6.21D+00 assumed to be singlet.
 Iteration     2 Dimension    36 NMult    24 NNew     12
 New state      4 was old state      5
 New state      5 was old state      4
 New state      6 was old state      8
 Iteration     3 Dimension    48 NMult    36 NNew     12
 Iteration     4 Dimension    60 NMult    48 NNew     12
 Iteration     5 Dimension    72 NMult    60 NNew     12
 Iteration     6 Dimension    78 NMult    72 NNew      6
 Iteration     7 Dimension    80 NMult    78 NNew      2
 Iteration     8 Dimension    82 NMult    80 NNew      2
 No map to state      6
 Iteration     9 Dimension    84 NMult    82 NNew      2
 Iteration    10 Dimension    86 NMult    84 NNew      2
 Iteration    11 Dimension    88 NMult    86 NNew      2
 ***********************************************************************
 Excited states from <AA,BB:AA,BB> singles matrix:
 ***********************************************************************
 
 Ground to excited state transition densities written to RWF  633
 Ground to excited state transition electric dipole moments (Au):
       state          X           Y           Z        Dip. S.      Osc.
         1         0.0000      0.0000      0.0000      0.0000      0.0000
         2        -0.0000      0.0000      0.0000      0.0000      0.0000
         3         1.0137     -0.9663     -0.0001      1.9613      0.1306
         4         2.6305     -1.8607     -0.0001     10.3815      0.7797
         5         0.0000     -0.0000      0.0000      0.0000      0.0000
         6         0.1539     -0.2392     -0.0001      0.0809      0.0085
 Ground to excited state transition velocity dipole moments (Au):
       state          X           Y           Z        Dip. S.      Osc.
         1        -0.0000     -0.0000      0.0000      0.0000      0.0000
         2         0.0000     -0.0000     -0.0000      0.0000      0.0000
         3        -0.0958      0.0928     -0.0000      0.0178      0.1188
         4        -0.2866      0.2014      0.0000      0.1227      0.7262
         5        -0.0000      0.0000      0.0000      0.0000      0.0000
         6        -0.0224      0.0375      0.0003      0.0019      0.0080
 Ground to excited state transition magnetic dipole moments (Au):
       state          X           Y           Z
         1         0.0000      0.0000     -0.0000
         2        -0.0000     -0.0000      0.0000
         3        -0.0000      0.0001      0.4616
         4         0.0000     -0.0001     -0.0707
         5        -0.0000      0.0000     -0.0000
         6         0.0017      0.0016     -0.0781
 Ground to excited state transition velocity quadrupole moments (Au):
       state          XX          YY          ZZ          XY          XZ          YZ
         1        -0.0000      0.0000     -0.0000      0.0000     -0.0000      0.0000
         2        -0.0000      0.0000      0.0000      0.0000      0.0000     -0.0000
         3        -0.2031      0.2686      0.0123     -0.3583     -0.0000      0.0000
         4        -0.6514      0.2334      0.0090      0.2504     -0.0000      0.0000
         5        -0.0000      0.0000      0.0000      0.0000     -0.0000      0.0000
         6         0.0860      0.2269      0.0091     -0.1562     -0.0021      0.0005
 <0|del|b> * <b|rxdel|0> + <0|del|b> * <b|delr+rdel|0>
 Rotatory Strengths (R) in cgs (10**-40 erg-esu-cm/Gauss)
       state          XX          YY          ZZ    R(velocity)    E-M Angle
         1        -0.0000     -0.0000      0.0000     -0.0000       90.00
         2         0.0000     -0.0000      0.0000      0.0000       90.00
         3         0.0260     -0.0018      0.0322      0.0188       90.00
         4        -0.0098     -0.0430     -0.0671     -0.0399       90.00
         5         0.0000     -0.0000      0.0000      0.0000       90.00
         6         0.1533     -0.0571     -0.1005     -0.0014       90.00
 1/2[<0|r|b>*<b|rxdel|0> + (<0|rxdel|b>*<b|r|0>)*]
 Rotatory Strengths (R) in cgs (10**-40 erg-esu-cm/Gauss)
       state          XX          YY          ZZ     R(length)
         1        -0.0000     -0.0000      0.0000      0.0000
         2        -0.0000      0.0000     -0.0000      0.0000
         3         0.0167      0.0443      0.0307      0.0306
         4        -0.0382     -0.0769     -0.0067     -0.0406
         5         0.0000      0.0000      0.0000      0.0000
         6        -0.1876      0.2783     -0.0035      0.0291
  1/2[<0|del|b>*<b|r|0> + (<0|r|b>*<b|del|0>)*] (Au)
       state          X           Y           Z        Dip. S.   Osc.(frdel)
         1        -0.0000     -0.0000      0.0000      0.0000      0.0000
         2        -0.0000     -0.0000     -0.0000      0.0000      0.0000
         3        -0.0972     -0.0896      0.0000      0.1868      0.1245
         4        -0.7539     -0.3748     -0.0000      1.1287      0.7525
         5        -0.0000     -0.0000      0.0000      0.0000      0.0000
         6        -0.0034     -0.0090     -0.0000      0.0124      0.0083

 Excitation energies and oscillator strengths:
 
 Excited State   1:      Triplet-A      0.8972 eV 1381.95 nm  f=0.0000  <S**2>=2.000
      72 -> 73         0.74620
      72 <- 73         0.26748
 This state for optimization and/or second-order correction.
 Total Energy, E(TD-HF/TD-DFT) =  -946.948491539    
 Copying the excited state density for this state as the 1-particle RhoCI density.
 
 Excited State   2:      Triplet-A      2.1359 eV  580.49 nm  f=0.0000  <S**2>=2.000
      71 -> 73         0.69478
 
 Excited State   3:      Singlet-A      2.7173 eV  456.27 nm  f=0.1306  <S**2>=0.000
      71 -> 73         0.58364
      72 -> 73         0.39383
 
 Excited State   4:      Singlet-A      3.0657 eV  404.42 nm  f=0.7797  <S**2>=0.000
      71 -> 73        -0.39037
      72 -> 73         0.59650
      72 <- 73        -0.13515
 
 Excited State   5:      Triplet-A      3.3088 eV  374.71 nm  f=0.0000  <S**2>=2.000
      70 -> 73         0.57974
      72 -> 74        -0.37657
 
 Excited State   6:      Singlet-A      4.3054 eV  287.97 nm  f=0.0085  <S**2>=0.000
      70 -> 73         0.54804
      72 -> 74         0.43905
 SavETr:  write IOETrn=   770 NScale= 10 NData=  16 NLR=1 NState=    6 LETran=     118.

 **********************************************************************

            Population analysis using the SCF Density.

 **********************************************************************

 Orbital symmetries:
       Occupied  (A) (A) (A) (A) (A) (A) (A) (A) (A) (A) (A) (A)
                 (A) (A) (A) (A) (A) (A) (A) (A) (A) (A) (A) (A)
                 (A) (A) (A) (A) (A) (A) (A) (A) (A) (A) (A) (A)
                 (A) (A) (A) (A) (A) (A) (A) (A) (A) (A) (A) (A)
                 (A) (A) (A) (A) (A) (A) (A) (A) (A) (A) (A) (A)
                 (A) (A) (A) (A) (A) (A) (A) (A) (A) (A) (A) (A)
       Virtual   (A) (A) (A) (A) (A) (A) (A) (A) (A) (A) (A) (A)
                 (A) (A) (A) (A) (A) (A) (A) (A) (A) (A) (A) (A)
                 (A) (A) (A) (A) (A) (A) (A) (A) (A) (A) (A) (A)
                 (A) (A) (A) (A) (A) (A) (A) (A) (A) (A) (A) (A)
                 (A) (A) (A) (A) (A) (A) (A) (A) (A) (A) (A) (A)
                 (A) (A) (A) (A) (A) (A) (A) (A) (A) (A) (A) (A)
                 (A) (A) (A) (A) (A) (A) (A) (A) (A) (A) (A) (A)
                 (A) (A) (A) (A) (A) (A) (A) (A) (A) (A) (A) (A)
                 (A) (A) (A) (A) (A) (A) (A) (A) (A) (A) (A) (A)
                 (A) (A) (A) (A) (A) (A) (A) (A) (A) (A) (A) (A)
                 (A) (A) (A) (A) (A) (A) (A) (A) (A) (A) (A) (A)
                 (A) (A) (A) (A) (A) (A) (A) (A) (A) (A) (A) (A)
                 (A) (A) (A) (A) (A) (A) (A) (A) (A) (A) (A) (A)
                 (A) (A) (A) (A) (A) (A) (A) (A) (A) (A) (A) (A)
                 (A) (A) (A) (A) (A) (A) (A) (A) (A) (A) (A) (A)
                 (A) (A) (A) (A) (A) (A) (A) (A) (A) (A) (A) (A)
                 (A) (A) (A) (A) (A) (A) (A) (A) (A) (A) (A) (A)
                 (A) (A) (A) (A) (A) (A) (A) (A) (A) (A) (A) (A)
                 (A) (A) (A) (A) (A) (A) (A) (A) (A) (A) (A) (A)
                 (A) (A) (A) (A) (A) (A) (A) (A) (A) (A) (A) (A)
                 (A) (A) (A) (A) (A) (A) (A) (A) (A) (A) (A) (A)
                 (A) (A) (A) (A) (A) (A) (A) (A) (A) (A) (A) (A)
                 (A) (A) (A) (A) (A) (A) (A) (A) (A) (A) (A) (A)
                 (A) (A) (A) (A) (A) (A) (A) (A) (A) (A) (A) (A)
                 (A) (A) (A) (A) (A) (A) (A) (A) (A) (A) (A) (A)
                 (A) (A) (A) (A) (A) (A) (A) (A) (A) (A) (A) (A)
                 (A) (A) (A) (A) (A) (A) (A) (A) (A) (A) (A) (A)
                 (A) (A) (A) (A) (A) (A) (A) (A) (A) (A) (A) (A)
                 (A) (A) (A) (A) (A) (A) (A) (A) (A) (A) (A) (A)
                 (A) (A) (A) (A) (A) (A) (A) (A) (A) (A) (A) (A)
                 (A) (A) (A) (A) (A) (A) (A) (A) (A) (A) (A)
 The electronic state is 1-A.
 Alpha  occ. eigenvalues --  -19.26209 -19.23369 -14.38789 -14.37608 -14.37346
 Alpha  occ. eigenvalues --  -14.36100 -10.34239 -10.32791 -10.31255 -10.29556
 Alpha  occ. eigenvalues --  -10.28891 -10.28821 -10.27871 -10.27684 -10.27547
 Alpha  occ. eigenvalues --  -10.26693 -10.26531 -10.25785 -10.25172 -10.24366
 Alpha  occ. eigenvalues --  -10.22950  -1.14925  -1.12191  -0.95318  -0.94818
 Alpha  occ. eigenvalues --   -0.94495  -0.92645  -0.92042  -0.88115  -0.84007
 Alpha  occ. eigenvalues --   -0.82952  -0.79922  -0.77768  -0.73901  -0.71014
 Alpha  occ. eigenvalues --   -0.68663  -0.64898  -0.62450  -0.60405  -0.58588
 Alpha  occ. eigenvalues --   -0.57746  -0.55839  -0.55806  -0.53295  -0.51288
 Alpha  occ. eigenvalues --   -0.51005  -0.49797  -0.47600  -0.47340  -0.45705
 Alpha  occ. eigenvalues --   -0.45307  -0.44313  -0.43303  -0.42930  -0.41131
 Alpha  occ. eigenvalues --   -0.40804  -0.40293  -0.39849  -0.39459  -0.39406
 Alpha  occ. eigenvalues --   -0.39187  -0.38423  -0.38180  -0.37395  -0.36760
 Alpha  occ. eigenvalues --   -0.36494  -0.36308  -0.35414  -0.34328  -0.33640
 Alpha  occ. eigenvalues --   -0.28037  -0.25133
 Alpha virt. eigenvalues --   -0.15360  -0.06042  -0.04608  -0.03387  -0.02793
 Alpha virt. eigenvalues --   -0.02448  -0.01366  -0.01151  -0.00715   0.00098
 Alpha virt. eigenvalues --    0.00378   0.01284   0.01704   0.01722   0.02093
 Alpha virt. eigenvalues --    0.02980   0.03291   0.03539   0.03622   0.04243
 Alpha virt. eigenvalues --    0.04544   0.05327   0.05379   0.05903   0.06266
 Alpha virt. eigenvalues --    0.06700   0.06843   0.07166   0.07604   0.07756
 Alpha virt. eigenvalues --    0.08265   0.08945   0.08959   0.09409   0.09788
 Alpha virt. eigenvalues --    0.10217   0.10383   0.10409   0.11588   0.11620
 Alpha virt. eigenvalues --    0.11837   0.12176   0.12630   0.12824   0.14062
 Alpha virt. eigenvalues --    0.14351   0.14640   0.14758   0.15013   0.15163
 Alpha virt. eigenvalues --    0.15651   0.16216   0.16695   0.16866   0.17421
 Alpha virt. eigenvalues --    0.17519   0.17860   0.18223   0.18602   0.19003
 Alpha virt. eigenvalues --    0.19348   0.20125   0.20211   0.20949   0.21442
 Alpha virt. eigenvalues --    0.21775   0.22180   0.22777   0.22819   0.23279
 Alpha virt. eigenvalues --    0.24100   0.24671   0.24724   0.24804   0.25153
 Alpha virt. eigenvalues --    0.25185   0.25319   0.25658   0.26005   0.26068
 Alpha virt. eigenvalues --    0.26346   0.26647   0.26830   0.26900   0.27015
 Alpha virt. eigenvalues --    0.27652   0.28075   0.28272   0.28729   0.28997
 Alpha virt. eigenvalues --    0.29151   0.29330   0.29734   0.30456   0.30472
 Alpha virt. eigenvalues --    0.30976   0.31681   0.32037   0.32172   0.32938
 Alpha virt. eigenvalues --    0.33468   0.34099   0.35045   0.35262   0.35657
 Alpha virt. eigenvalues --    0.37903   0.39010   0.40608   0.41042   0.42497
 Alpha virt. eigenvalues --    0.43432   0.44779   0.45668   0.47002   0.48474
 Alpha virt. eigenvalues --    0.52595   0.56749   0.57543   0.61154   0.62728
 Alpha virt. eigenvalues --    0.62818   0.64573   0.64895   0.65179   0.65385
 Alpha virt. eigenvalues --    0.66590   0.66722   0.67335   0.67854   0.68930
 Alpha virt. eigenvalues --    0.70482   0.70578   0.71883   0.72383   0.72933
 Alpha virt. eigenvalues --    0.73763   0.74079   0.75183   0.76193   0.77154
 Alpha virt. eigenvalues --    0.77565   0.77926   0.78011   0.79501   0.79722
 Alpha virt. eigenvalues --    0.80434   0.81955   0.83763   0.84857   0.85042
 Alpha virt. eigenvalues --    0.85426   0.86375   0.87753   0.88416   0.88526
 Alpha virt. eigenvalues --    0.89622   0.89952   0.91986   0.94013   0.94179
 Alpha virt. eigenvalues --    0.95380   0.97428   0.98820   0.98993   0.99341
 Alpha virt. eigenvalues --    1.00097   1.00949   1.01099   1.01190   1.01617
 Alpha virt. eigenvalues --    1.02351   1.03407   1.03933   1.04157   1.05337
 Alpha virt. eigenvalues --    1.05964   1.06869   1.07706   1.08483   1.08994
 Alpha virt. eigenvalues --    1.10692   1.11410   1.11449   1.12372   1.14605
 Alpha virt. eigenvalues --    1.15358   1.15935   1.17014   1.17616   1.18956
 Alpha virt. eigenvalues --    1.19462   1.20755   1.22051   1.22096   1.22155
 Alpha virt. eigenvalues --    1.24117   1.24648   1.25892   1.27475   1.29412
 Alpha virt. eigenvalues --    1.30005   1.30996   1.31741   1.31818   1.34613
 Alpha virt. eigenvalues --    1.35911   1.36531   1.38410   1.39578   1.40265
 Alpha virt. eigenvalues --    1.43868   1.44277   1.45336   1.48021   1.48060
 Alpha virt. eigenvalues --    1.49485   1.49499   1.49915   1.51082   1.51981
 Alpha virt. eigenvalues --    1.52139   1.54267   1.57011   1.57522   1.59800
 Alpha virt. eigenvalues --    1.61224   1.63633   1.63799   1.66815   1.67137
 Alpha virt. eigenvalues --    1.67681   1.68954   1.70456   1.72312   1.74606
 Alpha virt. eigenvalues --    1.75446   1.76339   1.78879   1.80590   1.80748
 Alpha virt. eigenvalues --    1.81114   1.82041   1.82615   1.83759   1.84910
 Alpha virt. eigenvalues --    1.85147   1.87755   1.88656   1.88854   1.89647
 Alpha virt. eigenvalues --    1.90078   1.90192   1.90867   1.92267   1.92840
 Alpha virt. eigenvalues --    1.94337   1.94593   1.96438   1.97432   1.97683
 Alpha virt. eigenvalues --    1.98827   1.99030   2.00883   2.01236   2.02100
 Alpha virt. eigenvalues --    2.02760   2.03180   2.03680   2.04951   2.06163
 Alpha virt. eigenvalues --    2.06891   2.08401   2.11278   2.12296   2.12900
 Alpha virt. eigenvalues --    2.13678   2.15452   2.15471   2.16640   2.16980
 Alpha virt. eigenvalues --    2.19868   2.21949   2.22513   2.22569   2.26927
 Alpha virt. eigenvalues --    2.28578   2.29403   2.30382   2.31956   2.35651
 Alpha virt. eigenvalues --    2.39761   2.42390   2.46795   2.46910   2.47429
 Alpha virt. eigenvalues --    2.49908   2.51197   2.53747   2.55518   2.55750
 Alpha virt. eigenvalues --    2.58213   2.60104   2.62672   2.63182   2.64226
 Alpha virt. eigenvalues --    2.65283   2.65534   2.66978   2.71060   2.72385
 Alpha virt. eigenvalues --    2.73079   2.73884   2.74911   2.77009   2.80798
 Alpha virt. eigenvalues --    2.81128   2.81369   2.82497   2.82747   2.84495
 Alpha virt. eigenvalues --    2.88644   2.88720   2.89816   2.94721   2.95824
 Alpha virt. eigenvalues --    2.99149   3.01293   3.03159   3.04903   3.07025
 Alpha virt. eigenvalues --    3.08794   3.10048   3.12813   3.17338   3.18354
 Alpha virt. eigenvalues --    3.19944   3.22900   3.23858   3.26926   3.28958
 Alpha virt. eigenvalues --    3.35399   3.38142   3.38797   3.39207   3.41296
 Alpha virt. eigenvalues --    3.44825   3.46827   3.48057   3.52950   3.63263
 Alpha virt. eigenvalues --    4.19374   4.22184   4.23566   4.25354   4.28102
 Alpha virt. eigenvalues --    4.30393   4.33047   4.33305   4.36778   4.37769
 Alpha virt. eigenvalues --    4.44487   4.45325   4.53494   4.56094   4.62583
 Alpha virt. eigenvalues --    4.62934   4.67875   4.72434   4.78782   4.85397
 Alpha virt. eigenvalues --    4.99683
          Condensed to atoms (all electrons):
               1          2          3          4          5          6
     1  C    4.976523   0.036991  -0.112677   0.001439   0.051604   0.049943
     2  O    0.036991   8.530337   0.290404   0.226104   0.119249   0.005835
     3  C   -0.112677   0.290404  12.879524  -1.458817  -2.116472  -3.678980
     4  C    0.001439   0.226104  -1.458817  11.910063   4.252269  -2.242690
     5  C    0.051604   0.119249  -2.116472   4.252269  18.871640  -3.413224
     6  C    0.049943   0.005835  -3.678980  -2.242690  -3.413224  18.356523
     7  C    0.001717  -0.002610  -0.283490  -0.811019  -0.110112   0.227448
     8  C    0.019605  -0.005725  -0.714821   0.206664  -0.431483  -1.049195
     9  N   -0.000676  -0.000056   0.066666   0.095135   0.057272   0.350940
    10  C   -0.018469  -0.014721   0.753957  -0.417058  -1.498842   0.915301
    11  O    0.000100   0.000353  -0.013319   0.023152  -0.376822   0.001544
    12  C   -0.001026   0.000250  -0.067636   0.022898  -0.180210   0.011607
    13  C   -0.000524   0.000309  -0.053054   0.022853   0.157010  -0.128467
    14  N    0.000005  -0.000001   0.000783  -0.000063   0.002777  -0.005873
    15  C   -0.024132   0.014349  -0.354249   0.458732  -0.927546  -0.329647
    16  C   -0.118507  -0.401337   2.288624  -2.063642  -3.647795  -3.599520
    17  C   -0.026716  -0.191629   0.748566  -2.704134  -4.254152  -0.276277
    18  C    0.081081  -0.060238   0.200477  -0.550797  -0.269615  -0.075854
    19  N   -0.005191   0.016456  -0.080790  -0.015139  -0.006685   0.000256
    20  C   -0.024090  -0.061833  -2.116795  -0.496645  -0.666780  -0.305120
    21  N    0.000526   0.000090   0.143575   0.014764   0.026170   0.008827
    22  H    0.406954  -0.038285  -0.135244   0.124795   0.038314   0.018149
    23  H    0.406959  -0.038285  -0.135192   0.124753   0.038278   0.018151
    24  H    0.416313  -0.069878   0.120777  -0.138207  -0.023629  -0.006652
    25  H    0.004977  -0.017038   0.116699   0.337537  -0.090759  -0.160803
    26  H   -0.000003  -0.000000  -0.001830  -0.024589   0.022932  -0.090914
    27  H   -0.000002  -0.000001   0.002463   0.007245   0.035453  -0.162382
    28  H   -0.000003  -0.000000  -0.001834  -0.024636   0.023107  -0.091246
    29  H   -0.000007   0.000001  -0.001330  -0.001147  -0.022342   0.004612
    30  H   -0.000007   0.000001  -0.001337  -0.001138  -0.022278   0.004592
    31  H    0.000247  -0.000683   0.005053   0.007328   0.044023   0.005099
               7          8          9         10         11         12
     1  C    0.001717   0.019605  -0.000676  -0.018469   0.000100  -0.001026
     2  O   -0.002610  -0.005725  -0.000056  -0.014721   0.000353   0.000250
     3  C   -0.283490  -0.714821   0.066666   0.753957  -0.013319  -0.067636
     4  C   -0.811019   0.206664   0.095135  -0.417058   0.023152   0.022898
     5  C   -0.110112  -0.431483   0.057272  -1.498842  -0.376822  -0.180210
     6  C    0.227448  -1.049195   0.350940   0.915301   0.001544   0.011607
     7  C    6.876964  -0.149715  -0.065406  -0.013702   0.002180   0.029005
     8  C   -0.149715  11.429991  -0.462157  -1.318909  -0.045817  -0.020761
     9  N   -0.065406  -0.462157   7.316416   0.089228   0.000071   0.000656
    10  C   -0.013702  -1.318909   0.089228   6.961559   0.361750  -0.114752
    11  O    0.002180  -0.045817   0.000071   0.361750   8.665338   0.119962
    12  C    0.029005  -0.020761   0.000656  -0.114752   0.119962   6.012056
    13  C   -0.073047   0.000561  -0.000341  -0.023561  -0.240457  -1.339579
    14  N    0.005951  -0.000395   0.000006  -0.006817   0.007260   0.239924
    15  C   -0.178316  -0.141926   0.001412   0.158793  -0.066949   0.050769
    16  C   -0.274248  -0.590312   0.026212   1.071456   0.034220   0.077544
    17  C   -0.089469  -0.243983   0.006110  -0.839363   0.007249  -0.074406
    18  C    0.006914  -0.000468  -0.000527  -0.029140  -0.006468  -0.043085
    19  N   -0.000125  -0.000093   0.000005  -0.000561   0.000025   0.000452
    20  C    0.000395  -0.044844   0.000410  -0.142235  -0.008569   0.078504
    21  N   -0.000134   0.000544  -0.000001  -0.008263   0.000131  -0.007350
    22  H    0.000683   0.002073   0.000140  -0.004119   0.000002  -0.000050
    23  H    0.000682   0.002067   0.000141  -0.004112   0.000002  -0.000050
    24  H   -0.000150  -0.000153  -0.000002   0.001660  -0.000000   0.000021
    25  H   -0.008446   0.046521   0.001353   0.013079  -0.000759   0.000706
    26  H    0.472375  -0.008336  -0.000330  -0.004258  -0.001069  -0.007646
    27  H    0.482383  -0.010696   0.002471  -0.002697  -0.000613   0.001223
    28  H    0.472680  -0.008251  -0.000330  -0.004375  -0.001071  -0.007626
    29  H   -0.000641  -0.000276  -0.000000  -0.024420  -0.042726   0.371118
    30  H   -0.000647  -0.000275  -0.000000  -0.024414  -0.042723   0.371130
    31  H    0.000813  -0.000494   0.000003  -0.004313  -0.019398   0.036007
              13         14         15         16         17         18
     1  C   -0.000524   0.000005  -0.024132  -0.118507  -0.026716   0.081081
     2  O    0.000309  -0.000001   0.014349  -0.401337  -0.191629  -0.060238
     3  C   -0.053054   0.000783  -0.354249   2.288624   0.748566   0.200477
     4  C    0.022853  -0.000063   0.458732  -2.063642  -2.704134  -0.550797
     5  C    0.157010   0.002777  -0.927546  -3.647795  -4.254152  -0.269615
     6  C   -0.128467  -0.005873  -0.329647  -3.599520  -0.276277  -0.075854
     7  C   -0.073047   0.005951  -0.178316  -0.274248  -0.089469   0.006914
     8  C    0.000561  -0.000395  -0.141926  -0.590312  -0.243983  -0.000468
     9  N   -0.000341   0.000006   0.001412   0.026212   0.006110  -0.000527
    10  C   -0.023561  -0.006817   0.158793   1.071456  -0.839363  -0.029140
    11  O   -0.240457   0.007260  -0.066949   0.034220   0.007249  -0.006468
    12  C   -1.339579   0.239924   0.050769   0.077544  -0.074406  -0.043085
    13  C    7.774596   0.059641  -0.198439   0.090127  -0.061532   0.003131
    14  N    0.059641   7.170433   0.014686  -0.002095   0.000495  -0.000071
    15  C   -0.198439   0.014686   7.288063   1.624929  -0.777495  -1.342816
    16  C    0.090127  -0.002095   1.624929  15.677942  -2.720209  -1.581027
    17  C   -0.061532   0.000495  -0.777495  -2.720209  19.004265  -1.586268
    18  C    0.003131  -0.000071  -1.342816  -1.581027  -1.586268  12.657885
    19  N   -0.000035   0.000000   0.061353   0.121475   0.394296  -0.266317
    20  C    0.017307  -0.000210   0.626651  -0.099534  -1.999577  -1.010293
    21  N   -0.003297  -0.000004  -0.007161   0.058667   0.277422  -0.017161
    22  H   -0.000002   0.000000  -0.000268  -0.038625  -0.018569   0.002821
    23  H   -0.000002   0.000000  -0.000279  -0.038632  -0.018542   0.002834
    24  H    0.000000  -0.000000  -0.000760   0.031320   0.037853  -0.007533
    25  H    0.000269  -0.000001  -0.000018   0.067275  -0.002845   0.001578
    26  H    0.006805  -0.000354  -0.006220  -0.005106  -0.000826   0.000018
    27  H   -0.001104   0.000056  -0.000984   0.000650  -0.000027   0.000001
    28  H    0.006802  -0.000353  -0.006261  -0.005128  -0.000831   0.000018
    29  H   -0.001702  -0.001866   0.026678   0.003269   0.009237  -0.000141
    30  H   -0.001698  -0.001864   0.026632   0.003264   0.009205  -0.000141
    31  H   -0.004211   0.000469   0.340154  -0.038745  -0.163520  -0.007276
              19         20         21         22         23         24
     1  C   -0.005191  -0.024090   0.000526   0.406954   0.406959   0.416313
     2  O    0.016456  -0.061833   0.000090  -0.038285  -0.038285  -0.069878
     3  C   -0.080790  -2.116795   0.143575  -0.135244  -0.135192   0.120777
     4  C   -0.015139  -0.496645   0.014764   0.124795   0.124753  -0.138207
     5  C   -0.006685  -0.666780   0.026170   0.038314   0.038278  -0.023629
     6  C    0.000256  -0.305120   0.008827   0.018149   0.018151  -0.006652
     7  C   -0.000125   0.000395  -0.000134   0.000683   0.000682  -0.000150
     8  C   -0.000093  -0.044844   0.000544   0.002073   0.002067  -0.000153
     9  N    0.000005   0.000410  -0.000001   0.000140   0.000141  -0.000002
    10  C   -0.000561  -0.142235  -0.008263  -0.004119  -0.004112   0.001660
    11  O    0.000025  -0.008569   0.000131   0.000002   0.000002  -0.000000
    12  C    0.000452   0.078504  -0.007350  -0.000050  -0.000050   0.000021
    13  C   -0.000035   0.017307  -0.003297  -0.000002  -0.000002   0.000000
    14  N    0.000000  -0.000210  -0.000004   0.000000   0.000000  -0.000000
    15  C    0.061353   0.626651  -0.007161  -0.000268  -0.000279  -0.000760
    16  C    0.121475  -0.099534   0.058667  -0.038625  -0.038632   0.031320
    17  C    0.394296  -1.999577   0.277422  -0.018569  -0.018542   0.037853
    18  C   -0.266317  -1.010293  -0.017161   0.002821   0.002834  -0.007533
    19  N    7.308406  -0.019080   0.000856  -0.000319  -0.000319   0.002585
    20  C   -0.019080  13.044343  -0.325755  -0.001286  -0.001286   0.002760
    21  N    0.000856  -0.325755   7.314073   0.000002   0.000002  -0.000004
    22  H   -0.000319  -0.001286   0.000002   0.552233  -0.040015  -0.026303
    23  H   -0.000319  -0.001286   0.000002  -0.040015   0.552225  -0.026304
    24  H    0.002585   0.002760  -0.000004  -0.026303  -0.026304   0.514257
    25  H   -0.000017   0.000109   0.000001  -0.000498  -0.000499   0.000119
    26  H   -0.000000   0.000002   0.000000  -0.000000   0.000000  -0.000000
    27  H   -0.000000  -0.000004  -0.000000   0.000000   0.000000  -0.000000
    28  H   -0.000000   0.000002   0.000000   0.000000  -0.000000  -0.000000
    29  H    0.000001   0.000900   0.000032  -0.000000   0.000000   0.000000
    30  H    0.000001   0.000914   0.000031   0.000000  -0.000000   0.000000
    31  H   -0.000070   0.102632   0.000486  -0.000000  -0.000000  -0.000000
              25         26         27         28         29         30
     1  C    0.004977  -0.000003  -0.000002  -0.000003  -0.000007  -0.000007
     2  O   -0.017038  -0.000000  -0.000001  -0.000000   0.000001   0.000001
     3  C    0.116699  -0.001830   0.002463  -0.001834  -0.001330  -0.001337
     4  C    0.337537  -0.024589   0.007245  -0.024636  -0.001147  -0.001138
     5  C   -0.090759   0.022932   0.035453   0.023107  -0.022342  -0.022278
     6  C   -0.160803  -0.090914  -0.162382  -0.091246   0.004612   0.004592
     7  C   -0.008446   0.472375   0.482383   0.472680  -0.000641  -0.000647
     8  C    0.046521  -0.008336  -0.010696  -0.008251  -0.000276  -0.000275
     9  N    0.001353  -0.000330   0.002471  -0.000330  -0.000000  -0.000000
    10  C    0.013079  -0.004258  -0.002697  -0.004375  -0.024420  -0.024414
    11  O   -0.000759  -0.001069  -0.000613  -0.001071  -0.042726  -0.042723
    12  C    0.000706  -0.007646   0.001223  -0.007626   0.371118   0.371130
    13  C    0.000269   0.006805  -0.001104   0.006802  -0.001702  -0.001698
    14  N   -0.000001  -0.000354   0.000056  -0.000353  -0.001866  -0.001864
    15  C   -0.000018  -0.006220  -0.000984  -0.006261   0.026678   0.026632
    16  C    0.067275  -0.005106   0.000650  -0.005128   0.003269   0.003264
    17  C   -0.002845  -0.000826  -0.000027  -0.000831   0.009237   0.009205
    18  C    0.001578   0.000018   0.000001   0.000018  -0.000141  -0.000141
    19  N   -0.000017  -0.000000  -0.000000  -0.000000   0.000001   0.000001
    20  C    0.000109   0.000002  -0.000004   0.000002   0.000900   0.000914
    21  N    0.000001   0.000000  -0.000000   0.000000   0.000032   0.000031
    22  H   -0.000498  -0.000000   0.000000   0.000000  -0.000000   0.000000
    23  H   -0.000499   0.000000   0.000000  -0.000000   0.000000  -0.000000
    24  H    0.000119  -0.000000  -0.000000  -0.000000   0.000000   0.000000
    25  H    0.540564  -0.000008  -0.000000  -0.000008   0.000000   0.000000
    26  H   -0.000008   0.509399  -0.025535  -0.023926  -0.000001  -0.000015
    27  H   -0.000000  -0.025535   0.527468  -0.025528   0.000000   0.000000
    28  H   -0.000008  -0.023926  -0.025528   0.509377  -0.000015  -0.000001
    29  H    0.000000  -0.000001   0.000000  -0.000015   0.527350  -0.040362
    30  H    0.000000  -0.000015   0.000000  -0.000001  -0.040362   0.527368
    31  H    0.000010   0.000001  -0.000000   0.000001  -0.000684  -0.000683
              31
     1  C    0.000247
     2  O   -0.000683
     3  C    0.005053
     4  C    0.007328
     5  C    0.044023
     6  C    0.005099
     7  C    0.000813
     8  C   -0.000494
     9  N    0.000003
    10  C   -0.004313
    11  O   -0.019398
    12  C    0.036007
    13  C   -0.004211
    14  N    0.000469
    15  C    0.340154
    16  C   -0.038745
    17  C   -0.163520
    18  C   -0.007276
    19  N   -0.000070
    20  C    0.102632
    21  N    0.000486
    22  H   -0.000000
    23  H   -0.000000
    24  H   -0.000000
    25  H    0.000010
    26  H    0.000001
    27  H   -0.000000
    28  H    0.000001
    29  H   -0.000684
    30  H   -0.000683
    31  H    0.547867
 Mulliken charges:
               1
     1  C   -0.122953
     2  O   -0.338408
     3  C   -0.289703
     4  C   -0.886013
     5  C    0.318646
     6  C    1.638015
     7  C   -0.518914
     8  C   -0.458941
     9  N   -0.484822
    10  C    0.192315
    11  O   -0.356579
    12  C    0.440344
    13  C   -0.008360
    14  N   -0.482520
    15  C   -0.329736
    16  C    0.047487
    17  C    1.555672
    18  C   -0.101523
    19  N   -0.511425
    20  C   -0.550995
    21  N   -0.477069
    22  H    0.157417
    23  H    0.157426
    24  H    0.171910
    25  H    0.150903
    26  H    0.189434
    27  H    0.170159
    28  H    0.189438
    29  H    0.194463
    30  H    0.194446
    31  H    0.149884
 Sum of Mulliken charges =  -0.00000
 Mulliken charges with hydrogens summed into heavy atoms:
               1
     1  C    0.363800
     2  O   -0.338408
     3  C   -0.289703
     4  C   -0.735110
     5  C    0.318646
     6  C    1.638015
     7  C    0.030116
     8  C   -0.458941
     9  N   -0.484822
    10  C    0.192315
    11  O   -0.356579
    12  C    0.829254
    13  C   -0.008360
    14  N   -0.482520
    15  C   -0.179852
    16  C    0.047487
    17  C    1.555672
    18  C   -0.101523
    19  N   -0.511425
    20  C   -0.550995
    21  N   -0.477069
 Electronic spatial extent (au):  <R**2>=           6833.3791
 Charge=             -0.0000 electrons
 Dipole moment (field-independent basis, Debye):
    X=             -2.3827    Y=              2.1776    Z=             -0.0000  Tot=              3.2279
 Quadrupole moment (field-independent basis, Debye-Ang):
   XX=           -161.3352   YY=           -147.5925   ZZ=           -119.8417
   XY=             13.5228   XZ=             -0.0017   YZ=             -0.0075
 Traceless Quadrupole moment (field-independent basis, Debye-Ang):
   XX=            -18.4121   YY=             -4.6694   ZZ=             23.0814
   XY=             13.5228   XZ=             -0.0017   YZ=             -0.0075
 Octapole moment (field-independent basis, Debye-Ang**2):
  XXX=            -37.8888  YYY=             -5.3883  ZZZ=             -0.0001  XYY=             45.2038
  XXY=            133.0717  XXZ=             -0.0146  XZZ=             -4.0928  YZZ=             -1.1515
  YYZ=             -0.0031  XYZ=              0.0015
 Hexadecapole moment (field-independent basis, Debye-Ang**3):
 XXXX=          -7221.1848 YYYY=          -4765.6572 ZZZZ=           -148.5696 XXXY=           -231.7390
 XXXZ=             -0.0589 YYYX=            449.9950 YYYZ=             -0.1249 ZZZX=             -0.0035
 ZZZY=             -0.0047 XXYY=          -1789.6231 XXZZ=           -945.1483 YYZZ=           -650.1712
 XXYZ=             -0.0228 YYXZ=              0.0390 ZZXY=             25.0116
 N-N= 1.466897376184D+03 E-N=-5.131764796450D+03  KE= 9.381527730162D+02
 Unable to Open any file for archive entry.
 1\1\GINC-N1\SP\RB3LYP TD-FC\6-31+G(d,p)\C15H10N4O2\HPCMGAC13\29-Jul-20
 25\0\\# td=(50-50,nstates=3) b3lyp/6-31+g(d,p) geom=connectivity\\Titl
 e Card Required\\0,1\C,0,2.976422,2.824732,-0.000191\O,0,2.767617,1.41
 006,0.000002\C,0,1.514972,0.920676,0.000033\C,0,0.380873,1.676787,-0.0
 00063\C,0,-0.952149,1.111136,-0.000112\C,0,-2.065161,1.935419,-0.00010
 2\C,0,-3.527523,1.543231,-0.000385\C,0,-1.838702,3.347311,0.000114\N,0
 ,-1.690501,4.504433,0.000358\C,0,-1.014585,-0.352601,-0.000068\O,0,-2.
 268097,-0.879446,-0.000193\C,0,-2.410126,-2.300421,0.00024\C,0,-3.8451
 22,-2.601351,0.000225\N,0,-4.973839,-2.866915,0.000107\C,0,0.117925,-1
 .112498,0.000179\C,0,1.437542,-0.538239,0.000106\C,0,2.556409,-1.36683
 3,0.000012\C,0,3.923763,-0.954306,0.000153\N,0,5.068442,-0.736909,0.00
 029\C,0,2.374915,-2.785876,-0.000166\N,0,2.191111,-3.936854,-0.000406\
 H,0,2.544395,3.280773,-0.897807\H,0,2.544517,3.280971,0.897384\H,0,4.0
 57849,2.954873,-0.000272\H,0,0.458991,2.755553,-0.00013\H,0,-3.778651,
 0.943707,0.879066\H,0,-4.151612,2.437844,-0.000805\H,0,-3.778169,0.943
 026,-0.879478\H,0,-1.945892,-2.7397,-0.891862\H,0,-1.94606,-2.739142,0
 .892701\H,0,0.055256,-2.192109,0.000438\\Version=ES64L-G16RevC.02\Stat
 e=1-A\HF=-946.9814619\RMSD=4.425e-09\PG=C01 [X(C15H10N4O2)]\\@
 The archive entry for this job was punched.


 ONE THORN OF EXPERIENCE IS WORTH A WHOLE WILDERNESS OF
 WARNING....  LOWELL - AMONG MY BOOKS
 Job cpu time:       0 days  3 hours  4 minutes 46.7 seconds.
 Elapsed time:       0 days  0 hours 11 minutes 57.0 seconds.
 File lengths (MBytes):  RWF=   1154 Int=      0 D2E=      0 Chk=     53 Scr=      2
 Normal termination of Gaussian 16 at Tue Jul 29 22:40:33 2025.
