 Entering Gaussian System, Link 0=g16
 Input=M2543E.gjf
 Output=M2543E.log
 Initial command:
 /hpc/softwares/Gaussian/g16/l1.exe "/hpc/home/hpcmgac13/pbs.12418.admin1.x8z/Gau-1776489.inp" -scrdir="/hpc/home/hpcmgac13/pbs.12418.admin1.x8z/"
 Default linda workers: n1
 Default is to use  16 SMP processors on each worker.
 Entering Link 1 = /hpc/softwares/Gaussian/g16/l1.exe PID=   1776490.
  
 Copyright (c) 1988-2021, Gaussian, Inc.  All Rights Reserved.
  
 This is part of the Gaussian(R) 16 program.  It is based on
 the Gaussian(R) 09 system (copyright 2009, Gaussian, Inc.),
 the Gaussian(R) 03 system (copyright 2003, Gaussian, Inc.),
 the Gaussian(R) 98 system (copyright 1998, Gaussian, Inc.),
 the Gaussian(R) 94 system (copyright 1995, Gaussian, Inc.),
 the Gaussian 92(TM) system (copyright 1992, Gaussian, Inc.),
 the Gaussian 90(TM) system (copyright 1990, Gaussian, Inc.),
 the Gaussian 88(TM) system (copyright 1988, Gaussian, Inc.),
 the Gaussian 86(TM) system (copyright 1986, Carnegie Mellon
 University), and the Gaussian 82(TM) system (copyright 1983,
 Carnegie Mellon University). Gaussian is a federally registered
 trademark of Gaussian, Inc.
  
 This software contains proprietary and confidential information,
 including trade secrets, belonging to Gaussian, Inc.
  
 This software is provided under written license and may be
 used, copied, transmitted, or stored only in accord with that
 written license.
  
 The following legend is applicable only to US Government
 contracts under FAR:
  
                    RESTRICTED RIGHTS LEGEND
  
 Use, reproduction and disclosure by the US Government is
 subject to restrictions as set forth in subparagraphs (a)
 and (c) of the Commercial Computer Software - Restricted
 Rights clause in FAR 52.227-19.
  
 Gaussian, Inc.
 340 Quinnipiac St., Bldg. 40, Wallingford CT 06492
  
  
 ---------------------------------------------------------------
 Warning -- This program may not be used in any manner that
 competes with the business of Gaussian, Inc. or will provide
 assistance to any competitor of Gaussian, Inc.  The licensee
 of this program is prohibited from giving any competitor of
 Gaussian, Inc. access to this program.  By using this program,
 the user acknowledges that Gaussian, Inc. is engaged in the
 business of creating and licensing software in the field of
 computational chemistry and represents and warrants to the
 licensee that it is not a competitor of Gaussian, Inc. and that
 it will not use this program in any manner prohibited above.
 ---------------------------------------------------------------
  

 Cite this work as:
 Gaussian 16, Revision C.02,
 M. J. Frisch, G. W. Trucks, H. B. Schlegel, G. E. Scuseria, 
 M. A. Robb, J. R. Cheeseman, G. Scalmani, V. Barone, 
 G. A. Petersson, H. Nakatsuji, X. Li, M. Caricato, A. V. Marenich, 
 J. Bloino, B. G. Janesko, R. Gomperts, B. Mennucci, H. P. Hratchian, 
 J. V. Ortiz, A. F. Izmaylov, J. L. Sonnenberg, D. Williams-Young, 
 F. Ding, F. Lipparini, F. Egidi, J. Goings, B. Peng, A. Petrone, 
 T. Henderson, D. Ranasinghe, V. G. Zakrzewski, J. Gao, N. Rega, 
 G. Zheng, W. Liang, M. Hada, M. Ehara, K. Toyota, R. Fukuda, 
 J. Hasegawa, M. Ishida, T. Nakajima, Y. Honda, O. Kitao, H. Nakai, 
 T. Vreven, K. Throssell, J. A. Montgomery, Jr., J. E. Peralta, 
 F. Ogliaro, M. J. Bearpark, J. J. Heyd, E. N. Brothers, K. N. Kudin, 
 V. N. Staroverov, T. A. Keith, R. Kobayashi, J. Normand, 
 K. Raghavachari, A. P. Rendell, J. C. Burant, S. S. Iyengar, 
 J. Tomasi, M. Cossi, J. M. Millam, M. Klene, C. Adamo, R. Cammi, 
 J. W. Ochterski, R. L. Martin, K. Morokuma, O. Farkas, 
 J. B. Foresman, and D. J. Fox, Gaussian, Inc., Wallingford CT, 2019.
 
 ******************************************
 Gaussian 16:  ES64L-G16RevC.02  7-Dec-2021
                29-Jul-2025 
 ******************************************
 SetLPE:    new flags="-opt 'Tsnet.Node.lindarsharg: ssh'  -nodelist 'n1' -env GAUSS_MDEF=2147483648 -env GAUSS_EXEDIR="/hpc/softwares/Gaussian/g16/bsd:/hpc/softwares/Gaussian/g16""
 Will use up to    1 processors via Linda.
 ----------------------------------------------------------
 # td=(50-50,nstates=3) b3lyp/6-31+g(d,p) geom=connectivity
 ----------------------------------------------------------
 1/38=1,57=2,172=1/1;
 2/12=2,17=6,18=5,40=1/2;
 3/5=1,6=6,7=111,11=9,25=1,30=1,74=-5/1,2,3,8;
 4//1;
 5/5=2,38=5/2;
 8/6=1,10=2,108=3/1;
 9/41=3,42=1,48=2,70=2/14;
 6/7=2,8=2,9=2,10=2/1;
 99/5=1,9=1/99;
 -------------------
 Title Card Required
 -------------------
 Symbolic Z-matrix:
 Charge =  0 Multiplicity = 1
 C                    -4.94191  -1.65998  -0.28102 
 C                    -3.97008  -0.76728  -0.57523 
 C                    -4.02068   0.03116  -1.77173 
 N                    -4.052     0.67963  -2.73619 
 C                    -2.8332   -0.57385   0.29602 
 C                    -1.70021   0.16336   0.40444 
 C                    -0.99274   1.25759  -0.33616 
 C                    -1.07975   2.59443   0.43277 
 C                     0.44686   0.85211  -0.75517 
 C                     1.52627   0.7451    0.36994 
 C                     2.02058   2.07366   0.77011 
 N                     2.42056   3.12411   1.06371 
 C                     2.68792  -0.15094  -0.067 
 C                     3.66224   0.30263  -0.96595 
 C                     4.68091  -0.55138  -1.39371 
 C                     4.73863  -1.86744  -0.92611 
 C                     3.77399  -2.32335  -0.02471 
 C                     2.7547   -1.46842   0.40342 
 C                    -1.48015  -0.58957   1.67863 
 O                    -0.71569  -0.70914   2.5822 
 O                    -2.70954  -1.33562   1.4887 
 H                    -4.87915  -2.24924   0.62672 
 H                    -5.79173  -1.80104  -0.9387 
 H                    -1.5399    1.38687  -1.27765 
 H                    -0.56015   3.38627  -0.11468 
 H                    -2.12587   2.89069   0.55431 
 H                    -0.63106   2.52778   1.42774 
 H                     0.3992   -0.125    -1.24607 
 H                     0.80041   1.56385  -1.50915 
 H                     1.07572   0.29647   1.26271 
 H                     3.63686   1.32941  -1.32082 
 H                     5.43299  -0.18563  -2.08665 
 H                     5.5339   -2.5293   -1.25603 
 H                     3.81677  -3.34073   0.35311 
 H                     2.01365  -1.82555   1.1141 
 
                          Input orientation:                          
 ---------------------------------------------------------------------
 Center     Atomic      Atomic             Coordinates (Angstroms)
 Number     Number       Type             X           Y           Z
 ---------------------------------------------------------------------
      1          6           0       -4.941913   -1.659982   -0.281018
      2          6           0       -3.970081   -0.767278   -0.575228
      3          6           0       -4.020681    0.031161   -1.771725
      4          7           0       -4.052001    0.679629   -2.736191
      5          6           0       -2.833196   -0.573847    0.296022
      6          6           0       -1.700214    0.163359    0.404439
      7          6           0       -0.992735    1.257587   -0.336163
      8          6           0       -1.079746    2.594432    0.432765
      9          6           0        0.446860    0.852113   -0.755172
     10          6           0        1.526270    0.745097    0.369939
     11          6           0        2.020581    2.073657    0.770106
     12          7           0        2.420564    3.124110    1.063708
     13          6           0        2.687916   -0.150943   -0.066998
     14          6           0        3.662241    0.302633   -0.965952
     15          6           0        4.680907   -0.551379   -1.393705
     16          6           0        4.738628   -1.867441   -0.926111
     17          6           0        3.773986   -2.323352   -0.024713
     18          6           0        2.754701   -1.468418    0.403421
     19          6           0       -1.480152   -0.589565    1.678634
     20          8           0       -0.715686   -0.709138    2.582201
     21          8           0       -2.709540   -1.335616    1.488700
     22          1           0       -4.879154   -2.249237    0.626721
     23          1           0       -5.791729   -1.801042   -0.938701
     24          1           0       -1.539900    1.386869   -1.277652
     25          1           0       -0.560147    3.386274   -0.114684
     26          1           0       -2.125867    2.890691    0.554309
     27          1           0       -0.631055    2.527777    1.427738
     28          1           0        0.399204   -0.124998   -1.246074
     29          1           0        0.800414    1.563845   -1.509154
     30          1           0        1.075717    0.296466    1.262710
     31          1           0        3.636855    1.329412   -1.320821
     32          1           0        5.432991   -0.185625   -2.086646
     33          1           0        5.533898   -2.529299   -1.256031
     34          1           0        3.816770   -3.340733    0.353114
     35          1           0        2.013653   -1.825549    1.114099
 ---------------------------------------------------------------------
                    Distance matrix (angstroms):
                    1          2          3          4          5
     1  C    0.000000
     2  C    1.352012   0.000000
     3  C    2.435332   1.439330   0.000000
     4  N    3.506223   2.601925   1.162620   0.000000
     5  C    2.441178   1.445337   2.460027   3.500143   0.000000
     6  C    3.781935   2.641615   3.183981   3.957397   1.356051
     7  C    4.910321   3.608576   3.568391   3.931066   2.672285
     8  C    5.790152   4.546557   4.480986   4.747952   3.623710
     9  C    5.964421   4.707884   4.654704   4.918733   3.727887
    10  C    6.931489   5.778451   5.988747   6.385095   4.555219
    11  C    7.970022   6.765269   6.865096   7.149384   5.549161
    12  N    8.882674   7.659592   7.687370   7.893593   6.470411
    13  C    7.780572   6.705751   6.924199   7.296638   5.549172
    14  C    8.851692   7.716846   7.729829   7.923724   6.674691
    15  C    9.750166   8.692302   8.729255   8.920837   7.701781
    16  C    9.704229   8.784935   9.002513   9.329476   7.778143
    17  C    8.744864   7.918018   8.327822   8.809999   6.842404
    18  C    7.729361   6.831694   7.272262   7.797593   5.660069
    19  C    4.119444   3.363216   4.329499   5.264593   1.934578
    20  O    5.192603   4.534735   5.516131   6.430005   3.119097
    21  O    2.867160   2.484305   3.770616   4.869612   1.420586
    22  H    1.084043   2.113598   3.419025   4.535594   2.665002
    23  H    1.083804   2.125837   2.680953   3.522975   3.432705
    24  H    4.674428   3.322579   2.869900   2.989678   2.827273
    25  H    6.685225   5.393676   5.096848   5.137243   4.584538
    26  H    5.416319   4.249437   4.144595   4.407514   3.545427
    27  H    6.248253   5.100819   5.287648   5.697089   3.968662
    28  H    5.640482   4.466902   4.453771   4.762468   3.609423
    29  H    6.698933   5.391101   5.065671   5.082656   4.586012
    30  H    6.513268   5.474454   5.937294   6.513948   4.119652
    31  H    9.144010   7.925749   7.779886   7.844998   6.935282
    32  H   10.633563   9.541513   9.461400   9.546499   8.611485
    33  H   10.556940   9.689883   9.905144  10.216533   8.731605
    34  H    8.941005   8.253456   8.792625   9.360805   7.202844
    35  H    7.096031   6.307047   6.941797   7.608732   5.072273
                    6          7          8          9         10
     6  C    0.000000
     7  C    1.498784   0.000000
     8  C    2.509163   1.544660   0.000000
     9  C    2.535549   1.553194   2.603343   0.000000
    10  C    3.278690   2.665823   3.196139   1.562835   0.000000
    11  C    4.198484   3.312080   3.161809   2.509032   1.472939
    12  N    5.116785   4.134508   3.595945   3.516504   2.634536
    13  C    4.424559   3.950139   4.688510   2.549909   1.530759
    14  C    5.536542   4.793472   5.449330   3.268797   2.557880
    15  C    6.668049   6.048220   6.813020   4.506070   3.839665
    16  C    6.881366   6.554568   7.457099   5.083745   4.338703
    17  C    6.027833   5.970072   6.924782   4.656921   3.824050
    18  C    4.744361   4.692693   5.586644   3.471791   2.531761
    19  C    1.496294   2.776500   3.442434   3.422751   3.540138
    20  O    2.544247   3.530101   3.958054   3.863557   3.469189
    21  O    2.107436   3.605863   4.383663   4.447919   4.850060
    22  H    3.996960   5.322519   6.159079   6.316203   7.075410
    23  H    4.733222   5.722640   6.588163   6.781807   7.858020
    24  H    2.086171   1.096588   2.143706   2.122773   3.539467
    25  H    3.457806   2.183459   1.093937   2.801118   3.400560
    26  H    2.764413   2.178063   1.094034   3.534044   4.239772
    27  H    2.789393   2.203529   1.093498   2.955477   2.991812
    28  H    2.686056   2.162631   3.521519   1.094533   2.153797
    29  H    3.446207   2.164506   2.892777   1.095469   2.174444
    30  H    2.908632   2.785434   3.258140   2.185418   1.096042
    31  H    5.728918   4.733689   5.188609   3.274728   2.766706
    32  H    7.563723   6.814470   7.516109   5.264145   4.707815
    33  H    7.895565   7.601553   8.534925   6.128847   5.424623
    34  H    6.535932   6.689618   7.694699   5.492226   4.684088
    35  H    4.272257   4.543936   5.437790   3.622001   2.720209
                   11         12         13         14         15
    11  C    0.000000
    12  N    1.161740   0.000000
    13  C    2.468790   3.475046   0.000000
    14  C    2.974134   3.690801   1.401128   0.000000
    15  C    4.318591   4.965607   2.427450   1.396420   0.000000
    16  C    5.079093   5.852212   2.808890   2.422688   1.397854
    17  C    4.799985   5.717627   2.429135   2.791812   2.415892
    18  C    3.635889   4.651767   1.400534   2.415664   2.789425
    19  C    4.491470   5.420803   4.540089   5.850988   6.884720
    20  O    4.302882   5.180316   4.349062   5.725322   6.704919
    21  O    5.874825   6.810855   5.740747   7.022020   7.971323
    22  H    8.143360   9.074673   7.883187   9.055610   9.917641
    23  H    8.886253   9.783073   8.682573   9.685233  10.556741
    24  H    4.164375   4.917850   4.658860   5.323063   6.516802
    25  H    3.027536   3.215894   4.802509   5.297363   6.679046
    26  H    4.231683   4.580830   5.728007   6.520079   7.872406
    27  H    2.769455   3.130577   4.519441   5.395684   6.757121
    28  H    3.395280   4.469641   2.574703   3.302839   4.305412
    29  H    2.635098   3.417445   2.929672   3.174237   4.421055
    30  H    2.072157   3.137481   2.137167   3.414246   4.557716
    31  H    2.745582   3.222776   2.159632   1.086670   2.152378
    32  H    4.990985   5.473006   3.408169   2.151722   1.086082
    33  H    6.134805   6.858212   3.894867   3.406917   2.158406
    34  H    5.719772   6.651957   3.409628   3.877877   3.402735
    35  H    3.914356   4.966613   2.157296   3.402001   3.876446
                   16         17         18         19         20
    16  C    0.000000
    17  C    1.396749   0.000000
    18  C    2.421330   1.397552   0.000000
    19  C    6.862280   5.789074   4.509161   0.000000
    20  O    6.587827   5.436804   4.167394   1.189596   0.000000
    21  O    7.847889   6.730687   5.572557   1.450538   2.358744
    22  H    9.749810   8.677943   7.676932   3.926098   4.850801
    23  H   10.530574   9.623465   8.657563   5.187274   6.273374
    24  H    7.080539   6.600983   5.424230   3.556612   4.468897
    25  H    7.505795   7.168866   5.901244   4.457544   4.906096
    26  H    8.482497   7.894921   6.545574   3.713925   4.365745
    27  H    7.327485   6.711740   5.336866   3.240638   3.437669
    28  H    4.687119   4.208757   3.173953   3.507381   4.029875
    29  H    5.255777   5.114293   4.083112   4.472153   4.919776
    30  H    4.784386   3.975118   2.583056   2.736880   2.441602
    31  H    3.404346   3.878323   3.402802   6.234017   6.191436
    32  H    2.158121   3.402020   3.875465   7.882388   7.738115
    33  H    1.085982   2.157742   3.406345   7.846765   7.556607
    34  H    2.157969   1.086116   2.153157   6.114189   5.695373
    35  H    3.404365   2.154872   1.087087   3.748737   3.294084
                   21         22         23         24         25
    21  O    0.000000
    22  H    2.506977   0.000000
    23  H    3.950796   1.866606   0.000000
    24  H    4.053725   5.291363   5.325008   0.000000
    25  H    5.430191   7.138802   7.413279   2.511977   0.000000
    26  H    4.367543   5.831354   6.138402   2.441499   1.773311
    27  H    4.387439   6.442658   7.139416   3.073566   1.766667
    28  H    4.313800   5.990060   6.421157   2.459037   3.811749
    29  H    5.451035   7.166523   7.423222   2.358386   2.667756
    30  H    4.128309   6.507348   7.510497   3.805768   3.757683
    31  H    7.434549   9.440448   9.942030   5.177254   4.827036
    32  H    8.966961  10.860994  11.398320   7.193637   7.250159
    33  H    8.769988  10.585596  11.353452   8.085509   8.569368
    34  H    6.921183   8.768427   9.816450   7.328269   8.039208
    35  H    4.763288   6.922993   8.070847   5.354236   5.941166
                   26         27         28         29         30
    26  H    0.000000
    27  H    1.768911   0.000000
    28  H    4.325707   3.904858   0.000000
    29  H    3.818576   3.406406   1.755668   0.000000
    30  H    4.181145   2.814081   2.632356   3.060273   0.000000
    31  H    6.258008   5.215909   3.550110   2.852337   3.781671
    32  H    8.577569   7.515723   5.103846   4.985470   5.516923
    33  H    9.556444   8.413280   5.669731   6.262888   5.848451
    34  H    8.613133   7.441598   4.957632   6.051556   4.644346
    35  H    6.300152   5.103361   3.326971   4.454368   2.324813
                   31         32         33         34         35
    31  H    0.000000
    32  H    2.471423   0.000000
    33  H    4.300305   2.488556   0.000000
    34  H    4.964341   4.303406   2.489237   0.000000
    35  H    4.303185   4.962458   4.301733   2.475098   0.000000
 Stoichiometry    C17H14N2O2
 Framework group  C1[X(C17H14N2O2)]
 Deg. of freedom    99
 Full point group                 C1      NOp   1
 Largest Abelian subgroup         C1      NOp   1
 Largest concise Abelian subgroup C1      NOp   1
                         Standard orientation:                         
 ---------------------------------------------------------------------
 Center     Atomic      Atomic             Coordinates (Angstroms)
 Number     Number       Type             X           Y           Z
 ---------------------------------------------------------------------
      1          6           0        4.941913   -1.659982    0.281018
      2          6           0        3.970081   -0.767278    0.575228
      3          6           0        4.020681    0.031161    1.771725
      4          7           0        4.052001    0.679629    2.736191
      5          6           0        2.833196   -0.573847   -0.296022
      6          6           0        1.700214    0.163359   -0.404439
      7          6           0        0.992735    1.257587    0.336163
      8          6           0        1.079746    2.594432   -0.432765
      9          6           0       -0.446860    0.852113    0.755172
     10          6           0       -1.526270    0.745097   -0.369939
     11          6           0       -2.020581    2.073657   -0.770106
     12          7           0       -2.420564    3.124110   -1.063708
     13          6           0       -2.687916   -0.150943    0.066998
     14          6           0       -3.662241    0.302633    0.965952
     15          6           0       -4.680907   -0.551379    1.393705
     16          6           0       -4.738628   -1.867441    0.926111
     17          6           0       -3.773986   -2.323352    0.024713
     18          6           0       -2.754701   -1.468418   -0.403421
     19          6           0        1.480152   -0.589565   -1.678634
     20          8           0        0.715686   -0.709138   -2.582201
     21          8           0        2.709540   -1.335616   -1.488700
     22          1           0        4.879154   -2.249237   -0.626721
     23          1           0        5.791729   -1.801042    0.938701
     24          1           0        1.539900    1.386869    1.277652
     25          1           0        0.560147    3.386274    0.114684
     26          1           0        2.125867    2.890691   -0.554309
     27          1           0        0.631055    2.527777   -1.427738
     28          1           0       -0.399204   -0.124998    1.246074
     29          1           0       -0.800414    1.563845    1.509154
     30          1           0       -1.075717    0.296466   -1.262710
     31          1           0       -3.636855    1.329412    1.320821
     32          1           0       -5.432991   -0.185625    2.086646
     33          1           0       -5.533898   -2.529299    1.256031
     34          1           0       -3.816770   -3.340733   -0.353114
     35          1           0       -2.013653   -1.825549   -1.114099
 ---------------------------------------------------------------------
 Rotational constants (GHZ):           0.4942708           0.1681035           0.1592720
 Standard basis: 6-31+G(d,p) (6D, 7F)
 There are   469 symmetry adapted cartesian basis functions of A   symmetry.
 There are   469 symmetry adapted basis functions of A   symmetry.
   469 basis functions,   770 primitive gaussians,   469 cartesian basis functions
    73 alpha electrons       73 beta electrons
       nuclear repulsion energy      1495.8204865716 Hartrees.
 NAtoms=   35 NActive=   35 NUniq=   35 SFac= 1.00D+00 NAtFMM=   60 NAOKFM=F Big=F
 Integral buffers will be    131072 words long.
 Regular integral format.
 Two-electron integral symmetry is turned on.
 One-electron integrals computed using PRISM.
 NBasis=   469 RedAO= T EigKep=  1.67D-06  NBF=   469
 NBsUse=   468 1.00D-06 EigRej=  7.18D-07 NBFU=   468
 ExpMin= 4.38D-02 ExpMax= 5.48D+03 ExpMxC= 8.25D+02 IAcc=3 IRadAn=         5 AccDes= 0.00D+00
 Harris functional with IExCor=  402 and IRadAn=       5 diagonalized for initial guess.
 HarFok:  IExCor=  402 AccDes= 0.00D+00 IRadAn=         5 IDoV= 1 UseB2=F ITyADJ=14
 ICtDFT=  3500011 ScaDFX=  1.000000  1.000000  1.000000  1.000000
 FoFCou: FMM=F IPFlag=           0 FMFlag=      100000 FMFlg1=           0
         NFxFlg=           0 DoJE=T BraDBF=F KetDBF=T FulRan=T
         wScrn=  0.000000 ICntrl=       500 IOpCl=  0 I1Cent=   200000004 NGrid=           0
         NMat0=    1 NMatS0=      1 NMatT0=    0 NMatD0=    1 NMtDS0=    0 NMtDT0=    0
 Petite list used in FoFCou.
 Requested convergence on RMS density matrix=1.00D-08 within 128 cycles.
 Requested convergence on MAX density matrix=1.00D-06.
 Requested convergence on             energy=1.00D-06.
 No special actions if energy rises.
 SCF Done:  E(RB3LYP) =  -916.142727104     A.U. after   17 cycles
            NFock= 17  Conv=0.35D-08     -V/T= 2.0096
 DoSCS=F DFT=T ScalE2(SS,OS)=  1.000000  1.000000
 ExpMin= 4.38D-02 ExpMax= 5.48D+03 ExpMxC= 8.25D+02 IAcc=3 IRadAn=         5 AccDes= 0.00D+00
 HarFok:  IExCor=  205 AccDes= 0.00D+00 IRadAn=         5 IDoV=-2 UseB2=F ITyADJ=14
 ICtDFT= 12500011 ScaDFX=  1.000000  1.000000  1.000000  1.000000
 GSVD:  LWork=        -609 too small for GESVD, short by        2520 words or        2520 for optimal perf.
 Range of M.O.s used for correlation:    22   468
 NBasis=   469 NAE=    73 NBE=    73 NFC=    21 NFV=     0
 NROrb=    447 NOA=    52 NOB=    52 NVA=   395 NVB=   395

 **** Warning!!: The largest alpha MO coefficient is  0.14596321D+03

 Orbital symmetries:
       Occupied  (A) (A) (A) (A) (A) (A) (A) (A) (A) (A) (A) (A)
                 (A) (A) (A) (A) (A) (A) (A) (A) (A) (A) (A) (A)
                 (A) (A) (A) (A) (A) (A) (A) (A) (A) (A) (A) (A)
                 (A) (A) (A) (A) (A) (A) (A) (A) (A) (A) (A) (A)
                 (A) (A) (A) (A) (A) (A) (A) (A) (A) (A) (A) (A)
                 (A) (A) (A) (A) (A) (A) (A) (A) (A) (A) (A) (A)
                 (A)
       Virtual   (A) (A) (A) (A) (A) (A) (A) (A) (A) (A) (A) (A)
                 (A) (A) (A) (A) (A) (A) (A) (A) (A) (A) (A) (A)
                 (A) (A) (A) (A) (A) (A) (A) (A) (A) (A) (A) (A)
                 (A) (A) (A) (A) (A) (A) (A) (A) (A) (A) (A) (A)
                 (A) (A) (A) (A) (A) (A) (A) (A) (A) (A) (A) (A)
                 (A) (A) (A) (A) (A) (A) (A) (A) (A) (A) (A) (A)
                 (A) (A) (A) (A) (A) (A) (A) (A) (A) (A) (A) (A)
                 (A) (A) (A) (A) (A) (A) (A) (A) (A) (A) (A) (A)
                 (A) (A) (A) (A) (A) (A) (A) (A) (A) (A) (A) (A)
                 (A) (A) (A) (A) (A) (A) (A) (A) (A) (A) (A) (A)
                 (A) (A) (A) (A) (A) (A) (A) (A) (A) (A) (A) (A)
                 (A) (A) (A) (A) (A) (A) (A) (A) (A) (A) (A) (A)
                 (A) (A) (A) (A) (A) (A) (A) (A) (A) (A) (A) (A)
                 (A) (A) (A) (A) (A) (A) (A) (A) (A) (A) (A) (A)
                 (A) (A) (A) (A) (A) (A) (A) (A) (A) (A) (A) (A)
                 (A) (A) (A) (A) (A) (A) (A) (A) (A) (A) (A) (A)
                 (A) (A) (A) (A) (A) (A) (A) (A) (A) (A) (A) (A)
                 (A) (A) (A) (A) (A) (A) (A) (A) (A) (A) (A) (A)
                 (A) (A) (A) (A) (A) (A) (A) (A) (A) (A) (A) (A)
                 (A) (A) (A) (A) (A) (A) (A) (A) (A) (A) (A) (A)
                 (A) (A) (A) (A) (A) (A) (A) (A) (A) (A) (A) (A)
                 (A) (A) (A) (A) (A) (A) (A) (A) (A) (A) (A) (A)
                 (A) (A) (A) (A) (A) (A) (A) (A) (A) (A) (A) (A)
                 (A) (A) (A) (A) (A) (A) (A) (A) (A) (A) (A) (A)
                 (A) (A) (A) (A) (A) (A) (A) (A) (A) (A) (A) (A)
                 (A) (A) (A) (A) (A) (A) (A) (A) (A) (A) (A) (A)
                 (A) (A) (A) (A) (A) (A) (A) (A) (A) (A) (A) (A)
                 (A) (A) (A) (A) (A) (A) (A) (A) (A) (A) (A) (A)
                 (A) (A) (A) (A) (A) (A) (A) (A) (A) (A) (A) (A)
                 (A) (A) (A) (A) (A) (A) (A) (A) (A) (A) (A) (A)
                 (A) (A) (A) (A) (A) (A) (A) (A) (A) (A) (A) (A)
                 (A) (A) (A) (A) (A) (A) (A) (A) (A) (A) (A) (A)
                 (A) (A) (A) (A) (A) (A) (A) (A) (A) (A) (A)
    24 initial guesses have been made.
 Convergence on wavefunction:    0.001000000000000
 Iteration     1 Dimension    24 NMult     0 NNew     24
 CISAX will form    24 AO SS matrices at one time.
 New state      1 was old state      6
 New state      2 was old state      1
 New state      3 was old state      2
 New state      5 was old state      3
 New state      6 was old state     12
 New state      7 was old state      5
 New state      9 was old state      7
 New state     10 was old state     24
 New state     11 was old state     20
 New state     12 was old state     10
 Vector   6 SDiff=5.86D+00 TDiff=6.67D+01 assumed to be singlet.
 Vector  12 SDiff=3.02D+00 TDiff=4.56D+01 assumed to be singlet.
 Iteration     2 Dimension    36 NMult    24 NNew     12
 New state      4 was old state      5
 New state      5 was old state      4
 New state      6 was old state      7
 Iteration     3 Dimension    48 NMult    36 NNew     12
 Iteration     4 Dimension    60 NMult    48 NNew     12
 Iteration     5 Dimension    72 NMult    60 NNew     12
 Iteration     6 Dimension    82 NMult    72 NNew     10
 Iteration     7 Dimension    84 NMult    82 NNew      2
 ***********************************************************************
 Excited states from <AA,BB:AA,BB> singles matrix:
 ***********************************************************************
 
 Ground to excited state transition densities written to RWF  633
 Ground to excited state transition electric dipole moments (Au):
       state          X           Y           Z        Dip. S.      Osc.
         1        -0.0000     -0.0000     -0.0000      0.0000      0.0000
         2         0.5282     -0.1716      0.0912      0.3168      0.0254
         3        -0.0000      0.0000     -0.0000      0.0000      0.0000
         4        -0.2664      0.1233     -0.0750      0.0918      0.0077
         5        -0.0000      0.0000     -0.0000      0.0000      0.0000
         6         1.1482     -0.5211      0.3026      1.6815      0.1426
 Ground to excited state transition velocity dipole moments (Au):
       state          X           Y           Z        Dip. S.      Osc.
         1        -0.0000      0.0000     -0.0000      0.0000      0.0000
         2        -0.0609      0.0210     -0.0088      0.0042      0.0234
         3         0.0000     -0.0000      0.0000      0.0000      0.0000
         4         0.0319     -0.0155      0.0076      0.0013      0.0070
         5         0.0000     -0.0000      0.0000      0.0000      0.0000
         6        -0.1384      0.0664     -0.0311      0.0245      0.1286
 Ground to excited state transition magnetic dipole moments (Au):
       state          X           Y           Z
         1        -0.0000      0.0000     -0.0000
         2        -0.0439     -0.0084      0.2015
         3        -0.0000     -0.0000     -0.0000
         4         0.0367      0.0373     -0.1355
         5         0.0000      0.0000     -0.0000
         6        -0.1495     -0.0542      0.4690
 Ground to excited state transition velocity quadrupole moments (Au):
       state          XX          YY          ZZ          XY          XZ          YZ
         1         0.0000      0.0000     -0.0000     -0.0000     -0.0000      0.0000
         2        -0.3800      0.0149     -0.0031      0.1955     -0.0862     -0.0035
         3         0.0000     -0.0000      0.0000      0.0000      0.0000      0.0000
         4         0.2985     -0.0034     -0.0048     -0.1092      0.0488     -0.0024
         5         0.0000      0.0000     -0.0000     -0.0000      0.0000     -0.0000
         6        -1.2245      0.0123      0.0200      0.4840     -0.2224      0.0118
 <0|del|b> * <b|rxdel|0> + <0|del|b> * <b|delr+rdel|0>
 Rotatory Strengths (R) in cgs (10**-40 erg-esu-cm/Gauss)
       state          XX          YY          ZZ    R(velocity)    E-M Angle
         1         0.0000     -0.0000      0.0000      0.0000       90.00
         2        -5.4190      8.3375      1.3949      1.4378       86.87
         3         0.0000     -0.0000     -0.0000      0.0000       90.00
         4        -4.7477      2.5042     -0.2605     -0.8347       94.86
         5        -0.0000      0.0000      0.0000      0.0000       90.00
         6       -51.4763     54.2871     11.0219      4.6109       88.16
 1/2[<0|r|b>*<b|rxdel|0> + (<0|rxdel|b>*<b|r|0>)*]
 Rotatory Strengths (R) in cgs (10**-40 erg-esu-cm/Gauss)
       state          XX          YY          ZZ     R(length)
         1        -0.0000      0.0000     -0.0000      0.0000
         2        16.4079     -1.0183    -12.9993      0.7968
         3        -0.0000      0.0000     -0.0000     -0.0000
         4         6.9075     -3.2501     -7.1834     -1.1753
         5         0.0000     -0.0000     -0.0000     -0.0000
         6       121.4171    -19.9633   -100.3654      0.3628
  1/2[<0|del|b>*<b|r|0> + (<0|r|b>*<b|del|0>)*] (Au)
       state          X           Y           Z        Dip. S.   Osc.(frdel)
         1         0.0000     -0.0000      0.0000      0.0000      0.0000
         2        -0.0322     -0.0036     -0.0008      0.0366      0.0244
         3        -0.0000     -0.0000     -0.0000      0.0000      0.0000
         4        -0.0085     -0.0019     -0.0006      0.0110      0.0073
         5        -0.0000     -0.0000     -0.0000      0.0000      0.0000
         6        -0.1589     -0.0346     -0.0094      0.2030      0.1353

 Excitation energies and oscillator strengths:
 
 Excited State   1:      Triplet-A      1.9167 eV  646.86 nm  f=0.0000  <S**2>=2.000
      68 -> 74         0.13919
      71 -> 74         0.66201
      73 -> 74         0.19621
      71 <- 74         0.12867
 This state for optimization and/or second-order correction.
 Total Energy, E(TD-HF/TD-DFT) =  -916.072289408    
 Copying the excited state density for this state as the 1-particle RhoCI density.
 
 Excited State   2:      Singlet-A      3.2753 eV  378.55 nm  f=0.0254  <S**2>=0.000
      73 -> 74         0.70163
 
 Excited State   3:      Triplet-A      3.2903 eV  376.81 nm  f=0.0000  <S**2>=2.000
      71 -> 74        -0.18424
      73 -> 74         0.67534
 
 Excited State   4:      Singlet-A      3.4281 eV  361.67 nm  f=0.0077  <S**2>=0.000
      71 -> 74        -0.11532
      72 -> 74         0.69522
 
 Excited State   5:      Triplet-A      3.4293 eV  361.54 nm  f=0.0000  <S**2>=2.000
      72 -> 74         0.70267
 
 Excited State   6:      Singlet-A      3.4609 eV  358.24 nm  f=0.1426  <S**2>=0.000
      68 -> 74        -0.16062
      71 -> 74         0.66750
      72 -> 74         0.12005
 SavETr:  write IOETrn=   770 NScale= 10 NData=  16 NLR=1 NState=    6 LETran=     118.

 **********************************************************************

            Population analysis using the SCF Density.

 **********************************************************************

 Orbital symmetries:
       Occupied  (A) (A) (A) (A) (A) (A) (A) (A) (A) (A) (A) (A)
                 (A) (A) (A) (A) (A) (A) (A) (A) (A) (A) (A) (A)
                 (A) (A) (A) (A) (A) (A) (A) (A) (A) (A) (A) (A)
                 (A) (A) (A) (A) (A) (A) (A) (A) (A) (A) (A) (A)
                 (A) (A) (A) (A) (A) (A) (A) (A) (A) (A) (A) (A)
                 (A) (A) (A) (A) (A) (A) (A) (A) (A) (A) (A) (A)
                 (A)
       Virtual   (A) (A) (A) (A) (A) (A) (A) (A) (A) (A) (A) (A)
                 (A) (A) (A) (A) (A) (A) (A) (A) (A) (A) (A) (A)
                 (A) (A) (A) (A) (A) (A) (A) (A) (A) (A) (A) (A)
                 (A) (A) (A) (A) (A) (A) (A) (A) (A) (A) (A) (A)
                 (A) (A) (A) (A) (A) (A) (A) (A) (A) (A) (A) (A)
                 (A) (A) (A) (A) (A) (A) (A) (A) (A) (A) (A) (A)
                 (A) (A) (A) (A) (A) (A) (A) (A) (A) (A) (A) (A)
                 (A) (A) (A) (A) (A) (A) (A) (A) (A) (A) (A) (A)
                 (A) (A) (A) (A) (A) (A) (A) (A) (A) (A) (A) (A)
                 (A) (A) (A) (A) (A) (A) (A) (A) (A) (A) (A) (A)
                 (A) (A) (A) (A) (A) (A) (A) (A) (A) (A) (A) (A)
                 (A) (A) (A) (A) (A) (A) (A) (A) (A) (A) (A) (A)
                 (A) (A) (A) (A) (A) (A) (A) (A) (A) (A) (A) (A)
                 (A) (A) (A) (A) (A) (A) (A) (A) (A) (A) (A) (A)
                 (A) (A) (A) (A) (A) (A) (A) (A) (A) (A) (A) (A)
                 (A) (A) (A) (A) (A) (A) (A) (A) (A) (A) (A) (A)
                 (A) (A) (A) (A) (A) (A) (A) (A) (A) (A) (A) (A)
                 (A) (A) (A) (A) (A) (A) (A) (A) (A) (A) (A) (A)
                 (A) (A) (A) (A) (A) (A) (A) (A) (A) (A) (A) (A)
                 (A) (A) (A) (A) (A) (A) (A) (A) (A) (A) (A) (A)
                 (A) (A) (A) (A) (A) (A) (A) (A) (A) (A) (A) (A)
                 (A) (A) (A) (A) (A) (A) (A) (A) (A) (A) (A) (A)
                 (A) (A) (A) (A) (A) (A) (A) (A) (A) (A) (A) (A)
                 (A) (A) (A) (A) (A) (A) (A) (A) (A) (A) (A) (A)
                 (A) (A) (A) (A) (A) (A) (A) (A) (A) (A) (A) (A)
                 (A) (A) (A) (A) (A) (A) (A) (A) (A) (A) (A) (A)
                 (A) (A) (A) (A) (A) (A) (A) (A) (A) (A) (A) (A)
                 (A) (A) (A) (A) (A) (A) (A) (A) (A) (A) (A) (A)
                 (A) (A) (A) (A) (A) (A) (A) (A) (A) (A) (A) (A)
                 (A) (A) (A) (A) (A) (A) (A) (A) (A) (A) (A) (A)
                 (A) (A) (A) (A) (A) (A) (A) (A) (A) (A) (A) (A)
                 (A) (A) (A) (A) (A) (A) (A) (A) (A) (A) (A) (A)
                 (A) (A) (A) (A) (A) (A) (A) (A) (A) (A) (A)
 The electronic state is 1-A.
 Alpha  occ. eigenvalues --  -19.22216 -19.20834 -14.38199 -14.34455 -10.36749
 Alpha  occ. eigenvalues --  -10.31929 -10.29572 -10.27323 -10.26812 -10.25425
 Alpha  occ. eigenvalues --  -10.24975 -10.24016 -10.23693 -10.22601 -10.22473
 Alpha  occ. eigenvalues --  -10.21011 -10.20942 -10.20932 -10.20880 -10.20805
 Alpha  occ. eigenvalues --  -10.20010  -1.14808  -1.08999  -0.94966  -0.91621
 Alpha  occ. eigenvalues --   -0.88043  -0.87713  -0.85807  -0.82130  -0.78255
 Alpha  occ. eigenvalues --   -0.76294  -0.74051  -0.71715  -0.69587  -0.66943
 Alpha  occ. eigenvalues --   -0.63296  -0.62558  -0.61139  -0.56278  -0.55379
 Alpha  occ. eigenvalues --   -0.54327  -0.52926  -0.51375  -0.51060  -0.50158
 Alpha  occ. eigenvalues --   -0.49080  -0.47779  -0.46689  -0.45694  -0.45249
 Alpha  occ. eigenvalues --   -0.44503  -0.43826  -0.43526  -0.43204  -0.42840
 Alpha  occ. eigenvalues --   -0.41269  -0.40071  -0.39103  -0.39004  -0.38406
 Alpha  occ. eigenvalues --   -0.37691  -0.37588  -0.37104  -0.36669  -0.36261
 Alpha  occ. eigenvalues --   -0.35751  -0.33417  -0.33122  -0.32856  -0.32170
 Alpha  occ. eigenvalues --   -0.27380  -0.26956  -0.26472
 Alpha virt. eigenvalues --   -0.12832  -0.05613  -0.03045  -0.02872  -0.02368
 Alpha virt. eigenvalues --   -0.01018  -0.00114   0.00332   0.00834   0.00974
 Alpha virt. eigenvalues --    0.01902   0.02072   0.02486   0.02778   0.03203
 Alpha virt. eigenvalues --    0.03341   0.03680   0.04302   0.04471   0.04907
 Alpha virt. eigenvalues --    0.05079   0.05527   0.06010   0.06741   0.06983
 Alpha virt. eigenvalues --    0.07576   0.07857   0.08150   0.08582   0.08782
 Alpha virt. eigenvalues --    0.09184   0.09590   0.09697   0.10033   0.10683
 Alpha virt. eigenvalues --    0.10788   0.11144   0.11220   0.11378   0.11936
 Alpha virt. eigenvalues --    0.12229   0.12467   0.12978   0.13230   0.13575
 Alpha virt. eigenvalues --    0.13960   0.14390   0.14726   0.15414   0.15492
 Alpha virt. eigenvalues --    0.15638   0.16198   0.16420   0.16879   0.17250
 Alpha virt. eigenvalues --    0.17655   0.17958   0.18369   0.18487   0.18927
 Alpha virt. eigenvalues --    0.19106   0.19210   0.19931   0.20192   0.20401
 Alpha virt. eigenvalues --    0.20757   0.21054   0.21222   0.21308   0.21834
 Alpha virt. eigenvalues --    0.22155   0.22380   0.22478   0.23183   0.23503
 Alpha virt. eigenvalues --    0.23643   0.23839   0.24127   0.24459   0.24619
 Alpha virt. eigenvalues --    0.25207   0.25609   0.25931   0.26105   0.26300
 Alpha virt. eigenvalues --    0.26503   0.26862   0.27404   0.27532   0.27944
 Alpha virt. eigenvalues --    0.28152   0.28455   0.28587   0.29317   0.29370
 Alpha virt. eigenvalues --    0.30078   0.30579   0.31043   0.31575   0.31822
 Alpha virt. eigenvalues --    0.32402   0.32992   0.33122   0.33681   0.34323
 Alpha virt. eigenvalues --    0.34799   0.35424   0.35912   0.36453   0.36889
 Alpha virt. eigenvalues --    0.37612   0.38089   0.38596   0.39292   0.39607
 Alpha virt. eigenvalues --    0.40198   0.40751   0.41343   0.42035   0.42811
 Alpha virt. eigenvalues --    0.44831   0.47355   0.48918   0.50679   0.55922
 Alpha virt. eigenvalues --    0.56785   0.59707   0.62962   0.63942   0.65176
 Alpha virt. eigenvalues --    0.66276   0.66423   0.67040   0.67803   0.68488
 Alpha virt. eigenvalues --    0.69303   0.69485   0.70341   0.70730   0.71189
 Alpha virt. eigenvalues --    0.71606   0.72253   0.72552   0.73351   0.73845
 Alpha virt. eigenvalues --    0.74742   0.74827   0.74933   0.75857   0.76837
 Alpha virt. eigenvalues --    0.77552   0.78181   0.79077   0.79477   0.80591
 Alpha virt. eigenvalues --    0.80784   0.82305   0.82669   0.84145   0.84789
 Alpha virt. eigenvalues --    0.86579   0.87638   0.88297   0.88537   0.88781
 Alpha virt. eigenvalues --    0.90007   0.90272   0.91646   0.91978   0.92027
 Alpha virt. eigenvalues --    0.92920   0.93225   0.96017   0.96025   0.97644
 Alpha virt. eigenvalues --    0.98044   0.98365   0.99557   1.00467   1.00948
 Alpha virt. eigenvalues --    1.01777   1.02066   1.02668   1.03219   1.04371
 Alpha virt. eigenvalues --    1.06559   1.07072   1.07450   1.08945   1.09848
 Alpha virt. eigenvalues --    1.10066   1.11388   1.11894   1.13408   1.14374
 Alpha virt. eigenvalues --    1.15456   1.15672   1.16227   1.16611   1.17448
 Alpha virt. eigenvalues --    1.19095   1.21242   1.22981   1.24487   1.24676
 Alpha virt. eigenvalues --    1.25601   1.26467   1.26677   1.27257   1.28629
 Alpha virt. eigenvalues --    1.28782   1.30584   1.31222   1.31988   1.33204
 Alpha virt. eigenvalues --    1.34577   1.35243   1.35930   1.36967   1.38612
 Alpha virt. eigenvalues --    1.39124   1.40192   1.40824   1.41619   1.42585
 Alpha virt. eigenvalues --    1.43346   1.43680   1.44502   1.45800   1.46929
 Alpha virt. eigenvalues --    1.48042   1.50659   1.51827   1.52512   1.54174
 Alpha virt. eigenvalues --    1.56119   1.56812   1.58549   1.61492   1.63112
 Alpha virt. eigenvalues --    1.65713   1.67599   1.69651   1.70838   1.71863
 Alpha virt. eigenvalues --    1.72141   1.74803   1.74874   1.76662   1.79895
 Alpha virt. eigenvalues --    1.80336   1.81941   1.82901   1.84321   1.84609
 Alpha virt. eigenvalues --    1.85480   1.87497   1.87697   1.88611   1.89423
 Alpha virt. eigenvalues --    1.89974   1.90786   1.91158   1.91884   1.93335
 Alpha virt. eigenvalues --    1.94297   1.94599   1.94925   1.96345   1.97390
 Alpha virt. eigenvalues --    1.98779   1.99621   2.00571   2.01138   2.01971
 Alpha virt. eigenvalues --    2.02480   2.03632   2.04371   2.04728   2.06164
 Alpha virt. eigenvalues --    2.07305   2.07809   2.09339   2.11057   2.11509
 Alpha virt. eigenvalues --    2.12834   2.13388   2.13834   2.16425   2.17420
 Alpha virt. eigenvalues --    2.19937   2.21268   2.22827   2.26416   2.26949
 Alpha virt. eigenvalues --    2.28994   2.29867   2.30825   2.31095   2.33216
 Alpha virt. eigenvalues --    2.33321   2.36681   2.37364   2.37692   2.38137
 Alpha virt. eigenvalues --    2.38835   2.40297   2.41530   2.43169   2.45800
 Alpha virt. eigenvalues --    2.46450   2.47188   2.48177   2.49601   2.50600
 Alpha virt. eigenvalues --    2.51552   2.52578   2.53191   2.53959   2.54714
 Alpha virt. eigenvalues --    2.55609   2.56741   2.58572   2.61090   2.62460
 Alpha virt. eigenvalues --    2.64080   2.65275   2.68138   2.68404   2.71311
 Alpha virt. eigenvalues --    2.72625   2.73180   2.73913   2.75360   2.76887
 Alpha virt. eigenvalues --    2.78255   2.78634   2.79276   2.82236   2.83279
 Alpha virt. eigenvalues --    2.84792   2.85840   2.88284   2.88670   2.90054
 Alpha virt. eigenvalues --    2.92614   2.94353   2.96561   3.02576   3.03768
 Alpha virt. eigenvalues --    3.04936   3.05512   3.11310   3.15846   3.18299
 Alpha virt. eigenvalues --    3.23727   3.25950   3.26182   3.27183   3.27989
 Alpha virt. eigenvalues --    3.28338   3.31024   3.34194   3.38234   3.39569
 Alpha virt. eigenvalues --    3.42444   3.42885   3.47294   3.48477   3.52201
 Alpha virt. eigenvalues --    3.52683   3.56264   3.58494   3.88644   4.21182
 Alpha virt. eigenvalues --    4.24841   4.27667   4.30492   4.30637   4.31350
 Alpha virt. eigenvalues --    4.35724   4.38554   4.40801   4.41455   4.46024
 Alpha virt. eigenvalues --    4.50016   4.50778   4.52472   4.55740   4.69858
 Alpha virt. eigenvalues --    4.75322   4.80894   4.85106   4.90448   4.98693
          Condensed to atoms (all electrons):
               1          2          3          4          5          6
     1  C    6.858918   0.910847  -1.387747  -0.012988  -0.855029  -0.174369
     2  C    0.910847  13.925699  -2.469375  -0.006443  -5.634284  -0.095321
     3  C   -1.387747  -2.469375  10.845547   0.018304   0.118222  -0.528594
     4  N   -0.012988  -0.006443   0.018304   7.241028   0.182793   0.061733
     5  C   -0.855029  -5.634284   0.118222   0.182793  11.263003   0.424219
     6  C   -0.174369  -0.095321  -0.528594   0.061733   0.424219   9.454351
     7  C    0.039805  -0.936841   0.803927  -0.052290   0.256134  -3.067966
     8  C    0.001453   0.088992   0.049974  -0.006595  -0.037535  -0.325292
     9  C    0.025775   0.569537  -0.346165   0.000889  -0.256880   0.123374
    10  C   -0.023020  -0.097643   0.018056  -0.000961  -0.164272   0.782520
    11  C    0.005151  -0.088524   0.025561  -0.000709  -0.040378  -0.540455
    12  N   -0.000077   0.000680  -0.000309   0.000004   0.003541  -0.003612
    13  C    0.013187   0.213111   0.011204  -0.000827   0.236920  -0.387745
    14  C    0.003810   0.048835  -0.016950   0.000290   0.002955  -0.213028
    15  C   -0.000343  -0.001709  -0.001882   0.000033  -0.001821   0.022297
    16  C    0.000085   0.000027   0.000050   0.000005  -0.001744  -0.006268
    17  C    0.000297   0.003744  -0.000279  -0.000023   0.014957   0.019373
    18  C   -0.005717  -0.088579   0.009487   0.000042  -0.067694   0.173864
    19  C   -0.309886  -1.293843  -0.234643   0.024404  -0.025417   0.623006
    20  O   -0.001869   0.043718   0.001401  -0.000142  -0.003344  -0.069540
    21  O    0.110757   0.126265  -0.051654   0.001538   0.081644  -0.288632
    22  H    0.501782  -0.146693  -0.007541   0.000050   0.016053   0.005529
    23  H    0.401539  -0.142327   0.014594   0.000818   0.077637  -0.000375
    24  H   -0.007029  -0.082739  -0.007273   0.004723   0.041707   0.175396
    25  H    0.000177   0.005324  -0.003220   0.000235  -0.003446   0.001679
    26  H    0.001953   0.036043  -0.003962  -0.000157  -0.016992   0.011173
    27  H   -0.000265  -0.010318  -0.002563   0.000085  -0.005717   0.098553
    28  H    0.000451   0.020480   0.007165  -0.000318   0.000002  -0.092861
    29  H    0.000043  -0.000939  -0.001213   0.000056   0.000786   0.053682
    30  H    0.000089  -0.000573  -0.001164   0.000009  -0.005308   0.070925
    31  H   -0.000002   0.000013   0.000051  -0.000001   0.000432   0.001871
    32  H   -0.000000   0.000000   0.000000  -0.000000  -0.000001   0.000082
    33  H    0.000000  -0.000001  -0.000000   0.000000  -0.000005  -0.000009
    34  H   -0.000001  -0.000003   0.000002  -0.000000   0.000031  -0.000050
    35  H    0.000084   0.000502  -0.000112   0.000001  -0.001061   0.004485
               7          8          9         10         11         12
     1  C    0.039805   0.001453   0.025775  -0.023020   0.005151  -0.000077
     2  C   -0.936841   0.088992   0.569537  -0.097643  -0.088524   0.000680
     3  C    0.803927   0.049974  -0.346165   0.018056   0.025561  -0.000309
     4  N   -0.052290  -0.006595   0.000889  -0.000961  -0.000709   0.000004
     5  C    0.256134  -0.037535  -0.256880  -0.164272  -0.040378   0.003541
     6  C   -3.067966  -0.325292   0.123374   0.782520  -0.540455  -0.003612
     7  C   13.135312   0.106643  -3.028422  -1.201580   1.747576  -0.013728
     8  C    0.106643   5.972488  -0.486041   0.130342  -0.117651   0.005558
     9  C   -3.028422  -0.486041   9.978879  -0.625025  -1.538419  -0.051350
    10  C   -1.201580   0.130342  -0.625025  12.190469  -2.053713  -0.012763
    11  C    1.747576  -0.117651  -1.538419  -2.053713   9.839681   0.531601
    12  N   -0.013728   0.005558  -0.051350  -0.012763   0.531601   6.957491
    13  C   -0.111451   0.042886   1.001445  -5.054720  -1.269764   0.101065
    14  C   -0.417404   0.005322   0.672652  -0.728925  -1.378534  -0.061199
    15  C   -0.187607  -0.005281   0.233833  -0.054531  -0.271351  -0.008436
    16  C    0.025005  -0.000566  -0.016186  -0.067153   0.108556  -0.001042
    17  C   -0.019083  -0.006277   0.039841  -0.486946  -0.307163   0.004390
    18  C    0.410066  -0.028920  -0.664237   2.320256   1.694251  -0.004124
    19  C   -1.234055  -0.120672   0.067984   0.424473  -0.149942   0.000807
    20  O    0.028385  -0.006487   0.031847  -0.010111  -0.037177   0.000886
    21  O   -0.060385   0.010688   0.014015  -0.011121  -0.000641   0.000034
    22  H    0.004347   0.000070   0.000131  -0.000025   0.000008  -0.000000
    23  H    0.002108   0.000038  -0.000153   0.000003   0.000003  -0.000000
    24  H    0.104564  -0.020120  -0.004907   0.063644  -0.018297   0.000494
    25  H   -0.083971   0.411424   0.021747  -0.019000   0.014612  -0.001667
    26  H   -0.115768   0.452512   0.024284  -0.019266   0.013666  -0.000488
    27  H   -0.207378   0.452326   0.012019   0.085723  -0.089781   0.005912
    28  H    0.071452   0.009781   0.345270  -0.085776  -0.002855   0.000574
    29  H   -0.048762  -0.007795   0.408839  -0.104418  -0.004204  -0.002032
    30  H   -0.094427  -0.017311   0.069948   0.393748  -0.067240  -0.002548
    31  H    0.010596   0.001871  -0.009778   0.029317  -0.020658   0.002382
    32  H    0.000096  -0.000007  -0.000430   0.001568   0.002135  -0.000075
    33  H   -0.000035  -0.000002  -0.000557   0.003179   0.000347  -0.000003
    34  H    0.000145   0.000013  -0.000845  -0.000826   0.000168   0.000006
    35  H   -0.012909  -0.000268   0.021534  -0.006490   0.006012  -0.000068
              13         14         15         16         17         18
     1  C    0.013187   0.003810  -0.000343   0.000085   0.000297  -0.005717
     2  C    0.213111   0.048835  -0.001709   0.000027   0.003744  -0.088579
     3  C    0.011204  -0.016950  -0.001882   0.000050  -0.000279   0.009487
     4  N   -0.000827   0.000290   0.000033   0.000005  -0.000023   0.000042
     5  C    0.236920   0.002955  -0.001821  -0.001744   0.014957  -0.067694
     6  C   -0.387745  -0.213028   0.022297  -0.006268   0.019373   0.173864
     7  C   -0.111451  -0.417404  -0.187607   0.025005  -0.019083   0.410066
     8  C    0.042886   0.005322  -0.005281  -0.000566  -0.006277  -0.028920
     9  C    1.001445   0.672652   0.233833  -0.016186   0.039841  -0.664237
    10  C   -5.054720  -0.728925  -0.054531  -0.067153  -0.486946   2.320256
    11  C   -1.269764  -1.378534  -0.271351   0.108556  -0.307163   1.694251
    12  N    0.101065  -0.061199  -0.008436  -0.001042   0.004390  -0.004124
    13  C   20.989652  -1.620873  -0.346793  -1.162044   0.576448  -7.081849
    14  C   -1.620873  23.191392  -0.605107   0.283390   1.244258 -14.291996
    15  C   -0.346793  -0.605107   6.516567   0.478901  -0.378850   0.360238
    16  C   -1.162044   0.283390   0.478901   5.405857   0.431357   0.370257
    17  C    0.576448   1.244258  -0.378850   0.431357   7.811395  -3.043555
    18  C   -7.081849 -14.291996   0.360238   0.370257  -3.043555  25.640089
    19  C   -0.408114  -0.183904   0.026430  -0.005648   0.009739   0.254394
    20  O   -0.011074   0.000687   0.000121  -0.000068   0.017355   0.021919
    21  O   -0.001236  -0.000988   0.000213  -0.000003   0.002638   0.006822
    22  H    0.000006   0.000002   0.000000  -0.000000  -0.000002  -0.000010
    23  H   -0.000006   0.000000  -0.000000   0.000000  -0.000000  -0.000001
    24  H   -0.019082   0.004381   0.000579  -0.000054  -0.000523  -0.005362
    25  H    0.006520  -0.000903  -0.000152   0.000004   0.000015   0.000667
    26  H   -0.002052  -0.000733  -0.000034  -0.000004  -0.000009   0.000060
    27  H   -0.005610   0.005335   0.000446  -0.000016  -0.000187  -0.003440
    28  H    0.044268   0.026418   0.000953   0.005548  -0.002691  -0.000483
    29  H    0.088104  -0.108602  -0.013952  -0.003572   0.007120   0.042595
    30  H   -0.237262  -0.169325   0.002091   0.001483   0.032666   0.266936
    31  H    0.203276   0.077466  -0.057397  -0.019950  -0.000581   0.082124
    32  H    0.043398  -0.006516   0.266084  -0.009102  -0.002124   0.015255
    33  H   -0.001281   0.008758   0.005012   0.272290   0.018023   0.004301
    34  H    0.017909  -0.000873   0.003589   0.009775   0.269179   0.011204
    35  H    0.000138   0.016027   0.008885   0.001097   0.070346   0.180230
              19         20         21         22         23         24
     1  C   -0.309886  -0.001869   0.110757   0.501782   0.401539  -0.007029
     2  C   -1.293843   0.043718   0.126265  -0.146693  -0.142327  -0.082739
     3  C   -0.234643   0.001401  -0.051654  -0.007541   0.014594  -0.007273
     4  N    0.024404  -0.000142   0.001538   0.000050   0.000818   0.004723
     5  C   -0.025417  -0.003344   0.081644   0.016053   0.077637   0.041707
     6  C    0.623006  -0.069540  -0.288632   0.005529  -0.000375   0.175396
     7  C   -1.234055   0.028385  -0.060385   0.004347   0.002108   0.104564
     8  C   -0.120672  -0.006487   0.010688   0.000070   0.000038  -0.020120
     9  C    0.067984   0.031847   0.014015   0.000131  -0.000153  -0.004907
    10  C    0.424473  -0.010111  -0.011121  -0.000025   0.000003   0.063644
    11  C   -0.149942  -0.037177  -0.000641   0.000008   0.000003  -0.018297
    12  N    0.000807   0.000886   0.000034  -0.000000  -0.000000   0.000494
    13  C   -0.408114  -0.011074  -0.001236   0.000006  -0.000006  -0.019082
    14  C   -0.183904   0.000687  -0.000988   0.000002   0.000000   0.004381
    15  C    0.026430   0.000121   0.000213   0.000000  -0.000000   0.000579
    16  C   -0.005648  -0.000068  -0.000003  -0.000000   0.000000  -0.000054
    17  C    0.009739   0.017355   0.002638  -0.000002  -0.000000  -0.000523
    18  C    0.254394   0.021919   0.006822  -0.000010  -0.000001  -0.005362
    19  C    7.774482   0.249554  -0.103588  -0.021397  -0.000287   0.045733
    20  O    0.249554   8.178053  -0.032030   0.000040  -0.000005  -0.000444
    21  O   -0.103588  -0.032030   8.587522   0.001546   0.000070   0.000237
    22  H   -0.021397   0.000040   0.001546   0.479838  -0.027033  -0.000001
    23  H   -0.000287  -0.000005   0.000070  -0.027033   0.493893   0.000001
    24  H    0.045733  -0.000444   0.000237  -0.000001   0.000001   0.585672
    25  H    0.004244   0.000069   0.000031  -0.000000   0.000000  -0.003238
    26  H   -0.024844   0.000114   0.000043   0.000000   0.000000  -0.005917
    27  H    0.016073  -0.001469   0.000529  -0.000000  -0.000000   0.004955
    28  H   -0.033406   0.000438  -0.000708  -0.000000   0.000000  -0.003837
    29  H    0.007613  -0.000197   0.000070  -0.000000   0.000000  -0.005576
    30  H    0.031811  -0.000929   0.000923   0.000000  -0.000000  -0.000016
    31  H   -0.000040  -0.000003  -0.000000  -0.000000   0.000000   0.000001
    32  H    0.000013  -0.000000   0.000000   0.000000   0.000000   0.000000
    33  H   -0.000001   0.000000   0.000000   0.000000  -0.000000  -0.000000
    34  H    0.000173  -0.000006   0.000000  -0.000000   0.000000   0.000000
    35  H    0.007282  -0.001417  -0.000030   0.000000  -0.000000   0.000001
              25         26         27         28         29         30
     1  C    0.000177   0.001953  -0.000265   0.000451   0.000043   0.000089
     2  C    0.005324   0.036043  -0.010318   0.020480  -0.000939  -0.000573
     3  C   -0.003220  -0.003962  -0.002563   0.007165  -0.001213  -0.001164
     4  N    0.000235  -0.000157   0.000085  -0.000318   0.000056   0.000009
     5  C   -0.003446  -0.016992  -0.005717   0.000002   0.000786  -0.005308
     6  C    0.001679   0.011173   0.098553  -0.092861   0.053682   0.070925
     7  C   -0.083971  -0.115768  -0.207378   0.071452  -0.048762  -0.094427
     8  C    0.411424   0.452512   0.452326   0.009781  -0.007795  -0.017311
     9  C    0.021747   0.024284   0.012019   0.345270   0.408839   0.069948
    10  C   -0.019000  -0.019266   0.085723  -0.085776  -0.104418   0.393748
    11  C    0.014612   0.013666  -0.089781  -0.002855  -0.004204  -0.067240
    12  N   -0.001667  -0.000488   0.005912   0.000574  -0.002032  -0.002548
    13  C    0.006520  -0.002052  -0.005610   0.044268   0.088104  -0.237262
    14  C   -0.000903  -0.000733   0.005335   0.026418  -0.108602  -0.169325
    15  C   -0.000152  -0.000034   0.000446   0.000953  -0.013952   0.002091
    16  C    0.000004  -0.000004  -0.000016   0.005548  -0.003572   0.001483
    17  C    0.000015  -0.000009  -0.000187  -0.002691   0.007120   0.032666
    18  C    0.000667   0.000060  -0.003440  -0.000483   0.042595   0.266936
    19  C    0.004244  -0.024844   0.016073  -0.033406   0.007613   0.031811
    20  O    0.000069   0.000114  -0.001469   0.000438  -0.000197  -0.000929
    21  O    0.000031   0.000043   0.000529  -0.000708   0.000070   0.000923
    22  H   -0.000000   0.000000  -0.000000  -0.000000  -0.000000   0.000000
    23  H    0.000000   0.000000  -0.000000   0.000000   0.000000  -0.000000
    24  H   -0.003238  -0.005917   0.004955  -0.003837  -0.005576  -0.000016
    25  H    0.526402  -0.024926  -0.025546   0.000052   0.002819   0.000209
    26  H   -0.024926   0.548501  -0.026734  -0.000138   0.000055   0.000017
    27  H   -0.025546  -0.026734   0.523611  -0.000085   0.000031  -0.000130
    28  H    0.000052  -0.000138  -0.000085   0.557855  -0.028314  -0.002290
    29  H    0.002819   0.000055   0.000031  -0.028314   0.546593   0.004290
    30  H    0.000209   0.000017  -0.000130  -0.002290   0.004290   0.533130
    31  H   -0.000000  -0.000000   0.000001   0.000229   0.000017   0.000015
    32  H    0.000000   0.000000   0.000000   0.000000   0.000000   0.000002
    33  H   -0.000000  -0.000000   0.000000  -0.000000  -0.000000  -0.000000
    34  H    0.000000  -0.000000   0.000000   0.000002   0.000000  -0.000006
    35  H   -0.000000   0.000000   0.000001   0.000058  -0.000018   0.004524
              31         32         33         34         35
     1  C   -0.000002  -0.000000   0.000000  -0.000001   0.000084
     2  C    0.000013   0.000000  -0.000001  -0.000003   0.000502
     3  C    0.000051   0.000000  -0.000000   0.000002  -0.000112
     4  N   -0.000001  -0.000000   0.000000  -0.000000   0.000001
     5  C    0.000432  -0.000001  -0.000005   0.000031  -0.001061
     6  C    0.001871   0.000082  -0.000009  -0.000050   0.004485
     7  C    0.010596   0.000096  -0.000035   0.000145  -0.012909
     8  C    0.001871  -0.000007  -0.000002   0.000013  -0.000268
     9  C   -0.009778  -0.000430  -0.000557  -0.000845   0.021534
    10  C    0.029317   0.001568   0.003179  -0.000826  -0.006490
    11  C   -0.020658   0.002135   0.000347   0.000168   0.006012
    12  N    0.002382  -0.000075  -0.000003   0.000006  -0.000068
    13  C    0.203276   0.043398  -0.001281   0.017909   0.000138
    14  C    0.077466  -0.006516   0.008758  -0.000873   0.016027
    15  C   -0.057397   0.266084   0.005012   0.003589   0.008885
    16  C   -0.019950  -0.009102   0.272290   0.009775   0.001097
    17  C   -0.000581  -0.002124   0.018023   0.269179   0.070346
    18  C    0.082124   0.015255   0.004301   0.011204   0.180230
    19  C   -0.000040   0.000013  -0.000001   0.000173   0.007282
    20  O   -0.000003  -0.000000   0.000000  -0.000006  -0.001417
    21  O   -0.000000   0.000000   0.000000   0.000000  -0.000030
    22  H   -0.000000   0.000000   0.000000  -0.000000   0.000000
    23  H    0.000000   0.000000  -0.000000   0.000000  -0.000000
    24  H    0.000001   0.000000  -0.000000   0.000000   0.000001
    25  H   -0.000000   0.000000  -0.000000   0.000000  -0.000000
    26  H   -0.000000   0.000000  -0.000000  -0.000000   0.000000
    27  H    0.000001   0.000000   0.000000   0.000000   0.000001
    28  H    0.000229   0.000000  -0.000000   0.000002   0.000058
    29  H    0.000017   0.000000  -0.000000   0.000000  -0.000018
    30  H    0.000015   0.000002  -0.000000  -0.000006   0.004524
    31  H    0.575681  -0.005817  -0.000157   0.000015  -0.000162
    32  H   -0.005817   0.570217  -0.005554  -0.000166   0.000015
    33  H   -0.000157  -0.005554   0.573275  -0.005579  -0.000156
    34  H    0.000015  -0.000166  -0.005579   0.571289  -0.005809
    35  H   -0.000162   0.000015  -0.000156  -0.005809   0.578276
 Mulliken charges:
               1
     1  C   -0.097862
     2  C    1.102335
     3  C   -0.858901
     4  N   -0.455586
     5  C    0.399892
     6  C   -0.313995
     7  C    0.147903
     8  C   -0.555563
     9  C   -0.634447
    10  C    0.384988
    11  C    0.008129
    12  N   -0.451901
    13  C    0.132246
    14  C    0.213880
    15  C    0.008973
    16  C   -0.100266
    17  C   -0.324848
    18  C   -0.579088
    19  C    0.581471
    20  O   -0.398275
    21  O   -0.394568
    22  H    0.193300
    23  H    0.179484
    24  H    0.152329
    25  H    0.169839
    26  H    0.153601
    27  H    0.173640
    28  H    0.162765
    29  H    0.166880
    30  H    0.185712
    31  H    0.129187
    32  H    0.130929
    33  H    0.128156
    34  H    0.130661
    35  H    0.129001
 Sum of Mulliken charges =  -0.00000
 Mulliken charges with hydrogens summed into heavy atoms:
               1
     1  C    0.274921
     2  C    1.102335
     3  C   -0.858901
     4  N   -0.455586
     5  C    0.399892
     6  C   -0.313995
     7  C    0.300232
     8  C   -0.058484
     9  C   -0.304802
    10  C    0.570700
    11  C    0.008129
    12  N   -0.451901
    13  C    0.132246
    14  C    0.343066
    15  C    0.139902
    16  C    0.027889
    17  C   -0.194187
    18  C   -0.450087
    19  C    0.581471
    20  O   -0.398275
    21  O   -0.394568
 Electronic spatial extent (au):  <R**2>=           7137.9618
 Charge=             -0.0000 electrons
 Dipole moment (field-independent basis, Debye):
    X=              2.8255    Y=             -4.0655    Z=              1.8490  Tot=              5.2850
 Quadrupole moment (field-independent basis, Debye-Ang):
   XX=           -109.4948   YY=           -130.2872   ZZ=           -139.8243
   XY=              2.9060   XZ=            -13.3162   YZ=              0.2008
 Traceless Quadrupole moment (field-independent basis, Debye-Ang):
   XX=             17.0406   YY=             -3.7518   ZZ=            -13.2889
   XY=              2.9060   XZ=            -13.3162   YZ=              0.2008
 Octapole moment (field-independent basis, Debye-Ang**2):
  XXX=             83.7631  YYY=            -69.3985  ZZZ=            -23.9473  XYY=             38.6676
  XXY=           -106.1228  XXZ=              7.3739  XZZ=            -38.3463  YZZ=             -5.4644
  YYZ=             13.4545  XYZ=            -38.6940
 Hexadecapole moment (field-independent basis, Debye-Ang**3):
 XXXX=          -6329.4359 YYYY=          -1907.3429 ZZZZ=          -1377.4140 XXXY=           -192.4244
 XXXZ=           -312.7581 YYYX=            159.0271 YYYZ=             93.4659 ZZZX=           -146.4968
 ZZZY=            -23.6512 XXYY=          -1419.8361 XXZZ=          -1519.6047 YYZZ=           -533.7524
 XXYZ=            -53.8890 YYXZ=            -62.6376 ZZXY=            -33.2905
 N-N= 1.495820486572D+03 E-N=-5.117469945987D+03  KE= 9.074714788092D+02
 Unable to Open any file for archive entry.
 1\1\GINC-N1\SP\RB3LYP TD-FC\6-31+G(d,p)\C17H14N2O2\HPCMGAC13\29-Jul-20
 25\0\\# td=(50-50,nstates=3) b3lyp/6-31+g(d,p) geom=connectivity\\Titl
 e Card Required\\0,1\C,0,-4.941913,-1.659982,-0.281018\C,0,-3.970081,-
 0.767278,-0.575228\C,0,-4.020681,0.031161,-1.771725\N,0,-4.052001,0.67
 9629,-2.736191\C,0,-2.833196,-0.573847,0.296022\C,0,-1.700214,0.163359
 ,0.404439\C,0,-0.992735,1.257587,-0.336163\C,0,-1.079746,2.594432,0.43
 2765\C,0,0.44686,0.852113,-0.755172\C,0,1.52627,0.745097,0.369939\C,0,
 2.020581,2.073657,0.770106\N,0,2.420564,3.12411,1.063708\C,0,2.687916,
 -0.150943,-0.066998\C,0,3.662241,0.302633,-0.965952\C,0,4.680907,-0.55
 1379,-1.393705\C,0,4.738628,-1.867441,-0.926111\C,0,3.773986,-2.323352
 ,-0.024713\C,0,2.754701,-1.468418,0.403421\C,0,-1.480152,-0.589565,1.6
 78634\O,0,-0.715686,-0.709138,2.582201\O,0,-2.70954,-1.335616,1.4887\H
 ,0,-4.879154,-2.249237,0.626721\H,0,-5.791729,-1.801042,-0.938701\H,0,
 -1.5399,1.386869,-1.277652\H,0,-0.560147,3.386274,-0.114684\H,0,-2.125
 867,2.890691,0.554309\H,0,-0.631055,2.527777,1.427738\H,0,0.399204,-0.
 124998,-1.246074\H,0,0.800414,1.563845,-1.509154\H,0,1.075717,0.296466
 ,1.26271\H,0,3.636855,1.329412,-1.320821\H,0,5.432991,-0.185625,-2.086
 646\H,0,5.533898,-2.529299,-1.256031\H,0,3.81677,-3.340733,0.353114\H,
 0,2.013653,-1.825549,1.114099\\Version=ES64L-G16RevC.02\State=1-A\HF=-
 916.1427271\RMSD=3.467e-09\PG=C01 [X(C17H14N2O2)]\\@
 The archive entry for this job was punched.


 CLIMB THE MOUNTAINS AND GET THEIR GOOD TIDINGS.
 NATURE'S PEACE WILL FLOW INTO YOU AS SUNSHINE FLOWS INTO TREES.
 THE WINDS WILL BLOW THEIR OWN FRESHNESS INTO YOU, 
 AND CARES WILL DROP OFF LIKE AUTUMN LEAVES.

                                         -- JOHN MUIR
 Job cpu time:       0 days  3 hours 10 minutes 24.4 seconds.
 Elapsed time:       0 days  0 hours 12 minutes 11.6 seconds.
 File lengths (MBytes):  RWF=   1245 Int=      0 D2E=      0 Chk=     57 Scr=      2
 Normal termination of Gaussian 16 at Tue Jul 29 22:41:11 2025.
