 Entering Gaussian System, Link 0=g16
 Input=M2546e.gjf
 Output=M2546e.log
 Initial command:
 /hpc/softwares/Gaussian/g16/l1.exe "/hpc/home/hpcmgac13/pbs.14056.admin1.x8z/Gau-3808036.inp" -scrdir="/hpc/home/hpcmgac13/pbs.14056.admin1.x8z/"
 Default linda workers: n2
 Default is to use   8 SMP processors on each worker.
 Entering Link 1 = /hpc/softwares/Gaussian/g16/l1.exe PID=   3808037.
  
 Copyright (c) 1988-2021, Gaussian, Inc.  All Rights Reserved.
  
 This is part of the Gaussian(R) 16 program.  It is based on
 the Gaussian(R) 09 system (copyright 2009, Gaussian, Inc.),
 the Gaussian(R) 03 system (copyright 2003, Gaussian, Inc.),
 the Gaussian(R) 98 system (copyright 1998, Gaussian, Inc.),
 the Gaussian(R) 94 system (copyright 1995, Gaussian, Inc.),
 the Gaussian 92(TM) system (copyright 1992, Gaussian, Inc.),
 the Gaussian 90(TM) system (copyright 1990, Gaussian, Inc.),
 the Gaussian 88(TM) system (copyright 1988, Gaussian, Inc.),
 the Gaussian 86(TM) system (copyright 1986, Carnegie Mellon
 University), and the Gaussian 82(TM) system (copyright 1983,
 Carnegie Mellon University). Gaussian is a federally registered
 trademark of Gaussian, Inc.
  
 This software contains proprietary and confidential information,
 including trade secrets, belonging to Gaussian, Inc.
  
 This software is provided under written license and may be
 used, copied, transmitted, or stored only in accord with that
 written license.
  
 The following legend is applicable only to US Government
 contracts under FAR:
  
                    RESTRICTED RIGHTS LEGEND
  
 Use, reproduction and disclosure by the US Government is
 subject to restrictions as set forth in subparagraphs (a)
 and (c) of the Commercial Computer Software - Restricted
 Rights clause in FAR 52.227-19.
  
 Gaussian, Inc.
 340 Quinnipiac St., Bldg. 40, Wallingford CT 06492
  
  
 ---------------------------------------------------------------
 Warning -- This program may not be used in any manner that
 competes with the business of Gaussian, Inc. or will provide
 assistance to any competitor of Gaussian, Inc.  The licensee
 of this program is prohibited from giving any competitor of
 Gaussian, Inc. access to this program.  By using this program,
 the user acknowledges that Gaussian, Inc. is engaged in the
 business of creating and licensing software in the field of
 computational chemistry and represents and warrants to the
 licensee that it is not a competitor of Gaussian, Inc. and that
 it will not use this program in any manner prohibited above.
 ---------------------------------------------------------------
  

 Cite this work as:
 Gaussian 16, Revision C.02,
 M. J. Frisch, G. W. Trucks, H. B. Schlegel, G. E. Scuseria, 
 M. A. Robb, J. R. Cheeseman, G. Scalmani, V. Barone, 
 G. A. Petersson, H. Nakatsuji, X. Li, M. Caricato, A. V. Marenich, 
 J. Bloino, B. G. Janesko, R. Gomperts, B. Mennucci, H. P. Hratchian, 
 J. V. Ortiz, A. F. Izmaylov, J. L. Sonnenberg, D. Williams-Young, 
 F. Ding, F. Lipparini, F. Egidi, J. Goings, B. Peng, A. Petrone, 
 T. Henderson, D. Ranasinghe, V. G. Zakrzewski, J. Gao, N. Rega, 
 G. Zheng, W. Liang, M. Hada, M. Ehara, K. Toyota, R. Fukuda, 
 J. Hasegawa, M. Ishida, T. Nakajima, Y. Honda, O. Kitao, H. Nakai, 
 T. Vreven, K. Throssell, J. A. Montgomery, Jr., J. E. Peralta, 
 F. Ogliaro, M. J. Bearpark, J. J. Heyd, E. N. Brothers, K. N. Kudin, 
 V. N. Staroverov, T. A. Keith, R. Kobayashi, J. Normand, 
 K. Raghavachari, A. P. Rendell, J. C. Burant, S. S. Iyengar, 
 J. Tomasi, M. Cossi, J. M. Millam, M. Klene, C. Adamo, R. Cammi, 
 J. W. Ochterski, R. L. Martin, K. Morokuma, O. Farkas, 
 J. B. Foresman, and D. J. Fox, Gaussian, Inc., Wallingford CT, 2019.
 
 ******************************************
 Gaussian 16:  ES64L-G16RevC.02  7-Dec-2021
                17-Sep-2025 
 ******************************************
 SetLPE:    new flags="-opt 'Tsnet.Node.lindarsharg: ssh'  -nodelist 'n2.head.cm.mguif.local' -env GAUSS_MDEF=1342177280 -env GAUSS_EXEDIR="/hpc/softwares/Gaussian/g16/bsd:/hpc/softwares/Gaussian/g16""
 Will use up to    1 processors via Linda.
 ----------------------------------------------------------
 # td=(50-50,nstates=3) b3lyp/6-31+g(d,p) geom=connectivity
 ----------------------------------------------------------
 1/38=1,57=2,172=1/1;
 2/12=2,17=6,18=5,40=1/2;
 3/5=1,6=6,7=111,11=9,25=1,30=1,74=-5/1,2,3,8;
 4//1;
 5/5=2,38=5/2;
 8/6=1,10=2,108=3/1;
 9/41=3,42=1,48=2,70=2/14;
 6/7=2,8=2,9=2,10=2/1;
 99/5=1,9=1/99;
 -------------------
 Title Card Required
 -------------------
 Symbolic Z-matrix:
 Charge =  0 Multiplicity = 1
 Cl                   -4.18696  -1.24195  -0.0002 
 C                    -3.59373   0.44899  -0.00007 
 C                    -2.09977   0.54646   0.00006 
 N                    -1.18734  -0.37436  -0.00024 
 C                    -0.01383   0.36507   0.00004 
 C                     1.34818  -0.27093  -0.00013 
 C                     2.15091   0.08823   1.27253 
 C                     3.53095  -0.58624   1.26886 
 C                     4.32711  -0.24412   0.00001 
 C                     3.53106  -0.58531  -1.26916 
 C                     2.15102   0.08916  -1.27246 
 N                    -0.1974    1.66266   0.00056 
 O                    -1.60473   1.79634   0.00049 
 H                    -3.99535   0.94644  -0.88579 
 H                    -3.9955    0.94636   0.88562 
 H                     1.16682  -1.35307  -0.00054 
 H                     2.26902   1.17871   1.31888 
 H                     1.58387  -0.20717   2.16355 
 H                     4.09089  -0.28622   2.16296 
 H                     3.40174  -1.67656   1.33354 
 H                     4.56376   0.8298    0.00042 
 H                     5.28653  -0.77573  -0.00014 
 H                     4.09109  -0.28463  -2.16298 
 H                     3.40186  -1.67558  -1.33465 
 H                     2.26913   1.17968  -1.318 
 H                     1.58406  -0.20559  -2.16375 
 
                          Input orientation:                          
 ---------------------------------------------------------------------
 Center     Atomic      Atomic             Coordinates (Angstroms)
 Number     Number       Type             X           Y           Z
 ---------------------------------------------------------------------
      1         17           0       -4.186965   -1.241950   -0.000201
      2          6           0       -3.593733    0.448985   -0.000071
      3          6           0       -2.099765    0.546456    0.000059
      4          7           0       -1.187335   -0.374364   -0.000235
      5          6           0       -0.013826    0.365072    0.000043
      6          6           0        1.348180   -0.270926   -0.000132
      7          6           0        2.150907    0.088229    1.272530
      8          6           0        3.530945   -0.586238    1.268864
      9          6           0        4.327112   -0.244118    0.000014
     10          6           0        3.531062   -0.585308   -1.269159
     11          6           0        2.151022    0.089160   -1.272459
     12          7           0       -0.197399    1.662664    0.000558
     13          8           0       -1.604726    1.796341    0.000487
     14          1           0       -3.995354    0.946436   -0.885787
     15          1           0       -3.995498    0.946364    0.885618
     16          1           0        1.166818   -1.353065   -0.000537
     17          1           0        2.269015    1.178713    1.318878
     18          1           0        1.583866   -0.207170    2.163550
     19          1           0        4.090895   -0.286220    2.162957
     20          1           0        3.401738   -1.676561    1.333543
     21          1           0        4.563761    0.829801    0.000419
     22          1           0        5.286529   -0.775730   -0.000137
     23          1           0        4.091093   -0.284633   -2.162980
     24          1           0        3.401862   -1.675583   -1.334651
     25          1           0        2.269134    1.179678   -1.317999
     26          1           0        1.584063   -0.205588   -2.163746
 ---------------------------------------------------------------------
                    Distance matrix (angstroms):
                    1          2          3          4          5
     1  Cl   0.000000
     2  C    1.791978   0.000000
     3  C    2.748600   1.497144   0.000000
     4  N    3.122577   2.543355   1.296317   0.000000
     5  C    4.471869   3.580890   2.093810   1.387043   0.000000
     6  C    5.619672   4.994074   3.543506   2.537624   1.503181
     7  C    6.599837   5.894959   4.460646   3.602469   2.526249
     8  C    7.848988   7.310466   5.881986   4.890569   3.883336
     9  C    8.572349   7.951112   6.475319   5.515985   4.383475
    10  C    7.849164   7.310475   5.882008   4.890597   3.883340
    11  C    6.600043   5.894969   4.460674   3.602504   2.526253
    12  N    4.934918   3.606675   2.205656   2.264830   1.310513
    13  O    3.987376   2.402398   1.344350   2.210470   2.139975
    14  H    2.368546   1.092360   2.130250   3.227024   4.120102
    15  H    2.368555   1.092358   2.130245   3.227203   4.120177
    16  H    5.354936   5.090209   3.778723   2.549489   2.084686
    17  H    7.019919   6.053424   4.607089   4.012289   2.759112
    18  H    6.249406   5.649719   4.337947   3.519869   2.749699
    19  H    8.609044   8.017027   6.610276   5.704987   4.685201
    20  H    7.717265   7.431897   6.081654   4.953208   4.196733
    21  H    8.992628   8.166378   6.669547   5.875808   4.601117
    22  H    9.484959   8.964317   7.503700   6.486294   5.421733
    23  H    8.609315   8.017039   6.610308   5.705026   4.685205
    24  H    7.717454   7.431907   6.081678   4.953238   4.196737
    25  H    7.020120   6.053433   4.607117   4.012322   2.759117
    26  H    6.249779   5.649737   4.337996   3.519931   2.749706
                    6          7          8          9         10
     6  C    0.000000
     7  C    1.546943   0.000000
     8  C    2.544452   1.536042   0.000000
     9  C    2.979053   2.542758   1.536525   0.000000
    10  C    2.544453   2.969623   2.538023   1.536524   0.000000
    11  C    1.546943   2.544989   2.969625   2.542760   1.536043
    12  N    2.475396   3.100210   4.535053   4.909890   4.535083
    13  O    3.604615   4.317467   5.801774   6.272972   5.801773
    14  H    5.551550   6.570493   7.977267   8.453727   7.690263
    15  H    5.551688   6.218070   7.690455   8.453838   7.977355
    16  H    1.097232   2.160199   2.790788   3.349212   2.790789
    17  H    2.165451   1.097840   2.170258   2.828359   3.376754
    18  H    2.177414   1.096683   2.176068   3.493945   3.964600
    19  H    3.493089   2.167170   1.096794   2.176211   3.490313
    20  H    2.823402   2.163974   1.099855   2.164835   2.825175
    21  H    3.398759   2.826669   2.163522   1.099684   2.163522
    22  H    3.970569   3.492597   2.174476   1.096856   2.174475
    23  H    3.493089   3.963089   3.490313   2.176210   1.096794
    24  H    2.823404   3.387228   2.825177   2.164835   1.099855
    25  H    2.165452   2.813553   3.376757   2.828361   2.170259
    26  H    2.177415   3.495087   3.964600   3.493946   2.176069
                   11         12         13         14         15
    11  C    0.000000
    12  N    3.100253   0.000000
    13  O    4.317465   1.413661   0.000000
    14  H    6.217908   3.965230   2.687550   0.000000
    15  H    6.570525   3.965094   2.687324   1.771405   0.000000
    16  H    2.160198   3.309941   4.195261   5.720087   5.720328
    17  H    2.813552   2.838199   4.138295   6.645060   6.283775
    18  H    3.495087   3.368637   4.342812   6.461962   5.838926
    19  H    3.963092   5.183009   6.438434   8.729359   8.278926
    20  H    3.387227   5.087343   6.237208   8.156133   7.861264
    21  H    2.826672   4.833457   6.243751   8.605662   8.605700
    22  H    3.492598   6.001602   7.355606   9.481750   9.481888
    23  H    2.167170   5.183052   6.438431   8.278730   8.729390
    24  H    2.163975   5.087372   6.237209   7.860997   8.156294
    25  H    1.097841   2.838248   4.138293   6.283711   6.644996
    26  H    1.096682   3.368707   4.342810   5.838684   6.461975
                   16         17         18         19         20
    16  H    0.000000
    17  H    3.060326   0.000000
    18  H    2.484004   1.761696   0.000000
    19  H    3.790658   2.485507   2.508275   0.000000
    20  H    2.622839   3.071785   2.480460   1.759521   0.000000
    21  H    4.037837   2.669444   3.825470   2.479047   3.067469
    22  H    4.159968   3.829496   4.326028   2.519551   2.478434
    23  H    3.790658   4.193410   5.001105   4.325937   3.826009
    24  H    2.622842   4.058517   4.206989   3.826011   2.668194
    25  H    3.060326   2.636877   3.809741   4.193414   4.058518
    26  H    2.484003   3.809740   4.327296   5.001107   4.206986
                   21         22         23         24         25
    21  H    0.000000
    22  H    1.760717   0.000000
    23  H    2.479047   2.519550   0.000000
    24  H    3.067470   2.478434   1.759520   0.000000
    25  H    2.669448   3.829498   2.485505   3.071785   0.000000
    26  H    3.825473   4.326028   2.508276   2.480459   1.761696
                   26
    26  H    0.000000
 Stoichiometry    C9H13ClN2O
 Framework group  C1[X(C9H13ClN2O)]
 Deg. of freedom    72
 Full point group                 C1      NOp   1
 Largest Abelian subgroup         C1      NOp   1
 Largest concise Abelian subgroup C1      NOp   1
                         Standard orientation:                         
 ---------------------------------------------------------------------
 Center     Atomic      Atomic             Coordinates (Angstroms)
 Number     Number       Type             X           Y           Z
 ---------------------------------------------------------------------
      1         17           0        4.186965   -1.241950    0.000201
      2          6           0        3.593733    0.448985    0.000071
      3          6           0        2.099765    0.546456   -0.000059
      4          7           0        1.187335   -0.374364    0.000235
      5          6           0        0.013826    0.365072   -0.000043
      6          6           0       -1.348180   -0.270926    0.000132
      7          6           0       -2.150907    0.088229   -1.272530
      8          6           0       -3.530945   -0.586238   -1.268864
      9          6           0       -4.327112   -0.244118   -0.000014
     10          6           0       -3.531062   -0.585308    1.269159
     11          6           0       -2.151022    0.089160    1.272459
     12          7           0        0.197399    1.662664   -0.000558
     13          8           0        1.604726    1.796341   -0.000487
     14          1           0        3.995354    0.946436    0.885787
     15          1           0        3.995498    0.946364   -0.885618
     16          1           0       -1.166818   -1.353065    0.000537
     17          1           0       -2.269015    1.178713   -1.318878
     18          1           0       -1.583866   -0.207170   -2.163550
     19          1           0       -4.090895   -0.286220   -2.162957
     20          1           0       -3.401738   -1.676561   -1.333543
     21          1           0       -4.563761    0.829801   -0.000419
     22          1           0       -5.286529   -0.775730    0.000137
     23          1           0       -4.091093   -0.284633    2.162980
     24          1           0       -3.401862   -1.675583    1.334651
     25          1           0       -2.269134    1.179678    1.317999
     26          1           0       -1.584063   -0.205588    2.163746
 ---------------------------------------------------------------------
 Rotational constants (GHZ):           1.7908652           0.2814846           0.2706173
 Standard basis: 6-31+G(d,p) (6D, 7F)
 There are   316 symmetry adapted cartesian basis functions of A   symmetry.
 There are   316 symmetry adapted basis functions of A   symmetry.
   316 basis functions,   531 primitive gaussians,   316 cartesian basis functions
    53 alpha electrons       53 beta electrons
       nuclear repulsion energy       876.0563206347 Hartrees.
 NAtoms=   26 NActive=   26 NUniq=   26 SFac= 1.00D+00 NAtFMM=   60 NAOKFM=F Big=F
 Integral buffers will be    131072 words long.
 Regular integral format.
 Two-electron integral symmetry is turned on.
 One-electron integrals computed using PRISM.
 NBasis=   316 RedAO= T EigKep=  1.09D-06  NBF=   316
 NBsUse=   316 1.00D-06 EigRej= -1.00D+00 NBFU=   316
 ExpMin= 4.38D-02 ExpMax= 2.52D+04 ExpMxC= 3.78D+03 IAcc=3 IRadAn=         5 AccDes= 0.00D+00
 Harris functional with IExCor=  402 and IRadAn=       5 diagonalized for initial guess.
 HarFok:  IExCor=  402 AccDes= 0.00D+00 IRadAn=         5 IDoV= 1 UseB2=F ITyADJ=14
 ICtDFT=  3500011 ScaDFX=  1.000000  1.000000  1.000000  1.000000
 FoFCou: FMM=F IPFlag=           0 FMFlag=      100000 FMFlg1=           0
         NFxFlg=           0 DoJE=T BraDBF=F KetDBF=T FulRan=T
         wScrn=  0.000000 ICntrl=       500 IOpCl=  0 I1Cent=   200000004 NGrid=           0
         NMat0=    1 NMatS0=      1 NMatT0=    0 NMatD0=    1 NMtDS0=    0 NMtDT0=    0
 Petite list used in FoFCou.
 Requested convergence on RMS density matrix=1.00D-08 within 128 cycles.
 Requested convergence on MAX density matrix=1.00D-06.
 Requested convergence on             energy=1.00D-06.
 No special actions if energy rises.
 SCF Done:  E(RB3LYP) =  -995.718888248     A.U. after   14 cycles
            NFock= 14  Conv=0.74D-08     -V/T= 2.0065
 DoSCS=F DFT=T ScalE2(SS,OS)=  1.000000  1.000000
 ExpMin= 4.38D-02 ExpMax= 2.52D+04 ExpMxC= 3.78D+03 IAcc=3 IRadAn=         5 AccDes= 0.00D+00
 HarFok:  IExCor=  205 AccDes= 0.00D+00 IRadAn=         5 IDoV=-2 UseB2=F ITyADJ=14
 ICtDFT= 12500011 ScaDFX=  1.000000  1.000000  1.000000  1.000000
 Range of M.O.s used for correlation:    18   316
 NBasis=   316 NAE=    53 NBE=    53 NFC=    17 NFV=     0
 NROrb=    299 NOA=    36 NOB=    36 NVA=   263 NVB=   263

 **** Warning!!: The largest alpha MO coefficient is  0.26088761D+03

 Orbital symmetries:
       Occupied  (A) (A) (A) (A) (A) (A) (A) (A) (A) (A) (A) (A)
                 (A) (A) (A) (A) (A) (A) (A) (A) (A) (A) (A) (A)
                 (A) (A) (A) (A) (A) (A) (A) (A) (A) (A) (A) (A)
                 (A) (A) (A) (A) (A) (A) (A) (A) (A) (A) (A) (A)
                 (A) (A) (A) (A) (A)
       Virtual   (A) (A) (A) (A) (A) (A) (A) (A) (A) (A) (A) (A)
                 (A) (A) (A) (A) (A) (A) (A) (A) (A) (A) (A) (A)
                 (A) (A) (A) (A) (A) (A) (A) (A) (A) (A) (A) (A)
                 (A) (A) (A) (A) (A) (A) (A) (A) (A) (A) (A) (A)
                 (A) (A) (A) (A) (A) (A) (A) (A) (A) (A) (A) (A)
                 (A) (A) (A) (A) (A) (A) (A) (A) (A) (A) (A) (A)
                 (A) (A) (A) (A) (A) (A) (A) (A) (A) (A) (A) (A)
                 (A) (A) (A) (A) (A) (A) (A) (A) (A) (A) (A) (A)
                 (A) (A) (A) (A) (A) (A) (A) (A) (A) (A) (A) (A)
                 (A) (A) (A) (A) (A) (A) (A) (A) (A) (A) (A) (A)
                 (A) (A) (A) (A) (A) (A) (A) (A) (A) (A) (A) (A)
                 (A) (A) (A) (A) (A) (A) (A) (A) (A) (A) (A) (A)
                 (A) (A) (A) (A) (A) (A) (A) (A) (A) (A) (A) (A)
                 (A) (A) (A) (A) (A) (A) (A) (A) (A) (A) (A) (A)
                 (A) (A) (A) (A) (A) (A) (A) (A) (A) (A) (A) (A)
                 (A) (A) (A) (A) (A) (A) (A) (A) (A) (A) (A) (A)
                 (A) (A) (A) (A) (A) (A) (A) (A) (A) (A) (A) (A)
                 (A) (A) (A) (A) (A) (A) (A) (A) (A) (A) (A) (A)
                 (A) (A) (A) (A) (A) (A) (A) (A) (A) (A) (A) (A)
                 (A) (A) (A) (A) (A) (A) (A) (A) (A) (A) (A) (A)
                 (A) (A) (A) (A) (A) (A) (A) (A) (A) (A) (A) (A)
                 (A) (A) (A) (A) (A) (A) (A) (A) (A) (A) (A)
    24 initial guesses have been made.
 Convergence on wavefunction:    0.001000000000000
 Iteration     1 Dimension    24 NMult     0 NNew     24
 CISAX will form    24 AO SS matrices at one time.
 New state      1 was old state      2
 New state      2 was old state      4
 New state      4 was old state      6
 New state      5 was old state     10
 New state      6 was old state     12
 New state      7 was old state      8
 New state      8 was old state      9
 New state      9 was old state      5
 New state     10 was old state     11
 New state     11 was old state     16
 New state     12 was old state      7
 Vector   5 SDiff=9.03D+00 TDiff=9.60D+00 assumed to be singlet.
 Vector   6 SDiff=1.31D+01 TDiff=2.00D+01 assumed to be singlet.
 Vector  11 SDiff=9.11D+00 TDiff=9.31D+00 assumed to be singlet.
 Vector  12 SDiff=1.21D+01 TDiff=1.81D+01 assumed to be singlet.
 Iteration     2 Dimension    36 NMult    24 NNew     12
 New state      5 was old state     10
 New state      6 was old state      8
 Iteration     3 Dimension    48 NMult    36 NNew     12
 New state      3 was old state      4
 New state      4 was old state      3
 Iteration     4 Dimension    60 NMult    48 NNew     12
 Iteration     5 Dimension    72 NMult    60 NNew     12
 Iteration     6 Dimension    80 NMult    72 NNew      8
 Iteration     7 Dimension    88 NMult    80 NNew      8
 Iteration     8 Dimension    90 NMult    88 NNew      2
 ***********************************************************************
 Excited states from <AA,BB:AA,BB> singles matrix:
 ***********************************************************************
 
 Ground to excited state transition densities written to RWF  633
 Ground to excited state transition electric dipole moments (Au):
       state          X           Y           Z        Dip. S.      Osc.
         1         0.0000     -0.0000      0.0000      0.0000      0.0000
         2        -0.0000      0.0000     -0.0000      0.0000      0.0000
         3         0.0000     -0.0000      0.0000      0.0000      0.0000
         4         0.0000      0.0000      0.1500      0.0225      0.0032
         5        -0.2298      0.3650     -0.0002      0.1860      0.0285
         6        -0.0009     -0.0001      0.0310      0.0010      0.0002
 Ground to excited state transition velocity dipole moments (Au):
       state          X           Y           Z        Dip. S.      Osc.
         1         0.0000     -0.0000     -0.0000      0.0000      0.0000
         2        -0.0000     -0.0000     -0.0000      0.0000      0.0000
         3        -0.0000      0.0000     -0.0000      0.0000      0.0000
         4        -0.0000      0.0000     -0.0392      0.0015      0.0048
         5         0.0510     -0.0810      0.0000      0.0092      0.0266
         6         0.0002      0.0000     -0.0047      0.0000      0.0001
 Ground to excited state transition magnetic dipole moments (Au):
       state          X           Y           Z
         1        -0.0000     -0.0000      0.0000
         2        -0.0000      0.0000     -0.0000
         3         0.0000     -0.0000      0.0000
         4        -0.1884     -0.0989      0.0003
         5         0.0001      0.0002     -0.2497
         6         0.1327     -0.0999      0.0001
 Ground to excited state transition velocity quadrupole moments (Au):
       state          XX          YY          ZZ          XY          XZ          YZ
         1         0.0000      0.0000      0.0000     -0.0000     -0.0000     -0.0000
         2        -0.0000      0.0000      0.0000     -0.0000     -0.0000     -0.0000
         3         0.0000     -0.0000     -0.0000      0.0000     -0.0000     -0.0000
         4        -0.0003     -0.0003     -0.0003      0.0003     -0.0484     -0.0645
         5         1.0821     -0.4518      0.1804      0.0554     -0.0002      0.0002
         6         0.0007      0.0004      0.0002      0.0000     -0.1086      0.0313
 <0|del|b> * <b|rxdel|0> + <0|del|b> * <b|delr+rdel|0>
 Rotatory Strengths (R) in cgs (10**-40 erg-esu-cm/Gauss)
       state          XX          YY          ZZ    R(velocity)    E-M Angle
         1         0.0000     -0.0000     -0.0000     -0.0000       90.00
         2        -0.0000      0.0000      0.0000      0.0000       90.00
         3        -0.0000     -0.0000     -0.0000     -0.0000       90.00
         4        -0.0420      0.0029     -0.0064     -0.0152       90.00
         5        -0.0518      0.0017     -0.0117     -0.0206       90.00
         6        -0.0006      0.0467      0.0207      0.0223       90.00
 1/2[<0|r|b>*<b|rxdel|0> + (<0|rxdel|b>*<b|r|0>)*]
 Rotatory Strengths (R) in cgs (10**-40 erg-esu-cm/Gauss)
       state          XX          YY          ZZ     R(length)
         1         0.0000     -0.0000     -0.0000      0.0000
         2        -0.0000     -0.0000     -0.0000     -0.0000
         3        -0.0000     -0.0000     -0.0000     -0.0000
         4         0.0046      0.0026     -0.0341     -0.0090
         5         0.0130     -0.0390     -0.0277     -0.0179
         6         0.0801     -0.0050     -0.0020      0.0244
  1/2[<0|del|b>*<b|r|0> + (<0|r|b>*<b|del|0>)*] (Au)
       state          X           Y           Z        Dip. S.   Osc.(frdel)
         1         0.0000      0.0000     -0.0000      0.0000      0.0000
         2         0.0000     -0.0000      0.0000     -0.0000     -0.0000
         3        -0.0000     -0.0000     -0.0000      0.0000      0.0000
         4        -0.0000      0.0000     -0.0059      0.0059      0.0039
         5        -0.0117     -0.0296     -0.0000      0.0413      0.0275
         6        -0.0000     -0.0000     -0.0001      0.0001      0.0001

 Excitation energies and oscillator strengths:
 
 Excited State   1:      Triplet-A      4.1713 eV  297.23 nm  f=0.0000  <S**2>=2.000
      49 -> 54         0.20675
      51 -> 54        -0.19562
      53 -> 54         0.62307
      53 -> 60        -0.11690
 This state for optimization and/or second-order correction.
 Total Energy, E(TD-HF/TD-DFT) =  -995.565596090    
 Copying the excited state density for this state as the 1-particle RhoCI density.
 
 Excited State   2:      Triplet-A      5.2987 eV  233.99 nm  f=0.0000  <S**2>=2.000
      47 -> 54         0.17601
      48 -> 54        -0.12435
      52 -> 54         0.64654
 
 Excited State   3:      Triplet-A      5.6558 eV  219.22 nm  f=0.0000  <S**2>=2.000
      44 -> 54        -0.11851
      46 -> 54         0.51964
      46 -> 60         0.10088
      49 -> 54        -0.17732
      51 -> 54         0.27820
      51 -> 60         0.10288
      53 -> 54         0.11378
      53 -> 60        -0.19703
 
 Excited State   4:      Singlet-A      5.7585 eV  215.31 nm  f=0.0032  <S**2>=0.000
      47 -> 54         0.16285
      52 -> 54         0.67784
 
 Excited State   5:      Singlet-A      6.2600 eV  198.06 nm  f=0.0285  <S**2>=0.000
      49 -> 54        -0.13801
      51 -> 54         0.11093
      53 -> 54         0.67129
 
 Excited State   6:      Singlet-A      6.5531 eV  189.20 nm  f=0.0002  <S**2>=0.000
      51 -> 55        -0.21171
      53 -> 55         0.65575
 SavETr:  write IOETrn=   770 NScale= 10 NData=  16 NLR=1 NState=    6 LETran=     118.

 **********************************************************************

            Population analysis using the SCF Density.

 **********************************************************************

 Orbital symmetries:
       Occupied  (A) (A) (A) (A) (A) (A) (A) (A) (A) (A) (A) (A)
                 (A) (A) (A) (A) (A) (A) (A) (A) (A) (A) (A) (A)
                 (A) (A) (A) (A) (A) (A) (A) (A) (A) (A) (A) (A)
                 (A) (A) (A) (A) (A) (A) (A) (A) (A) (A) (A) (A)
                 (A) (A) (A) (A) (A)
       Virtual   (A) (A) (A) (A) (A) (A) (A) (A) (A) (A) (A) (A)
                 (A) (A) (A) (A) (A) (A) (A) (A) (A) (A) (A) (A)
                 (A) (A) (A) (A) (A) (A) (A) (A) (A) (A) (A) (A)
                 (A) (A) (A) (A) (A) (A) (A) (A) (A) (A) (A) (A)
                 (A) (A) (A) (A) (A) (A) (A) (A) (A) (A) (A) (A)
                 (A) (A) (A) (A) (A) (A) (A) (A) (A) (A) (A) (A)
                 (A) (A) (A) (A) (A) (A) (A) (A) (A) (A) (A) (A)
                 (A) (A) (A) (A) (A) (A) (A) (A) (A) (A) (A) (A)
                 (A) (A) (A) (A) (A) (A) (A) (A) (A) (A) (A) (A)
                 (A) (A) (A) (A) (A) (A) (A) (A) (A) (A) (A) (A)
                 (A) (A) (A) (A) (A) (A) (A) (A) (A) (A) (A) (A)
                 (A) (A) (A) (A) (A) (A) (A) (A) (A) (A) (A) (A)
                 (A) (A) (A) (A) (A) (A) (A) (A) (A) (A) (A) (A)
                 (A) (A) (A) (A) (A) (A) (A) (A) (A) (A) (A) (A)
                 (A) (A) (A) (A) (A) (A) (A) (A) (A) (A) (A) (A)
                 (A) (A) (A) (A) (A) (A) (A) (A) (A) (A) (A) (A)
                 (A) (A) (A) (A) (A) (A) (A) (A) (A) (A) (A) (A)
                 (A) (A) (A) (A) (A) (A) (A) (A) (A) (A) (A) (A)
                 (A) (A) (A) (A) (A) (A) (A) (A) (A) (A) (A) (A)
                 (A) (A) (A) (A) (A) (A) (A) (A) (A) (A) (A) (A)
                 (A) (A) (A) (A) (A) (A) (A) (A) (A) (A) (A) (A)
                 (A) (A) (A) (A) (A) (A) (A) (A) (A) (A) (A)
 The electronic state is 1-A.
 Alpha  occ. eigenvalues -- -101.56032 -19.26504 -14.40264 -14.36004 -10.31781
 Alpha  occ. eigenvalues --  -10.28767 -10.26928 -10.21195 -10.19261 -10.19260
 Alpha  occ. eigenvalues --  -10.18888 -10.18887 -10.18720  -9.47554  -7.24025
 Alpha  occ. eigenvalues --   -7.22937  -7.22935  -1.17932  -0.95685  -0.90758
 Alpha  occ. eigenvalues --   -0.86741  -0.83824  -0.76348  -0.74970  -0.73417
 Alpha  occ. eigenvalues --   -0.66002  -0.62650  -0.61865  -0.59635  -0.55884
 Alpha  occ. eigenvalues --   -0.52567  -0.52348  -0.47932  -0.47189  -0.46783
 Alpha  occ. eigenvalues --   -0.45000  -0.44502  -0.44322  -0.43013  -0.39608
 Alpha  occ. eigenvalues --   -0.39229  -0.38680  -0.36359  -0.35195  -0.34696
 Alpha  occ. eigenvalues --   -0.34128  -0.32717  -0.32571  -0.32112  -0.31515
 Alpha  occ. eigenvalues --   -0.31303  -0.30565  -0.29068
 Alpha virt. eigenvalues --   -0.04348  -0.01739  -0.00181   0.00482   0.01837
 Alpha virt. eigenvalues --    0.02092   0.02563   0.02573   0.03844   0.04327
 Alpha virt. eigenvalues --    0.05079   0.05502   0.05544   0.06448   0.06783
 Alpha virt. eigenvalues --    0.07028   0.07587   0.08698   0.08920   0.08958
 Alpha virt. eigenvalues --    0.09383   0.09996   0.10062   0.10236   0.11384
 Alpha virt. eigenvalues --    0.11728   0.12417   0.13337   0.13471   0.14473
 Alpha virt. eigenvalues --    0.15592   0.15712   0.15968   0.16117   0.17513
 Alpha virt. eigenvalues --    0.18015   0.18020   0.18625   0.18800   0.19532
 Alpha virt. eigenvalues --    0.19652   0.19799   0.20442   0.20977   0.21739
 Alpha virt. eigenvalues --    0.21902   0.22642   0.23131   0.23584   0.24019
 Alpha virt. eigenvalues --    0.24423   0.24613   0.24931   0.25521   0.26094
 Alpha virt. eigenvalues --    0.26865   0.27516   0.27915   0.28121   0.29629
 Alpha virt. eigenvalues --    0.29780   0.29853   0.30421   0.31853   0.32578
 Alpha virt. eigenvalues --    0.33463   0.33544   0.35139   0.35713   0.37128
 Alpha virt. eigenvalues --    0.37559   0.37718   0.38741   0.40848   0.41690
 Alpha virt. eigenvalues --    0.42630   0.43392   0.46545   0.48385   0.49078
 Alpha virt. eigenvalues --    0.52844   0.57034   0.59856   0.60605   0.61421
 Alpha virt. eigenvalues --    0.62275   0.62526   0.64630   0.65163   0.66119
 Alpha virt. eigenvalues --    0.66466   0.67623   0.69457   0.69623   0.71522
 Alpha virt. eigenvalues --    0.71794   0.73663   0.75828   0.75833   0.76971
 Alpha virt. eigenvalues --    0.78601   0.79363   0.80280   0.81309   0.81831
 Alpha virt. eigenvalues --    0.84697   0.84714   0.86644   0.89555   0.91845
 Alpha virt. eigenvalues --    0.92227   0.92756   0.94266   0.95906   0.96806
 Alpha virt. eigenvalues --    0.97328   0.98649   0.99406   1.00792   1.01706
 Alpha virt. eigenvalues --    1.02039   1.02996   1.03515   1.03834   1.05857
 Alpha virt. eigenvalues --    1.08004   1.10353   1.10690   1.12289   1.12333
 Alpha virt. eigenvalues --    1.13591   1.15066   1.15453   1.16368   1.16580
 Alpha virt. eigenvalues --    1.17973   1.18237   1.20007   1.26253   1.27892
 Alpha virt. eigenvalues --    1.30605   1.32930   1.36384   1.36858   1.37565
 Alpha virt. eigenvalues --    1.38478   1.41986   1.42016   1.45166   1.48433
 Alpha virt. eigenvalues --    1.53323   1.54070   1.56056   1.56480   1.60698
 Alpha virt. eigenvalues --    1.62204   1.66453   1.68216   1.68606   1.69468
 Alpha virt. eigenvalues --    1.71393   1.71712   1.72999   1.77582   1.78560
 Alpha virt. eigenvalues --    1.81273   1.84999   1.86317   1.88138   1.89313
 Alpha virt. eigenvalues --    1.92290   1.93404   1.93438   1.94101   1.96436
 Alpha virt. eigenvalues --    1.99961   2.01107   2.02550   2.06386   2.06499
 Alpha virt. eigenvalues --    2.10381   2.12556   2.12616   2.13928   2.15020
 Alpha virt. eigenvalues --    2.16139   2.16824   2.16957   2.18134   2.20780
 Alpha virt. eigenvalues --    2.22181   2.26836   2.27468   2.30464   2.32261
 Alpha virt. eigenvalues --    2.32294   2.33362   2.34323   2.35180   2.37626
 Alpha virt. eigenvalues --    2.39859   2.43629   2.44796   2.46661   2.48602
 Alpha virt. eigenvalues --    2.49630   2.51577   2.53898   2.55848   2.58103
 Alpha virt. eigenvalues --    2.58410   2.59289   2.61082   2.64444   2.64739
 Alpha virt. eigenvalues --    2.68688   2.69535   2.73368   2.74892   2.76342
 Alpha virt. eigenvalues --    2.78277   2.81129   2.82420   2.83150   2.83621
 Alpha virt. eigenvalues --    2.86067   2.87139   2.88411   2.90025   2.91599
 Alpha virt. eigenvalues --    2.93331   2.95042   2.97220   3.00923   3.08394
 Alpha virt. eigenvalues --    3.11898   3.21823   3.28583   3.30869   3.33583
 Alpha virt. eigenvalues --    3.33953   3.34336   3.34838   3.40183   3.46695
 Alpha virt. eigenvalues --    3.50383   3.50572   3.55425   3.55828   3.61771
 Alpha virt. eigenvalues --    4.17535   4.26082   4.29052   4.34616   4.38036
 Alpha virt. eigenvalues --    4.41995   4.45149   4.54629   4.59080   4.66531
 Alpha virt. eigenvalues --    4.75974   4.77977   4.82797
          Condensed to atoms (all electrons):
               1          2          3          4          5          6
     1  Cl  16.921546   0.167543   0.100746   0.005282  -0.110668  -0.030926
     2  C    0.167543  14.738462  -2.327979  -0.168114  -5.250334  -2.052040
     3  C    0.100746  -2.327979  14.219587   0.938536  -1.093038  -7.215647
     4  N    0.005282  -0.168114   0.938536   6.996679   0.138146  -0.739367
     5  C   -0.110668  -5.250334  -1.093038   0.138146  23.811324 -10.524955
     6  C   -0.030926  -2.052040  -7.215647  -0.739367 -10.524955  28.430638
     7  C    0.000575  -0.000224   0.103679   0.015111   0.193701  -0.646481
     8  C    0.000300   0.010766   0.064319   0.017913  -0.428039   0.247453
     9  C    0.000034   0.009423   0.101747   0.004189   0.678420  -0.797683
    10  C    0.000300   0.010771   0.064383   0.017911  -0.427752   0.247062
    11  C    0.000575  -0.000274   0.103496   0.015121   0.193042  -0.645610
    12  N   -0.001537   1.208042   1.628336   0.012093  -1.487665  -1.913989
    13  O    0.015856  -0.153408   0.074749  -0.071998  -0.200968   0.391663
    14  H   -0.038020   0.424906  -0.084492  -0.001492  -0.004194   0.004564
    15  H   -0.038027   0.424743  -0.084445  -0.001478  -0.004091   0.004580
    16  H   -0.000356  -0.004482  -0.040426  -0.023995   0.370062   0.025925
    17  H   -0.000024   0.000094   0.003072  -0.004537   0.206232  -0.257001
    18  H    0.000048   0.002336   0.033829   0.005662   0.106024  -0.213497
    19  H   -0.000000   0.000060   0.001708  -0.000062   0.010779   0.004251
    20  H   -0.000002   0.000005  -0.001577  -0.000930   0.006297   0.033514
    21  H   -0.000000  -0.000060  -0.003128  -0.000121  -0.055307   0.075111
    22  H   -0.000000  -0.000004  -0.000170  -0.000006  -0.006666   0.000349
    23  H   -0.000000   0.000060   0.001709  -0.000062   0.010792   0.004237
    24  H   -0.000002   0.000005  -0.001578  -0.000930   0.006292   0.033521
    25  H   -0.000024   0.000095   0.003084  -0.004537   0.206270  -0.257051
    26  H    0.000048   0.002336   0.033832   0.005661   0.106080  -0.213550
               7          8          9         10         11         12
     1  Cl   0.000575   0.000300   0.000034   0.000300   0.000575  -0.001537
     2  C   -0.000224   0.010766   0.009423   0.010771  -0.000274   1.208042
     3  C    0.103679   0.064319   0.101747   0.064383   0.103496   1.628336
     4  N    0.015111   0.017913   0.004189   0.017911   0.015121   0.012093
     5  C    0.193701  -0.428039   0.678420  -0.427752   0.193042  -1.487665
     6  C   -0.646481   0.247453  -0.797683   0.247062  -0.645610  -1.913989
     7  C    6.546861  -0.454407  -0.201262   0.245317  -0.245579   0.056156
     8  C   -0.454407   5.976741   0.303762  -0.353606   0.245321   0.002669
     9  C   -0.201262   0.303762   5.439863   0.303743  -0.201263   0.008572
    10  C    0.245317  -0.353606   0.303743   5.976716  -0.454330   0.002668
    11  C   -0.245579   0.245321  -0.201263  -0.454330   6.546792   0.056130
    12  N    0.056156   0.002669   0.008572   0.002668   0.056130   7.902216
    13  O   -0.004771  -0.003268  -0.003758  -0.003266  -0.004760   0.048333
    14  H   -0.000198  -0.000002  -0.000001   0.000038   0.000498  -0.001445
    15  H    0.000497   0.000038  -0.000001  -0.000002  -0.000198  -0.001453
    16  H    0.027629  -0.058700   0.004749  -0.058697   0.027624   0.001864
    17  H    0.444601  -0.068295   0.008172  -0.034215   0.014122  -0.003914
    18  H    0.366310  -0.010502   0.020134   0.001112   0.015863  -0.000282
    19  H   -0.082749   0.416814  -0.045965   0.027289  -0.002372  -0.000176
    20  H   -0.078228   0.410135  -0.033277  -0.028509   0.000770  -0.000054
    21  H    0.004082  -0.071375   0.424776  -0.071366   0.004073   0.000713
    22  H    0.039498  -0.046328   0.347011  -0.046329   0.039498   0.000029
    23  H   -0.002374   0.027291  -0.045963   0.416805  -0.082742  -0.000177
    24  H    0.000773  -0.028511  -0.033277   0.410140  -0.078235  -0.000054
    25  H    0.014125  -0.034215   0.008173  -0.068296   0.444598  -0.003913
    26  H    0.015863   0.001112   0.020136  -0.010512   0.366315  -0.000284
              13         14         15         16         17         18
     1  Cl   0.015856  -0.038020  -0.038027  -0.000356  -0.000024   0.000048
     2  C   -0.153408   0.424906   0.424743  -0.004482   0.000094   0.002336
     3  C    0.074749  -0.084492  -0.084445  -0.040426   0.003072   0.033829
     4  N   -0.071998  -0.001492  -0.001478  -0.023995  -0.004537   0.005662
     5  C   -0.200968  -0.004194  -0.004091   0.370062   0.206232   0.106024
     6  C    0.391663   0.004564   0.004580   0.025925  -0.257001  -0.213497
     7  C   -0.004771  -0.000198   0.000497   0.027629   0.444601   0.366310
     8  C   -0.003268  -0.000002   0.000038  -0.058700  -0.068295  -0.010502
     9  C   -0.003758  -0.000001  -0.000001   0.004749   0.008172   0.020134
    10  C   -0.003266   0.000038  -0.000002  -0.058697  -0.034215   0.001112
    11  C   -0.004760   0.000498  -0.000198   0.027624   0.014122   0.015863
    12  N    0.048333  -0.001445  -0.001453   0.001864  -0.003914  -0.000282
    13  O    7.790243  -0.000201  -0.000196   0.000086  -0.000056  -0.000472
    14  H   -0.000201   0.511894  -0.030908  -0.000000   0.000000   0.000000
    15  H   -0.000196  -0.030908   0.511894  -0.000000  -0.000000  -0.000000
    16  H    0.000086  -0.000000  -0.000000   0.575014   0.005009  -0.004952
    17  H   -0.000056   0.000000  -0.000000   0.005009   0.552667  -0.031491
    18  H   -0.000472   0.000000  -0.000000  -0.004952  -0.031491   0.575187
    19  H   -0.000007  -0.000000  -0.000000  -0.000026  -0.004668  -0.002661
    20  H    0.000006   0.000000  -0.000000   0.002795   0.004695  -0.004590
    21  H    0.000010  -0.000000  -0.000000   0.000070   0.002738   0.000002
    22  H    0.000001   0.000000   0.000000  -0.000006   0.000001  -0.000141
    23  H   -0.000007  -0.000000  -0.000000  -0.000026  -0.000025   0.000009
    24  H    0.000006  -0.000000   0.000000   0.002795   0.000086  -0.000015
    25  H   -0.000056  -0.000000   0.000000   0.005009   0.003035  -0.000023
    26  H   -0.000472  -0.000000   0.000000  -0.004952  -0.000023  -0.000140
              19         20         21         22         23         24
     1  Cl  -0.000000  -0.000002  -0.000000  -0.000000  -0.000000  -0.000002
     2  C    0.000060   0.000005  -0.000060  -0.000004   0.000060   0.000005
     3  C    0.001708  -0.001577  -0.003128  -0.000170   0.001709  -0.001578
     4  N   -0.000062  -0.000930  -0.000121  -0.000006  -0.000062  -0.000930
     5  C    0.010779   0.006297  -0.055307  -0.006666   0.010792   0.006292
     6  C    0.004251   0.033514   0.075111   0.000349   0.004237   0.033521
     7  C   -0.082749  -0.078228   0.004082   0.039498  -0.002374   0.000773
     8  C    0.416814   0.410135  -0.071375  -0.046328   0.027291  -0.028511
     9  C   -0.045965  -0.033277   0.424776   0.347011  -0.045963  -0.033277
    10  C    0.027289  -0.028509  -0.071366  -0.046329   0.416805   0.410140
    11  C   -0.002372   0.000770   0.004073   0.039498  -0.082742  -0.078235
    12  N   -0.000176  -0.000054   0.000713   0.000029  -0.000177  -0.000054
    13  O   -0.000007   0.000006   0.000010   0.000001  -0.000007   0.000006
    14  H   -0.000000   0.000000  -0.000000   0.000000  -0.000000  -0.000000
    15  H   -0.000000  -0.000000  -0.000000   0.000000  -0.000000   0.000000
    16  H   -0.000026   0.002795   0.000070  -0.000006  -0.000026   0.002795
    17  H   -0.004668   0.004695   0.002738   0.000001  -0.000025   0.000086
    18  H   -0.002661  -0.004590   0.000002  -0.000141   0.000009  -0.000015
    19  H    0.578778  -0.031712  -0.004476  -0.002491  -0.000139  -0.000020
    20  H   -0.031712   0.577714   0.005039  -0.004626  -0.000020   0.002957
    21  H   -0.004476   0.005039   0.577890  -0.031596  -0.004476   0.005039
    22  H   -0.002491  -0.004626  -0.031596   0.585470  -0.002491  -0.004626
    23  H   -0.000139  -0.000020  -0.004476  -0.002491   0.578778  -0.031712
    24  H   -0.000020   0.002957   0.005039  -0.004626  -0.031712   0.577713
    25  H   -0.000025   0.000086   0.002738   0.000001  -0.004668   0.004695
    26  H    0.000009  -0.000015   0.000002  -0.000141  -0.002661  -0.004590
              25         26
     1  Cl  -0.000024   0.000048
     2  C    0.000095   0.002336
     3  C    0.003084   0.033832
     4  N   -0.004537   0.005661
     5  C    0.206270   0.106080
     6  C   -0.257051  -0.213550
     7  C    0.014125   0.015863
     8  C   -0.034215   0.001112
     9  C    0.008173   0.020136
    10  C   -0.068296  -0.010512
    11  C    0.444598   0.366315
    12  N   -0.003913  -0.000284
    13  O   -0.000056  -0.000472
    14  H   -0.000000  -0.000000
    15  H    0.000000   0.000000
    16  H    0.005009  -0.004952
    17  H    0.003035  -0.000023
    18  H   -0.000023  -0.000140
    19  H   -0.000025   0.000009
    20  H    0.000086  -0.000015
    21  H    0.002738   0.000002
    22  H    0.000001  -0.000141
    23  H   -0.004668  -0.002661
    24  H    0.004695  -0.004590
    25  H    0.552667  -0.031492
    26  H   -0.031492   0.575189
 Mulliken charges:
               1
     1  Cl   0.006732
     2  C   -1.042727
     3  C   -0.624331
     4  N   -0.154674
     5  C   -0.449781
     6  C    2.004929
     7  C   -0.358506
     8  C   -0.167385
     9  C   -0.320453
    10  C   -0.167373
    11  C   -0.358477
    12  N   -0.512878
    13  O    0.126711
    14  H    0.219054
    15  H    0.219049
    16  H    0.147988
    17  H    0.159727
    18  H    0.142252
    19  H    0.137862
    20  H    0.139527
    21  H    0.139625
    22  H    0.133764
    23  H    0.137861
    24  H    0.139527
    25  H    0.159727
    26  H    0.142249
 Sum of Mulliken charges =  -0.00000
 Mulliken charges with hydrogens summed into heavy atoms:
               1
     1  Cl   0.006732
     2  C   -0.604625
     3  C   -0.624331
     4  N   -0.154674
     5  C   -0.449781
     6  C    2.152918
     7  C   -0.056527
     8  C    0.110004
     9  C   -0.047064
    10  C    0.110015
    11  C   -0.056501
    12  N   -0.512878
    13  O    0.126711
 Electronic spatial extent (au):  <R**2>=           4031.2099
 Charge=             -0.0000 electrons
 Dipole moment (field-independent basis, Debye):
    X=             -0.4279    Y=              0.3688    Z=              0.0004  Tot=              0.5649
 Quadrupole moment (field-independent basis, Debye-Ang):
   XX=            -77.8754   YY=            -92.4324   ZZ=            -83.9993
   XY=              8.0181   XZ=             -0.0006   YZ=              0.0031
 Traceless Quadrupole moment (field-independent basis, Debye-Ang):
   XX=              6.8936   YY=             -7.6634   ZZ=              0.7698
   XY=              8.0181   XZ=             -0.0006   YZ=              0.0031
 Octapole moment (field-independent basis, Debye-Ang**2):
  XXX=             29.8610  YYY=            -13.7886  ZZZ=             -0.0016  XYY=              5.4511
  XXY=             30.0336  XXZ=             -0.0022  XZZ=             10.4056  YZZ=              3.1826
  YYZ=              0.0050  XYZ=              0.0026
 Hexadecapole moment (field-independent basis, Debye-Ang**3):
 XXXX=          -4472.5159 YYYY=           -548.8618 ZZZZ=           -415.8802 XXXY=            106.7362
 XXXZ=             -0.0081 YYYX=            -24.9066 YYYZ=              0.0023 ZZZX=              0.0033
 ZZZY=              0.0007 XXYY=           -824.8849 XXZZ=           -803.7556 YYZZ=           -160.4592
 XXYZ=              0.0045 YYXZ=              0.0026 ZZXY=              3.1752
 N-N= 8.760563206347D+02 E-N=-4.088661164833D+03  KE= 9.892407830145D+02
 Unable to Open any file for archive entry.
 1\1\GINC-N2\SP\RB3LYP TD-FC\6-31+G(d,p)\C9H13Cl1N2O1\HPCMGAC13\17-Sep-
 2025\0\\# td=(50-50,nstates=3) b3lyp/6-31+g(d,p) geom=connectivity\\Ti
 tle Card Required\\0,1\Cl,0,-4.186965,-1.24195,-0.000201\C,0,-3.593733
 ,0.448985,-0.000071\C,0,-2.099765,0.546456,0.000059\N,0,-1.187335,-0.3
 74364,-0.000235\C,0,-0.013826,0.365072,0.000043\C,0,1.34818,-0.270926,
 -0.000132\C,0,2.150907,0.088229,1.27253\C,0,3.530945,-0.586238,1.26886
 4\C,0,4.327112,-0.244118,0.000014\C,0,3.531062,-0.585308,-1.269159\C,0
 ,2.151022,0.08916,-1.272459\N,0,-0.197399,1.662664,0.000558\O,0,-1.604
 726,1.796341,0.000487\H,0,-3.995354,0.946436,-0.885787\H,0,-3.995498,0
 .946364,0.885618\H,0,1.166818,-1.353065,-0.000537\H,0,2.269015,1.17871
 3,1.318878\H,0,1.583866,-0.20717,2.16355\H,0,4.090895,-0.28622,2.16295
 7\H,0,3.401738,-1.676561,1.333543\H,0,4.563761,0.829801,0.000419\H,0,5
 .286529,-0.77573,-0.000137\H,0,4.091093,-0.284633,-2.16298\H,0,3.40186
 2,-1.675583,-1.334651\H,0,2.269134,1.179678,-1.317999\H,0,1.584063,-0.
 205588,-2.163746\\Version=ES64L-G16RevC.02\State=1-A\HF=-995.7188882\R
 MSD=7.439e-09\PG=C01 [X(C9H13Cl1N2O1)]\\@
 The archive entry for this job was punched.


 The mind is not a vessel to be filled but a fire to be kindled.
                                  -- Plutarch
 Job cpu time:       0 days  0 hours 30 minutes 16.1 seconds.
 Elapsed time:       0 days  0 hours  3 minutes 51.3 seconds.
 File lengths (MBytes):  RWF=    634 Int=      0 D2E=      0 Chk=     27 Scr=      2
 Normal termination of Gaussian 16 at Wed Sep 17 14:45:19 2025.
