 Entering Gaussian System, Link 0=g16
 Input=M2555E.gjf
 Output=M2555E.log
 Initial command:
 /hpc/softwares/Gaussian/g16/l1.exe "/hpc/home/hpcmgac13/pbs.12419.admin1.x8z/Gau-1776683.inp" -scrdir="/hpc/home/hpcmgac13/pbs.12419.admin1.x8z/"
 Default linda workers: n1
 Default is to use  16 SMP processors on each worker.
 Entering Link 1 = /hpc/softwares/Gaussian/g16/l1.exe PID=   1776684.
  
 Copyright (c) 1988-2021, Gaussian, Inc.  All Rights Reserved.
  
 This is part of the Gaussian(R) 16 program.  It is based on
 the Gaussian(R) 09 system (copyright 2009, Gaussian, Inc.),
 the Gaussian(R) 03 system (copyright 2003, Gaussian, Inc.),
 the Gaussian(R) 98 system (copyright 1998, Gaussian, Inc.),
 the Gaussian(R) 94 system (copyright 1995, Gaussian, Inc.),
 the Gaussian 92(TM) system (copyright 1992, Gaussian, Inc.),
 the Gaussian 90(TM) system (copyright 1990, Gaussian, Inc.),
 the Gaussian 88(TM) system (copyright 1988, Gaussian, Inc.),
 the Gaussian 86(TM) system (copyright 1986, Carnegie Mellon
 University), and the Gaussian 82(TM) system (copyright 1983,
 Carnegie Mellon University). Gaussian is a federally registered
 trademark of Gaussian, Inc.
  
 This software contains proprietary and confidential information,
 including trade secrets, belonging to Gaussian, Inc.
  
 This software is provided under written license and may be
 used, copied, transmitted, or stored only in accord with that
 written license.
  
 The following legend is applicable only to US Government
 contracts under FAR:
  
                    RESTRICTED RIGHTS LEGEND
  
 Use, reproduction and disclosure by the US Government is
 subject to restrictions as set forth in subparagraphs (a)
 and (c) of the Commercial Computer Software - Restricted
 Rights clause in FAR 52.227-19.
  
 Gaussian, Inc.
 340 Quinnipiac St., Bldg. 40, Wallingford CT 06492
  
  
 ---------------------------------------------------------------
 Warning -- This program may not be used in any manner that
 competes with the business of Gaussian, Inc. or will provide
 assistance to any competitor of Gaussian, Inc.  The licensee
 of this program is prohibited from giving any competitor of
 Gaussian, Inc. access to this program.  By using this program,
 the user acknowledges that Gaussian, Inc. is engaged in the
 business of creating and licensing software in the field of
 computational chemistry and represents and warrants to the
 licensee that it is not a competitor of Gaussian, Inc. and that
 it will not use this program in any manner prohibited above.
 ---------------------------------------------------------------
  

 Cite this work as:
 Gaussian 16, Revision C.02,
 M. J. Frisch, G. W. Trucks, H. B. Schlegel, G. E. Scuseria, 
 M. A. Robb, J. R. Cheeseman, G. Scalmani, V. Barone, 
 G. A. Petersson, H. Nakatsuji, X. Li, M. Caricato, A. V. Marenich, 
 J. Bloino, B. G. Janesko, R. Gomperts, B. Mennucci, H. P. Hratchian, 
 J. V. Ortiz, A. F. Izmaylov, J. L. Sonnenberg, D. Williams-Young, 
 F. Ding, F. Lipparini, F. Egidi, J. Goings, B. Peng, A. Petrone, 
 T. Henderson, D. Ranasinghe, V. G. Zakrzewski, J. Gao, N. Rega, 
 G. Zheng, W. Liang, M. Hada, M. Ehara, K. Toyota, R. Fukuda, 
 J. Hasegawa, M. Ishida, T. Nakajima, Y. Honda, O. Kitao, H. Nakai, 
 T. Vreven, K. Throssell, J. A. Montgomery, Jr., J. E. Peralta, 
 F. Ogliaro, M. J. Bearpark, J. J. Heyd, E. N. Brothers, K. N. Kudin, 
 V. N. Staroverov, T. A. Keith, R. Kobayashi, J. Normand, 
 K. Raghavachari, A. P. Rendell, J. C. Burant, S. S. Iyengar, 
 J. Tomasi, M. Cossi, J. M. Millam, M. Klene, C. Adamo, R. Cammi, 
 J. W. Ochterski, R. L. Martin, K. Morokuma, O. Farkas, 
 J. B. Foresman, and D. J. Fox, Gaussian, Inc., Wallingford CT, 2019.
 
 ******************************************
 Gaussian 16:  ES64L-G16RevC.02  7-Dec-2021
                29-Jul-2025 
 ******************************************
 SetLPE:    new flags="-opt 'Tsnet.Node.lindarsharg: ssh'  -nodelist 'n1' -env GAUSS_MDEF=2147483648 -env GAUSS_EXEDIR="/hpc/softwares/Gaussian/g16/bsd:/hpc/softwares/Gaussian/g16""
 Will use up to    1 processors via Linda.
 ----------------------------------------------------------
 # td=(50-50,nstates=3) b3lyp/6-31+g(d,p) geom=connectivity
 ----------------------------------------------------------
 1/38=1,57=2,172=1/1;
 2/12=2,17=6,18=5,40=1/2;
 3/5=1,6=6,7=111,11=9,25=1,30=1,74=-5/1,2,3,8;
 4//1;
 5/5=2,38=5/2;
 8/6=1,10=2,108=3/1;
 9/41=3,42=1,48=2,70=2/14;
 6/7=2,8=2,9=2,10=2/1;
 99/5=1,9=1/99;
 -------------------
 Title Card Required
 -------------------
 Symbolic Z-matrix:
 Charge =  0 Multiplicity = 1
 C                    -3.26015  -2.11534   0.31125 
 N                    -1.95811  -1.58717  -0.08035 
 C                    -0.83545  -2.52285  -0.06168 
 C                     0.3553   -1.95147  -0.81442 
 N                     0.73454  -0.66119  -0.21572 
 C                     2.13636  -0.21521  -0.22952 
 C                     2.60191   0.47712   1.07683 
 C                     4.14409   0.34017   1.00346 
 C                     4.37824  -0.74366  -0.09461 
 N                     3.0609   -1.3473   -0.39363 
 C                    -0.29431   0.24796  -0.17693 
 C                    -0.32108   1.62532  -0.21602 
 C                     0.72401   2.53968  -0.46696 
 N                     1.53918   3.34786  -0.68746 
 C                    -1.73657   2.11649  -0.02638 
 C                    -2.53284   0.83821   0.07853 
 C                    -3.9323    0.87327   0.256 
 N                    -5.08848   0.97011   0.40011 
 C                    -1.69104  -0.24875  -0.04328 
 H                    -4.06425  -1.54981  -0.15905 
 H                    -3.32886  -3.15297  -0.02359 
 H                    -3.40446  -2.0855    1.40057 
 H                    -1.15894  -3.4486   -0.54932 
 H                    -0.54272  -2.76956   0.97185 
 H                     0.10672  -1.82944  -1.87918 
 H                     1.19562  -2.63873  -0.75673 
 H                     2.3072    0.45599  -1.08421 
 H                     2.2852    1.51494   1.17097 
 H                     2.18871  -0.08636   1.92224 
 H                     4.56167   0.03926   1.96908 
 H                     4.61494   1.2883    0.72788 
 H                     4.76376  -0.28907  -1.01316 
 H                     5.07877  -1.52775   0.20292 
 H                     2.86346  -2.01267   0.35713 
 H                    -2.0638    2.73564  -0.87225 
 H                    -1.83627   2.73459   0.87667 
 
                          Input orientation:                          
 ---------------------------------------------------------------------
 Center     Atomic      Atomic             Coordinates (Angstroms)
 Number     Number       Type             X           Y           Z
 ---------------------------------------------------------------------
      1          6           0       -3.260148   -2.115336    0.311249
      2          7           0       -1.958109   -1.587174   -0.080350
      3          6           0       -0.835447   -2.522845   -0.061681
      4          6           0        0.355302   -1.951470   -0.814424
      5          7           0        0.734535   -0.661192   -0.215717
      6          6           0        2.136364   -0.215211   -0.229516
      7          6           0        2.601908    0.477123    1.076826
      8          6           0        4.144087    0.340172    1.003459
      9          6           0        4.378244   -0.743661   -0.094608
     10          7           0        3.060902   -1.347300   -0.393626
     11          6           0       -0.294308    0.247956   -0.176931
     12          6           0       -0.321080    1.625316   -0.216019
     13          6           0        0.724014    2.539676   -0.466962
     14          7           0        1.539176    3.347857   -0.687462
     15          6           0       -1.736572    2.116493   -0.026381
     16          6           0       -2.532843    0.838205    0.078527
     17          6           0       -3.932297    0.873273    0.255995
     18          7           0       -5.088482    0.970107    0.400109
     19          6           0       -1.691038   -0.248751   -0.043280
     20          1           0       -4.064249   -1.549810   -0.159054
     21          1           0       -3.328857   -3.152969   -0.023588
     22          1           0       -3.404461   -2.085496    1.400569
     23          1           0       -1.158935   -3.448596   -0.549317
     24          1           0       -0.542724   -2.769564    0.971850
     25          1           0        0.106724   -1.829437   -1.879182
     26          1           0        1.195615   -2.638731   -0.756734
     27          1           0        2.307202    0.455992   -1.084207
     28          1           0        2.285198    1.514936    1.170970
     29          1           0        2.188705   -0.086356    1.922239
     30          1           0        4.561667    0.039255    1.969076
     31          1           0        4.614941    1.288295    0.727880
     32          1           0        4.763757   -0.289068   -1.013164
     33          1           0        5.078771   -1.527745    0.202916
     34          1           0        2.863462   -2.012668    0.357127
     35          1           0       -2.063804    2.735643   -0.872247
     36          1           0       -1.836272    2.734590    0.876666
 ---------------------------------------------------------------------
                    Distance matrix (angstroms):
                    1          2          3          4          5
     1  C    0.000000
     2  N    1.458633   0.000000
     3  C    2.486828   1.461574   0.000000
     4  C    3.790181   2.454271   1.520189   0.000000
     5  N    4.283657   2.850631   2.440148   1.472102   0.000000
     6  C    5.746759   4.320792   3.766298   2.555170   1.471127
     7  C    6.455281   5.137522   4.702278   3.810791   2.540376
     8  C    7.831435   6.490462   5.841845   4.786566   3.756882
     9  C    7.771180   6.392268   5.509007   4.261572   3.646654
    10  N    6.406434   5.034496   4.083336   2.803991   2.431950
    11  C    3.823568   2.478964   2.825500   2.380308   1.373526
    12  C    4.786294   3.608097   4.182778   3.689035   2.518421
    13  C    6.176431   4.937018   5.312748   4.519632   3.210731
    14  N    7.340123   6.078990   6.363614   5.431440   4.116122
    15  C    4.510394   3.710679   4.726175   4.641688   3.722600
    16  C    3.050662   2.497604   3.767953   4.113518   3.607011
    17  C    3.063759   3.172435   4.607061   5.244852   4.935222
    18  N    3.587570   4.070597   5.522886   6.296466   6.078479
    19  C    2.464130   1.365312   2.429790   2.771538   2.466424
    20  H    1.089763   2.107941   3.373639   4.485897   4.880695
    21  H    1.092483   2.081799   2.572081   3.955003   4.770432
    22  H    1.099243   2.129174   2.988190   4.365773   4.666081
    23  H    2.633107   2.079303   1.095193   2.145829   3.386169
    24  H    2.872073   2.123319   1.102154   2.160209   2.736227
    25  H    4.026854   2.749186   2.161437   1.100178   2.127454
    26  H    4.611763   3.392527   2.149824   1.087098   2.101417
    27  H    6.289230   4.834784   4.449188   3.111040   2.115575
    28  H    6.683476   5.403197   5.249908   4.436469   3.010480
    29  H    6.033411   4.843437   4.360953   3.785412   2.648755
    30  H    8.280788   7.025162   6.310085   5.422579   4.462162
    31  H    8.589256   7.219871   6.697382   5.569498   4.443920
    32  H    8.335009   6.909320   6.102964   4.715671   4.124200
    33  H    8.360297   7.042830   6.003183   4.850328   4.449557
    34  H    6.124642   4.860039   3.757341   2.768961   2.585917
    35  H    5.134579   4.396023   5.460547   5.274888   4.449744
    36  H    5.086148   4.428134   5.433486   5.442604   4.397009
                    6          7          8          9         10
     6  C    0.000000
     7  C    1.550028   0.000000
     8  C    2.420667   1.549985   0.000000
     9  C    2.307268   2.453149   1.560537   0.000000
    10  N    1.470826   2.387765   2.443910   1.479588   0.000000
    11  C    2.474966   3.164252   4.593601   4.777324   3.721456
    12  C    3.070302   3.396123   4.803794   5.264071   4.506195
    13  C    3.104918   3.188086   4.323986   4.926697   4.535968
    14  N    3.641676   3.533161   4.323302   5.015207   4.944339
    15  C    4.525234   4.767285   6.228807   6.751008   5.928616
    16  C    4.796464   5.243343   6.759063   7.091925   6.024064
    17  C    6.184591   6.597464   8.128399   8.473635   7.365988
    18  N    7.348456   7.735831   9.273682   9.633309   8.509574
    19  C    3.832077   4.495655   5.957447   6.089643   4.889835
    20  H    6.343006   7.076264   8.502955   8.481139   7.131887
    21  H    6.208178   7.040061   8.312746   8.075222   6.650292
    22  H    6.070905   6.538218   7.938648   8.037821   6.750184
    23  H    4.627747   5.674465   6.699845   6.179303   4.716642
    24  H    3.891724   4.521140   5.624736   5.427480   4.107734
    25  H    3.073526   4.503792   5.414529   4.754944   3.341631
    26  H    2.652624   3.879194   4.545947   3.762822   2.297594
    27  H    1.100089   2.181138   2.783148   2.589921   2.072879
    28  H    2.230901   1.089139   2.205357   3.329233   3.352920
    29  H    2.156245   1.096799   2.202181   3.048574   2.777398
    30  H    3.283391   2.197383   1.094230   2.214812   3.123650
    31  H    3.052946   2.198196   1.093885   2.204849   3.258707
    32  H    2.742764   3.103014   2.201523   1.094998   2.098427
    33  H    3.250769   3.304249   2.236877   1.092724   2.111923
    34  H    2.025752   2.604887   2.755649   2.027069   1.022412
    35  H    5.173205   5.537930   6.913354   7.362762   6.569788
    36  H    5.070188   4.983339   6.443136   7.187615   6.500599
                   11         12         13         14         15
    11  C    0.000000
    12  C    1.378175   0.000000
    13  C    2.524496   1.411116   0.000000
    14  N    3.637539   2.578751   1.168874   0.000000
    15  C    2.365211   1.510243   2.535287   3.561434   0.000000
    16  C    2.329097   2.366051   3.714792   4.844216   1.509660
    17  C    3.716640   3.718771   4.998079   6.078708   2.539004
    18  N    4.882477   4.851498   6.082801   7.124771   3.568108
    19  C    1.488434   2.327821   3.713126   4.876971   2.365743
    20  H    4.176690   4.908766   6.304456   7.460880   4.344820
    21  H    4.560515   5.649403   7.002039   8.148571   5.504781
    22  H    4.196017   5.088293   6.474889   7.636802   4.740754
    23  H    3.814544   5.153414   6.277872   7.313731   5.619372
    24  H    3.238338   4.557974   5.644717   6.671616   5.127893
    25  H    2.715520   3.858037   4.632986   5.502408   4.732967
    26  H    3.299849   4.557942   5.207905   5.996838   5.634119
    27  H    2.763021   3.004819   2.688720   3.018303   4.497596
    28  H    3.174260   2.954422   2.483990   2.714759   4.239122
    29  H    3.268583   3.714968   3.840527   4.361909   4.904841
    30  H    5.313134   5.579556   5.187867   5.209558   6.925647
    31  H    5.099188   5.036748   4.258276   3.962994   6.449538
    32  H    5.154775   5.491436   4.961819   4.871471   7.001053
    33  H    5.671629   6.267032   5.996379   6.090402   7.731879
    34  H    3.920096   4.868751   5.097077   5.619620   6.193332
    35  H    3.131001   2.168075   2.823931   3.659292   1.098142
    36  H    3.109834   2.172615   2.897998   3.770443   1.098853
                   16         17         18         19         20
    16  C    0.000000
    17  C    1.411097   0.000000
    18  N    2.579167   1.169149   0.000000
    19  C    1.380198   2.524232   3.636597   0.000000
    20  H    2.846799   2.461911   2.776994   2.708928   0.000000
    21  H    4.071061   4.080800   4.502839   3.334265   1.768975
    22  H    3.324987   3.216050   3.629539   2.897266   1.776149
    23  H    4.545159   5.197943   5.988964   3.283019   3.492641
    24  H    4.215993   5.027118   5.914046   2.950188   3.894597
    25  H    4.232759   5.308231   6.326356   3.016795   4.520403
    26  H    5.166057   6.297243   7.338384   3.814943   5.404548
    27  H    4.992401   6.395437   7.560665   4.191195   6.743481
    28  H    4.986473   6.317132   7.433856   4.516132   7.174755
    29  H    5.152388   6.415912   7.509357   4.352246   6.750771
    30  H    7.385429   8.705036   9.821075   6.574865   9.025547
    31  H    7.191318   8.570309   9.714170   6.536250   9.174412
    32  H    7.463438   8.864714  10.032421   6.527379   8.958385
    33  H    7.971817   9.325613  10.471446   6.893965   9.150209
    34  H    6.109436   7.383849   8.493068   4.900531   6.962317
    35  H    2.173532   2.869254   3.726216   3.119735   4.782837
    36  H    2.172214   2.871072   3.730600   3.125335   4.938895
                   21         22         23         24         25
    21  H    0.000000
    22  H    1.781415   0.000000
    23  H    2.252187   3.271465   0.000000
    24  H    2.983359   2.973430   1.776161   0.000000
    25  H    4.122885   4.811523   2.447879   3.071483   0.000000
    26  H    4.612244   5.110844   2.498561   2.454983   1.760832
    27  H    6.776037   6.727285   5.248430   4.770080   3.270669
    28  H    7.398238   6.737065   6.281567   5.137483   5.023346
    29  H    6.605592   5.962567   5.349761   3.945066   4.671593
    30  H    8.741932   8.264198   7.157702   5.910899   6.176376
    31  H    9.132002   8.726155   7.576742   6.567134   6.069682
    32  H    8.641273   8.704771   6.728748   6.184811   4.981032
    33  H    8.566263   8.585493   6.569969   5.808148   5.398833
    34  H    6.307935   6.354599   4.366143   3.543004   3.554470
    35  H    6.082461   5.496038   6.258425   6.001807   5.154131
    36  H    6.140164   5.095775   6.381536   5.654913   5.674529
                   26         27         28         29         30
    26  H    0.000000
    27  H    3.304569   0.000000
    28  H    4.707036   2.491520   0.000000
    29  H    3.831154   3.057270   1.771398   0.000000
    30  H    5.092343   3.818222   2.827882   2.376746   0.000000
    31  H    5.414555   3.049926   2.382309   3.033608   1.761677
    32  H    4.279989   2.568039   3.764057   3.910061   3.007057
    33  H    4.151400   3.643281   4.242533   3.658710   2.417066
    34  H    2.101037   2.912242   3.666159   2.572071   3.113305
    35  H    6.286577   4.934311   4.957689   5.818648   7.696784
    36  H    6.382234   5.119122   4.308211   5.025077   7.027931
                   31         32         33         34         35
    31  H    0.000000
    32  H    2.354029   0.000000
    33  H    2.901863   1.764201   0.000000
    34  H    3.755195   2.908542   2.272999   0.000000
    35  H    7.018608   7.468890   8.387421   6.952393   0.000000
    36  H    6.613022   7.501623   8.151028   6.700289   1.763652
                   36
    36  H    0.000000
 Stoichiometry    C14H17N5
 Framework group  C1[X(C14H17N5)]
 Deg. of freedom   102
 Full point group                 C1      NOp   1
 Largest Abelian subgroup         C1      NOp   1
 Largest concise Abelian subgroup C1      NOp   1
                         Standard orientation:                         
 ---------------------------------------------------------------------
 Center     Atomic      Atomic             Coordinates (Angstroms)
 Number     Number       Type             X           Y           Z
 ---------------------------------------------------------------------
      1          6           0       -3.260148   -2.115336    0.311249
      2          7           0       -1.958109   -1.587174   -0.080350
      3          6           0       -0.835447   -2.522845   -0.061681
      4          6           0        0.355302   -1.951470   -0.814424
      5          7           0        0.734535   -0.661192   -0.215717
      6          6           0        2.136364   -0.215211   -0.229516
      7          6           0        2.601908    0.477123    1.076826
      8          6           0        4.144087    0.340172    1.003459
      9          6           0        4.378244   -0.743661   -0.094608
     10          7           0        3.060902   -1.347300   -0.393626
     11          6           0       -0.294308    0.247956   -0.176931
     12          6           0       -0.321080    1.625316   -0.216019
     13          6           0        0.724014    2.539676   -0.466962
     14          7           0        1.539176    3.347857   -0.687462
     15          6           0       -1.736572    2.116493   -0.026381
     16          6           0       -2.532843    0.838205    0.078527
     17          6           0       -3.932297    0.873273    0.255995
     18          7           0       -5.088482    0.970107    0.400109
     19          6           0       -1.691038   -0.248751   -0.043280
     20          1           0       -4.064249   -1.549810   -0.159054
     21          1           0       -3.328857   -3.152969   -0.023588
     22          1           0       -3.404461   -2.085496    1.400569
     23          1           0       -1.158935   -3.448596   -0.549317
     24          1           0       -0.542724   -2.769564    0.971850
     25          1           0        0.106724   -1.829437   -1.879182
     26          1           0        1.195615   -2.638731   -0.756734
     27          1           0        2.307202    0.455992   -1.084207
     28          1           0        2.285198    1.514936    1.170970
     29          1           0        2.188705   -0.086356    1.922239
     30          1           0        4.561667    0.039255    1.969076
     31          1           0        4.614941    1.288295    0.727880
     32          1           0        4.763757   -0.289068   -1.013164
     33          1           0        5.078771   -1.527745    0.202916
     34          1           0        2.863462   -2.012668    0.357127
     35          1           0       -2.063804    2.735643   -0.872247
     36          1           0       -1.836272    2.734590    0.876666
 ---------------------------------------------------------------------
 Rotational constants (GHZ):           0.6730569           0.2692512           0.2036109
 Standard basis: 6-31+G(d,p) (6D, 7F)
 There are   446 symmetry adapted cartesian basis functions of A   symmetry.
 There are   446 symmetry adapted basis functions of A   symmetry.
   446 basis functions,   727 primitive gaussians,   446 cartesian basis functions
    68 alpha electrons       68 beta electrons
       nuclear repulsion energy      1417.4833965574 Hartrees.
 NAtoms=   36 NActive=   36 NUniq=   36 SFac= 1.00D+00 NAtFMM=   60 NAOKFM=F Big=F
 Integral buffers will be    131072 words long.
 Regular integral format.
 Two-electron integral symmetry is turned on.
 One-electron integrals computed using PRISM.
 NBasis=   446 RedAO= T EigKep=  1.01D-06  NBF=   446
 NBsUse=   445 1.00D-06 EigRej=  1.31D-07 NBFU=   445
 ExpMin= 4.38D-02 ExpMax= 4.17D+03 ExpMxC= 6.27D+02 IAcc=3 IRadAn=         5 AccDes= 0.00D+00
 Harris functional with IExCor=  402 and IRadAn=       5 diagonalized for initial guess.
 HarFok:  IExCor=  402 AccDes= 0.00D+00 IRadAn=         5 IDoV= 1 UseB2=F ITyADJ=14
 ICtDFT=  3500011 ScaDFX=  1.000000  1.000000  1.000000  1.000000
 FoFCou: FMM=F IPFlag=           0 FMFlag=      100000 FMFlg1=           0
         NFxFlg=           0 DoJE=T BraDBF=F KetDBF=T FulRan=T
         wScrn=  0.000000 ICntrl=       500 IOpCl=  0 I1Cent=   200000004 NGrid=           0
         NMat0=    1 NMatS0=      1 NMatT0=    0 NMatD0=    1 NMtDS0=    0 NMtDT0=    0
 Petite list used in FoFCou.
 Requested convergence on RMS density matrix=1.00D-08 within 128 cycles.
 Requested convergence on MAX density matrix=1.00D-06.
 Requested convergence on             energy=1.00D-06.
 No special actions if energy rises.
 SCF Done:  E(RB3LYP) =  -817.467579985     A.U. after   16 cycles
            NFock= 16  Conv=0.98D-08     -V/T= 2.0096
 DoSCS=F DFT=T ScalE2(SS,OS)=  1.000000  1.000000
 ExpMin= 4.38D-02 ExpMax= 4.17D+03 ExpMxC= 6.27D+02 IAcc=3 IRadAn=         5 AccDes= 0.00D+00
 HarFok:  IExCor=  205 AccDes= 0.00D+00 IRadAn=         5 IDoV=-2 UseB2=F ITyADJ=14
 ICtDFT= 12500011 ScaDFX=  1.000000  1.000000  1.000000  1.000000
 Range of M.O.s used for correlation:    20   445
 NBasis=   446 NAE=    68 NBE=    68 NFC=    19 NFV=     0
 NROrb=    426 NOA=    49 NOB=    49 NVA=   377 NVB=   377

 **** Warning!!: The largest alpha MO coefficient is  0.16475848D+03

 Orbital symmetries:
       Occupied  (A) (A) (A) (A) (A) (A) (A) (A) (A) (A) (A) (A)
                 (A) (A) (A) (A) (A) (A) (A) (A) (A) (A) (A) (A)
                 (A) (A) (A) (A) (A) (A) (A) (A) (A) (A) (A) (A)
                 (A) (A) (A) (A) (A) (A) (A) (A) (A) (A) (A) (A)
                 (A) (A) (A) (A) (A) (A) (A) (A) (A) (A) (A) (A)
                 (A) (A) (A) (A) (A) (A) (A) (A)
       Virtual   (A) (A) (A) (A) (A) (A) (A) (A) (A) (A) (A) (A)
                 (A) (A) (A) (A) (A) (A) (A) (A) (A) (A) (A) (A)
                 (A) (A) (A) (A) (A) (A) (A) (A) (A) (A) (A) (A)
                 (A) (A) (A) (A) (A) (A) (A) (A) (A) (A) (A) (A)
                 (A) (A) (A) (A) (A) (A) (A) (A) (A) (A) (A) (A)
                 (A) (A) (A) (A) (A) (A) (A) (A) (A) (A) (A) (A)
                 (A) (A) (A) (A) (A) (A) (A) (A) (A) (A) (A) (A)
                 (A) (A) (A) (A) (A) (A) (A) (A) (A) (A) (A) (A)
                 (A) (A) (A) (A) (A) (A) (A) (A) (A) (A) (A) (A)
                 (A) (A) (A) (A) (A) (A) (A) (A) (A) (A) (A) (A)
                 (A) (A) (A) (A) (A) (A) (A) (A) (A) (A) (A) (A)
                 (A) (A) (A) (A) (A) (A) (A) (A) (A) (A) (A) (A)
                 (A) (A) (A) (A) (A) (A) (A) (A) (A) (A) (A) (A)
                 (A) (A) (A) (A) (A) (A) (A) (A) (A) (A) (A) (A)
                 (A) (A) (A) (A) (A) (A) (A) (A) (A) (A) (A) (A)
                 (A) (A) (A) (A) (A) (A) (A) (A) (A) (A) (A) (A)
                 (A) (A) (A) (A) (A) (A) (A) (A) (A) (A) (A) (A)
                 (A) (A) (A) (A) (A) (A) (A) (A) (A) (A) (A) (A)
                 (A) (A) (A) (A) (A) (A) (A) (A) (A) (A) (A) (A)
                 (A) (A) (A) (A) (A) (A) (A) (A) (A) (A) (A) (A)
                 (A) (A) (A) (A) (A) (A) (A) (A) (A) (A) (A) (A)
                 (A) (A) (A) (A) (A) (A) (A) (A) (A) (A) (A) (A)
                 (A) (A) (A) (A) (A) (A) (A) (A) (A) (A) (A) (A)
                 (A) (A) (A) (A) (A) (A) (A) (A) (A) (A) (A) (A)
                 (A) (A) (A) (A) (A) (A) (A) (A) (A) (A) (A) (A)
                 (A) (A) (A) (A) (A) (A) (A) (A) (A) (A) (A) (A)
                 (A) (A) (A) (A) (A) (A) (A) (A) (A) (A) (A) (A)
                 (A) (A) (A) (A) (A) (A) (A) (A) (A) (A) (A) (A)
                 (A) (A) (A) (A) (A) (A) (A) (A) (A) (A) (A) (A)
                 (A) (A) (A) (A) (A) (A) (A) (A) (A) (A) (A) (A)
                 (A) (A) (A) (A) (A) (A) (A) (A) (A) (A) (A) (A)
                 (A) (A) (A) (A) (A)
    24 initial guesses have been made.
 Convergence on wavefunction:    0.001000000000000
 Iteration     1 Dimension    24 NMult     0 NNew     24
 CISAX will form    24 AO SS matrices at one time.
 New state      1 was old state      2
 New state      2 was old state      4
 New state      3 was old state      1
 New state      4 was old state      5
 New state      5 was old state      6
 New state      6 was old state      8
 New state      8 was old state      3
 New state      9 was old state     10
 New state     10 was old state      9
 New state     11 was old state     12
 New state     12 was old state     11
 Vector   6 SDiff=4.41D+00 TDiff=1.49D+01 assumed to be singlet.
 Vector  12 SDiff=3.97D+00 TDiff=1.11D+01 assumed to be singlet.
 Iteration     2 Dimension    36 NMult    24 NNew     12
 New state      6 was old state      7
 Iteration     3 Dimension    48 NMult    36 NNew     12
 Iteration     4 Dimension    60 NMult    48 NNew     12
 Iteration     5 Dimension    72 NMult    60 NNew     12
 Iteration     6 Dimension    80 NMult    72 NNew      8
 Iteration     7 Dimension    82 NMult    80 NNew      2
 Iteration     8 Dimension    84 NMult    82 NNew      2
 ***********************************************************************
 Excited states from <AA,BB:AA,BB> singles matrix:
 ***********************************************************************
 
 Ground to excited state transition densities written to RWF  633
 Ground to excited state transition electric dipole moments (Au):
       state          X           Y           Z        Dip. S.      Osc.
         1         0.0000     -0.0000     -0.0000      0.0000      0.0000
         2         0.0000     -0.0000      0.0000      0.0000      0.0000
         3        -1.1887     -0.1214      0.1549      1.4518      0.1312
         4        -0.3063      1.2543     -0.0239      1.6677      0.1656
         5        -0.0000     -0.0000      0.0000      0.0000      0.0000
         6         0.1953      0.1391      0.0128      0.0577      0.0065
 Ground to excited state transition velocity dipole moments (Au):
       state          X           Y           Z        Dip. S.      Osc.
         1        -0.0000     -0.0000      0.0000      0.0000      0.0000
         2        -0.0000     -0.0000     -0.0000      0.0000      0.0000
         3         0.1536      0.0143     -0.0201      0.0242      0.1190
         4         0.0448     -0.1791      0.0052      0.0341      0.1528
         5         0.0000     -0.0000     -0.0000      0.0000      0.0000
         6        -0.0319     -0.0241     -0.0048      0.0016      0.0064
 Ground to excited state transition magnetic dipole moments (Au):
       state          X           Y           Z
         1         0.0000     -0.0000      0.0000
         2         0.0000      0.0000     -0.0000
         3         0.0104     -0.0468     -0.1074
         4        -0.1412     -0.0189      0.3677
         5         0.0000      0.0000     -0.0000
         6         0.0292      0.0520      0.0898
 Ground to excited state transition velocity quadrupole moments (Au):
       state          XX          YY          ZZ          XY          XZ          YZ
         1         0.0000     -0.0000     -0.0000     -0.0000      0.0000      0.0000
         2         0.0000     -0.0000      0.0000     -0.0000     -0.0000      0.0000
         3        -1.2361      0.5987      0.0077      0.7266      0.0480     -0.1670
         4        -0.0092     -0.3744      0.0338      0.2244      0.0652      0.1291
         5         0.0000      0.0000      0.0000      0.0000     -0.0000      0.0000
         6         0.2235     -0.0876     -0.0304     -0.0525     -0.0566      0.0516
 <0|del|b> * <b|rxdel|0> + <0|del|b> * <b|delr+rdel|0>
 Rotatory Strengths (R) in cgs (10**-40 erg-esu-cm/Gauss)
       state          XX          YY          ZZ    R(velocity)    E-M Angle
         1        -0.0000      0.0000     -0.0000      0.0000       90.00
         2        -0.0000     -0.0000      0.0000     -0.0000       90.00
         3       -35.9874    -19.0361     71.1389      5.3718       80.28
         4        43.0683      0.4840    -48.4428     -1.6302       90.81
         5        -0.0000      0.0000      0.0000      0.0000       90.00
         6        -5.8621     -6.8445      1.7362     -3.6568      127.00
 1/2[<0|r|b>*<b|rxdel|0> + (<0|rxdel|b>*<b|r|0>)*]
 Rotatory Strengths (R) in cgs (10**-40 erg-esu-cm/Gauss)
       state          XX          YY          ZZ     R(length)
         1        -0.0000     -0.0000      0.0000     -0.0000
         2        -0.0000      0.0000      0.0000      0.0000
         3         8.7558     -4.0213     11.7598      5.4981
         4       -30.5864     16.7427      6.2132     -2.5435
         5         0.0000      0.0000      0.0000      0.0000
         6        -4.0331     -5.1166     -0.8100     -3.3199
  1/2[<0|del|b>*<b|r|0> + (<0|r|b>*<b|del|0>)*] (Au)
       state          X           Y           Z        Dip. S.   Osc.(frdel)
         1        -0.0000      0.0000     -0.0000      0.0000      0.0000
         2        -0.0000      0.0000     -0.0000      0.0000      0.0000
         3        -0.1826     -0.0017     -0.0031      0.1874      0.1249
         4        -0.0137     -0.2247     -0.0001      0.2385      0.1590
         5        -0.0000      0.0000     -0.0000      0.0000      0.0000
         6        -0.0062     -0.0033     -0.0001      0.0096      0.0064

 Excitation energies and oscillator strengths:
 
 Excited State   1:      Triplet-A      2.1944 eV  565.00 nm  f=0.0000  <S**2>=2.000
      68 -> 69         0.69414
      68 <- 69         0.10259
 This state for optimization and/or second-order correction.
 Total Energy, E(TD-HF/TD-DFT) =  -817.386936650    
 Copying the excited state density for this state as the 1-particle RhoCI density.
 
 Excited State   2:      Triplet-A      2.8230 eV  439.19 nm  f=0.0000  <S**2>=2.000
      67 -> 69         0.67986
 
 Excited State   3:      Singlet-A      3.6882 eV  336.17 nm  f=0.1312  <S**2>=0.000
      68 -> 69         0.70175
 
 Excited State   4:      Singlet-A      4.0522 eV  305.97 nm  f=0.1656  <S**2>=0.000
      67 -> 69         0.68156
      68 -> 70        -0.11131
 
 Excited State   5:      Triplet-A      4.5060 eV  275.15 nm  f=0.0000  <S**2>=2.000
      65 -> 69         0.11439
      66 -> 69         0.41575
      67 -> 69        -0.12518
      68 -> 70         0.46611
      68 -> 71        -0.12266
      68 -> 73        -0.12342
      68 -> 74         0.12831
 
 Excited State   6:      Singlet-A      4.5837 eV  270.49 nm  f=0.0065  <S**2>=0.000
      66 -> 69         0.70145
 SavETr:  write IOETrn=   770 NScale= 10 NData=  16 NLR=1 NState=    6 LETran=     118.

 **********************************************************************

            Population analysis using the SCF Density.

 **********************************************************************

 Orbital symmetries:
       Occupied  (A) (A) (A) (A) (A) (A) (A) (A) (A) (A) (A) (A)
                 (A) (A) (A) (A) (A) (A) (A) (A) (A) (A) (A) (A)
                 (A) (A) (A) (A) (A) (A) (A) (A) (A) (A) (A) (A)
                 (A) (A) (A) (A) (A) (A) (A) (A) (A) (A) (A) (A)
                 (A) (A) (A) (A) (A) (A) (A) (A) (A) (A) (A) (A)
                 (A) (A) (A) (A) (A) (A) (A) (A)
       Virtual   (A) (A) (A) (A) (A) (A) (A) (A) (A) (A) (A) (A)
                 (A) (A) (A) (A) (A) (A) (A) (A) (A) (A) (A) (A)
                 (A) (A) (A) (A) (A) (A) (A) (A) (A) (A) (A) (A)
                 (A) (A) (A) (A) (A) (A) (A) (A) (A) (A) (A) (A)
                 (A) (A) (A) (A) (A) (A) (A) (A) (A) (A) (A) (A)
                 (A) (A) (A) (A) (A) (A) (A) (A) (A) (A) (A) (A)
                 (A) (A) (A) (A) (A) (A) (A) (A) (A) (A) (A) (A)
                 (A) (A) (A) (A) (A) (A) (A) (A) (A) (A) (A) (A)
                 (A) (A) (A) (A) (A) (A) (A) (A) (A) (A) (A) (A)
                 (A) (A) (A) (A) (A) (A) (A) (A) (A) (A) (A) (A)
                 (A) (A) (A) (A) (A) (A) (A) (A) (A) (A) (A) (A)
                 (A) (A) (A) (A) (A) (A) (A) (A) (A) (A) (A) (A)
                 (A) (A) (A) (A) (A) (A) (A) (A) (A) (A) (A) (A)
                 (A) (A) (A) (A) (A) (A) (A) (A) (A) (A) (A) (A)
                 (A) (A) (A) (A) (A) (A) (A) (A) (A) (A) (A) (A)
                 (A) (A) (A) (A) (A) (A) (A) (A) (A) (A) (A) (A)
                 (A) (A) (A) (A) (A) (A) (A) (A) (A) (A) (A) (A)
                 (A) (A) (A) (A) (A) (A) (A) (A) (A) (A) (A) (A)
                 (A) (A) (A) (A) (A) (A) (A) (A) (A) (A) (A) (A)
                 (A) (A) (A) (A) (A) (A) (A) (A) (A) (A) (A) (A)
                 (A) (A) (A) (A) (A) (A) (A) (A) (A) (A) (A) (A)
                 (A) (A) (A) (A) (A) (A) (A) (A) (A) (A) (A) (A)
                 (A) (A) (A) (A) (A) (A) (A) (A) (A) (A) (A) (A)
                 (A) (A) (A) (A) (A) (A) (A) (A) (A) (A) (A) (A)
                 (A) (A) (A) (A) (A) (A) (A) (A) (A) (A) (A) (A)
                 (A) (A) (A) (A) (A) (A) (A) (A) (A) (A) (A) (A)
                 (A) (A) (A) (A) (A) (A) (A) (A) (A) (A) (A) (A)
                 (A) (A) (A) (A) (A) (A) (A) (A) (A) (A) (A) (A)
                 (A) (A) (A) (A) (A) (A) (A) (A) (A) (A) (A) (A)
                 (A) (A) (A) (A) (A) (A) (A) (A) (A) (A) (A) (A)
                 (A) (A) (A) (A) (A) (A) (A) (A) (A) (A) (A) (A)
                 (A) (A) (A) (A) (A)
 The electronic state is 1-A.
 Alpha  occ. eigenvalues --  -14.39888 -14.39626 -14.35264 -14.33947 -14.33454
 Alpha  occ. eigenvalues --  -10.27597 -10.27493 -10.27291 -10.25908 -10.25494
 Alpha  occ. eigenvalues --  -10.24066 -10.23587 -10.23341 -10.23156 -10.22871
 Alpha  occ. eigenvalues --  -10.22810 -10.22348 -10.19959 -10.19925  -1.01556
 Alpha  occ. eigenvalues --   -0.97897  -0.93547  -0.91117  -0.90407  -0.88059
 Alpha  occ. eigenvalues --   -0.79868  -0.77854  -0.77219  -0.76500  -0.73156
 Alpha  occ. eigenvalues --   -0.68437  -0.67933  -0.65536  -0.63214  -0.60364
 Alpha  occ. eigenvalues --   -0.57910  -0.56853  -0.54158  -0.52662  -0.51622
 Alpha  occ. eigenvalues --   -0.49482  -0.48303  -0.47235  -0.46845  -0.46265
 Alpha  occ. eigenvalues --   -0.45447  -0.44712  -0.43856  -0.43181  -0.42192
 Alpha  occ. eigenvalues --   -0.41639  -0.41340  -0.40012  -0.38978  -0.37374
 Alpha  occ. eigenvalues --   -0.37053  -0.36763  -0.36544  -0.36119  -0.35897
 Alpha  occ. eigenvalues --   -0.34608  -0.34302  -0.33253  -0.32242  -0.30734
 Alpha  occ. eigenvalues --   -0.26402  -0.23620  -0.21916
 Alpha virt. eigenvalues --   -0.07304  -0.02383  -0.00712   0.00133   0.00357
 Alpha virt. eigenvalues --    0.00664   0.01026   0.01626   0.02368   0.02408
 Alpha virt. eigenvalues --    0.02902   0.03105   0.03366   0.03722   0.04241
 Alpha virt. eigenvalues --    0.05080   0.05350   0.05858   0.06023   0.06079
 Alpha virt. eigenvalues --    0.06955   0.07113   0.07783   0.08070   0.08891
 Alpha virt. eigenvalues --    0.09081   0.09305   0.09788   0.10375   0.10423
 Alpha virt. eigenvalues --    0.10637   0.10965   0.11510   0.12013   0.12146
 Alpha virt. eigenvalues --    0.12510   0.12818   0.13246   0.13887   0.14165
 Alpha virt. eigenvalues --    0.14733   0.14803   0.15143   0.15334   0.15815
 Alpha virt. eigenvalues --    0.16442   0.16536   0.16855   0.17351   0.17740
 Alpha virt. eigenvalues --    0.17946   0.18968   0.19082   0.19409   0.19648
 Alpha virt. eigenvalues --    0.20331   0.20392   0.20655   0.20931   0.21006
 Alpha virt. eigenvalues --    0.21454   0.22054   0.22184   0.22630   0.22854
 Alpha virt. eigenvalues --    0.23213   0.23788   0.24042   0.24519   0.25007
 Alpha virt. eigenvalues --    0.25365   0.25595   0.25767   0.26013   0.26414
 Alpha virt. eigenvalues --    0.26720   0.27013   0.27105   0.27243   0.27768
 Alpha virt. eigenvalues --    0.28116   0.28266   0.28546   0.29206   0.29297
 Alpha virt. eigenvalues --    0.29716   0.29798   0.30164   0.30359   0.30485
 Alpha virt. eigenvalues --    0.31049   0.31190   0.31331   0.32384   0.32702
 Alpha virt. eigenvalues --    0.33600   0.34204   0.34503   0.35329   0.35777
 Alpha virt. eigenvalues --    0.36776   0.37055   0.37982   0.38651   0.38763
 Alpha virt. eigenvalues --    0.39345   0.40133   0.40407   0.41429   0.41865
 Alpha virt. eigenvalues --    0.42548   0.43238   0.44178   0.45469   0.48017
 Alpha virt. eigenvalues --    0.49854   0.56836   0.61279   0.62603   0.64518
 Alpha virt. eigenvalues --    0.64942   0.65861   0.66368   0.67147   0.67811
 Alpha virt. eigenvalues --    0.68315   0.69392   0.69788   0.70311   0.71473
 Alpha virt. eigenvalues --    0.71670   0.72145   0.73205   0.74299   0.74991
 Alpha virt. eigenvalues --    0.75976   0.77168   0.77648   0.78578   0.79438
 Alpha virt. eigenvalues --    0.80250   0.81446   0.81748   0.82633   0.83211
 Alpha virt. eigenvalues --    0.84814   0.85335   0.86428   0.87362   0.87813
 Alpha virt. eigenvalues --    0.89206   0.90000   0.91261   0.91670   0.92059
 Alpha virt. eigenvalues --    0.93112   0.93348   0.95057   0.95517   0.95947
 Alpha virt. eigenvalues --    0.97262   0.97989   0.98373   0.99359   0.99890
 Alpha virt. eigenvalues --    1.01525   1.02268   1.03146   1.03460   1.04231
 Alpha virt. eigenvalues --    1.04797   1.05299   1.05994   1.07253   1.07737
 Alpha virt. eigenvalues --    1.08966   1.09916   1.10310   1.10960   1.11547
 Alpha virt. eigenvalues --    1.13145   1.13506   1.14070   1.14599   1.15566
 Alpha virt. eigenvalues --    1.16016   1.17860   1.19449   1.19796   1.21750
 Alpha virt. eigenvalues --    1.23509   1.23966   1.25984   1.26342   1.28825
 Alpha virt. eigenvalues --    1.30007   1.31165   1.32056   1.32600   1.34360
 Alpha virt. eigenvalues --    1.36168   1.39109   1.39498   1.44680   1.45297
 Alpha virt. eigenvalues --    1.47700   1.49002   1.49430   1.51585   1.52171
 Alpha virt. eigenvalues --    1.53600   1.54129   1.56173   1.56900   1.58039
 Alpha virt. eigenvalues --    1.59991   1.62153   1.62919   1.63243   1.64145
 Alpha virt. eigenvalues --    1.65302   1.66407   1.66911   1.68500   1.70245
 Alpha virt. eigenvalues --    1.71758   1.73190   1.74677   1.76231   1.76443
 Alpha virt. eigenvalues --    1.77944   1.78558   1.81793   1.82191   1.83321
 Alpha virt. eigenvalues --    1.85288   1.85792   1.86944   1.88665   1.89579
 Alpha virt. eigenvalues --    1.91041   1.92079   1.93163   1.93704   1.94065
 Alpha virt. eigenvalues --    1.94357   1.94893   1.96046   1.96903   1.97737
 Alpha virt. eigenvalues --    1.98037   1.98872   2.00117   2.01746   2.02040
 Alpha virt. eigenvalues --    2.02852   2.03841   2.05322   2.06157   2.06940
 Alpha virt. eigenvalues --    2.07837   2.09472   2.10566   2.10819   2.12173
 Alpha virt. eigenvalues --    2.12452   2.13538   2.14378   2.15057   2.17493
 Alpha virt. eigenvalues --    2.18162   2.18382   2.19782   2.24117   2.24333
 Alpha virt. eigenvalues --    2.27203   2.27480   2.28672   2.29784   2.30690
 Alpha virt. eigenvalues --    2.31719   2.36197   2.38009   2.39381   2.41161
 Alpha virt. eigenvalues --    2.41690   2.42358   2.44196   2.45093   2.45263
 Alpha virt. eigenvalues --    2.48683   2.48918   2.50537   2.51673   2.53424
 Alpha virt. eigenvalues --    2.54144   2.56096   2.56870   2.57996   2.58112
 Alpha virt. eigenvalues --    2.59096   2.61787   2.63392   2.64133   2.65762
 Alpha virt. eigenvalues --    2.66181   2.68006   2.68224   2.69008   2.71126
 Alpha virt. eigenvalues --    2.71931   2.72257   2.74151   2.77429   2.78272
 Alpha virt. eigenvalues --    2.79795   2.80377   2.81156   2.82189   2.83496
 Alpha virt. eigenvalues --    2.85118   2.85833   2.86054   2.87063   2.88453
 Alpha virt. eigenvalues --    2.89946   2.92022   2.94296   2.95638   2.98488
 Alpha virt. eigenvalues --    2.99621   3.03230   3.06651   3.09403   3.10728
 Alpha virt. eigenvalues --    3.12632   3.15470   3.16989   3.24049   3.26039
 Alpha virt. eigenvalues --    3.29300   3.31772   3.32331   3.34400   3.35169
 Alpha virt. eigenvalues --    3.36030   3.40357   3.42285   3.42598   3.44204
 Alpha virt. eigenvalues --    3.45688   3.46448   3.48360   3.49255   3.51997
 Alpha virt. eigenvalues --    3.53012   3.55392   3.60382   4.26206   4.29633
 Alpha virt. eigenvalues --    4.32943   4.33696   4.38134   4.39431   4.45117
 Alpha virt. eigenvalues --    4.46884   4.47991   4.52640   4.55276   4.59684
 Alpha virt. eigenvalues --    4.63164   4.64570   4.69825   4.74984   4.85685
 Alpha virt. eigenvalues --    4.86572   4.89936
          Condensed to atoms (all electrons):
               1          2          3          4          5          6
     1  C    5.263153   0.169700  -0.096730  -0.005143  -0.048247   0.007537
     2  N    0.169700   7.309225   0.125276  -0.018058  -0.129850  -0.037497
     3  C   -0.096730   0.125276   5.751872  -0.039729   0.053409  -0.149856
     4  C   -0.005143  -0.018058  -0.039729   5.810146  -0.010202  -0.016923
     5  N   -0.048247  -0.129850   0.053409  -0.010202   7.566400   0.211845
     6  C    0.007537  -0.037497  -0.149856  -0.016923   0.211845   9.983530
     7  C   -0.011181  -0.004568  -0.031219   0.076549   0.037242  -1.758115
     8  C   -0.000953   0.006314  -0.026028  -0.029310   0.033074   0.846295
     9  C   -0.000116  -0.005390   0.020898   0.034381  -0.069101  -0.598353
    10  N   -0.002356  -0.007466   0.010745  -0.020214  -0.029599  -0.067451
    11  C   -0.134829   0.058077   0.023934  -0.206223  -0.224352  -2.347476
    12  C   -0.162771   0.248873  -0.662795   0.314834  -0.064982   2.154959
    13  C   -0.009908   0.022710   0.017370  -0.061196  -0.142022  -0.607585
    14  N    0.000193   0.000286  -0.000635   0.001197  -0.005477   0.052110
    15  C    0.056021  -0.006429   0.028128  -0.037018  -0.032712   0.225418
    16  C    0.257079  -0.366687  -0.222216  -0.023703   0.129365  -0.588285
    17  C   -0.246749  -0.110702   0.017115   0.002814   0.051613  -0.278300
    18  N    0.002325  -0.005426  -0.001278  -0.001262   0.000490   0.002754
    19  C   -0.062184   0.122388   0.540270  -0.377538  -0.100797  -0.730630
    20  H    0.404225  -0.039455   0.015793  -0.005645  -0.001462  -0.000639
    21  H    0.387538  -0.052160  -0.004549   0.005944   0.000829  -0.000358
    22  H    0.462720  -0.056091  -0.009103  -0.003786  -0.001491   0.000425
    23  H   -0.028013  -0.048837   0.386509  -0.016639  -0.001942  -0.003467
    24  H    0.022658  -0.062318   0.490035  -0.108244   0.019195   0.023348
    25  H   -0.004133   0.017843  -0.049817   0.415524  -0.066222   0.007443
    26  H    0.000385   0.004245  -0.028715   0.393882  -0.034943   0.040991
    27  H   -0.000580  -0.002008   0.014622  -0.005025  -0.059825   0.282230
    28  H    0.000069   0.000184  -0.000283   0.002454  -0.019829  -0.034167
    29  H   -0.000327  -0.000687   0.006961  -0.004088   0.012705  -0.120326
    30  H   -0.000000  -0.000011  -0.000412   0.002359  -0.001770   0.021045
    31  H   -0.000003  -0.000000   0.000149   0.001469   0.002444   0.007471
    32  H    0.000004  -0.000010   0.000858   0.001525   0.000591  -0.007721
    33  H   -0.000004   0.000002  -0.000165  -0.002113  -0.000519  -0.030198
    34  H    0.000067  -0.001224   0.019499  -0.002364   0.001962  -0.064754
    35  H    0.002440  -0.001703   0.000130   0.002632   0.000902   0.007088
    36  H   -0.001777   0.002092   0.003759  -0.002325  -0.001959  -0.006585
               7          8          9         10         11         12
     1  C   -0.011181  -0.000953  -0.000116  -0.002356  -0.134829  -0.162771
     2  N   -0.004568   0.006314  -0.005390  -0.007466   0.058077   0.248873
     3  C   -0.031219  -0.026028   0.020898   0.010745   0.023934  -0.662795
     4  C    0.076549  -0.029310   0.034381  -0.020214  -0.206223   0.314834
     5  N    0.037242   0.033074  -0.069101  -0.029599  -0.224352  -0.064982
     6  C   -1.758115   0.846295  -0.598353  -0.067451  -2.347476   2.154959
     7  C    7.612562  -0.844999   0.259835   0.131558  -0.008627   0.052719
     8  C   -0.844999   6.253172  -0.105466  -0.292855  -0.199076   0.288236
     9  C    0.259835  -0.105466   5.842274   0.201546  -0.199489  -0.003616
    10  N    0.131558  -0.292855   0.201546   7.067232   0.170292  -0.282078
    11  C   -0.008627  -0.199076  -0.199489   0.170292  23.245627  -8.269250
    12  C    0.052719   0.288236  -0.003616  -0.282078  -8.269250  28.140374
    13  C    0.029173  -0.062589  -0.019694   0.047795   0.058861  -4.573681
    14  N   -0.033081   0.001253  -0.000702  -0.003042   0.137083   0.400637
    15  C   -0.102486   0.064322  -0.040861  -0.082379  -1.767019  -2.262549
    16  C    0.023021  -0.046234   0.015409   0.083136  -5.709059  -1.238090
    17  C    0.018910   0.000469  -0.001910   0.009064  -1.967256   0.022394
    18  N   -0.000009   0.000003   0.000012  -0.000009   0.108534   0.040174
    19  C   -0.067726  -0.120911   0.007251   0.094278   3.494998  -9.271791
    20  H    0.000073  -0.000002   0.000002   0.000009   0.028099   0.018410
    21  H    0.000063   0.000005  -0.000003   0.000008  -0.010474   0.002288
    22  H   -0.000525  -0.000021  -0.000004  -0.000032  -0.026708  -0.021195
    23  H    0.000856  -0.000014   0.000380   0.001401   0.093838   0.031501
    24  H   -0.009449   0.000128  -0.000972  -0.004106  -0.080462  -0.080910
    25  H   -0.007277   0.002351  -0.003052  -0.000197   0.142242   0.040472
    26  H   -0.013171   0.001924  -0.003775  -0.026081  -0.021254   0.007286
    27  H   -0.085575  -0.017218  -0.035041  -0.037394   0.248634  -0.149496
    28  H    0.345521  -0.010048   0.020713   0.016646   0.177675  -0.122237
    29  H    0.406194  -0.028278  -0.033146   0.006603   0.044920  -0.002310
    30  H   -0.075390   0.413199  -0.027457   0.009089  -0.001023  -0.002766
    31  H   -0.084593   0.450696  -0.052640   0.014792  -0.013082  -0.000235
    32  H    0.032571  -0.120060   0.455515  -0.052074   0.015170  -0.018049
    33  H    0.047925  -0.075528   0.439702  -0.034980  -0.004048   0.001939
    34  H   -0.011751  -0.020919  -0.048256   0.349101   0.035557  -0.045531
    35  H   -0.000928  -0.000153   0.000070  -0.000022   0.167229  -0.270693
    36  H    0.000665   0.000388  -0.000143  -0.000024  -0.008740  -0.057179
              13         14         15         16         17         18
     1  C   -0.009908   0.000193   0.056021   0.257079  -0.246749   0.002325
     2  N    0.022710   0.000286  -0.006429  -0.366687  -0.110702  -0.005426
     3  C    0.017370  -0.000635   0.028128  -0.222216   0.017115  -0.001278
     4  C   -0.061196   0.001197  -0.037018  -0.023703   0.002814  -0.001262
     5  N   -0.142022  -0.005477  -0.032712   0.129365   0.051613   0.000490
     6  C   -0.607585   0.052110   0.225418  -0.588285  -0.278300   0.002754
     7  C    0.029173  -0.033081  -0.102486   0.023021   0.018910  -0.000009
     8  C   -0.062589   0.001253   0.064322  -0.046234   0.000469   0.000003
     9  C   -0.019694  -0.000702  -0.040861   0.015409  -0.001910   0.000012
    10  N    0.047795  -0.003042  -0.082379   0.083136   0.009064  -0.000009
    11  C    0.058861   0.137083  -1.767019  -5.709059  -1.967256   0.108534
    12  C   -4.573681   0.400637  -2.262549  -1.238090   0.022394   0.040174
    13  C   13.307587  -0.381914  -0.264921   0.124504  -0.477145   0.005987
    14  N   -0.381914   7.402979  -0.122263   0.021107   0.005950   0.000025
    15  C   -0.264921  -0.122263  15.640480  -2.306230  -1.817663  -0.015538
    16  C    0.124504   0.021107  -2.306230  20.953005  -3.982686   1.075656
    17  C   -0.477145   0.005950  -1.817663  -3.982686  16.003208  -1.030870
    18  N    0.005987   0.000025  -0.015538   1.075656  -1.030870   7.500613
    19  C   -0.948039   0.085518  -1.119387  -2.460632  -0.445965  -0.063877
    20  H    0.000282   0.000001  -0.009821  -0.041223  -0.004237   0.001923
    21  H   -0.000047   0.000000   0.000766   0.022080   0.011022  -0.000018
    22  H    0.000179  -0.000001   0.007288   0.056890  -0.035205  -0.000072
    23  H    0.000363  -0.000001  -0.001506  -0.018169   0.001549   0.000006
    24  H    0.001546  -0.000020   0.003290  -0.013275  -0.006494   0.000006
    25  H    0.015722  -0.000172  -0.004779  -0.075390  -0.001672   0.000000
    26  H   -0.004083   0.000023   0.000344   0.004657   0.000087  -0.000000
    27  H    0.025691  -0.002256  -0.009512   0.031575   0.002621   0.000000
    28  H   -0.049079   0.003987  -0.046233   0.015515   0.000345  -0.000000
    29  H    0.018107  -0.000083   0.001764   0.012768   0.001436  -0.000000
    30  H   -0.003175   0.000043  -0.000421   0.000187  -0.000001  -0.000000
    31  H    0.009891   0.000351   0.000388  -0.000204  -0.000004   0.000000
    32  H    0.006558  -0.000139  -0.000342   0.000075  -0.000004  -0.000000
    33  H    0.000844  -0.000030   0.000030  -0.000170  -0.000003   0.000000
    34  H    0.001083   0.000051  -0.000680   0.005832   0.000177  -0.000000
    35  H   -0.016665  -0.000525   0.603165  -0.123539  -0.101942   0.001333
    36  H   -0.057963   0.001715   0.535265  -0.198090  -0.019447  -0.000166
              19         20         21         22         23         24
     1  C   -0.062184   0.404225   0.387538   0.462720  -0.028013   0.022658
     2  N    0.122388  -0.039455  -0.052160  -0.056091  -0.048837  -0.062318
     3  C    0.540270   0.015793  -0.004549  -0.009103   0.386509   0.490035
     4  C   -0.377538  -0.005645   0.005944  -0.003786  -0.016639  -0.108244
     5  N   -0.100797  -0.001462   0.000829  -0.001491  -0.001942   0.019195
     6  C   -0.730630  -0.000639  -0.000358   0.000425  -0.003467   0.023348
     7  C   -0.067726   0.000073   0.000063  -0.000525   0.000856  -0.009449
     8  C   -0.120911  -0.000002   0.000005  -0.000021  -0.000014   0.000128
     9  C    0.007251   0.000002  -0.000003  -0.000004   0.000380  -0.000972
    10  N    0.094278   0.000009   0.000008  -0.000032   0.001401  -0.004106
    11  C    3.494998   0.028099  -0.010474  -0.026708   0.093838  -0.080462
    12  C   -9.271791   0.018410   0.002288  -0.021195   0.031501  -0.080910
    13  C   -0.948039   0.000282  -0.000047   0.000179   0.000363   0.001546
    14  N    0.085518   0.000001   0.000000  -0.000001  -0.000001  -0.000020
    15  C   -1.119387  -0.009821   0.000766   0.007288  -0.001506   0.003290
    16  C   -2.460632  -0.041223   0.022080   0.056890  -0.018169  -0.013275
    17  C   -0.445965  -0.004237   0.011022  -0.035205   0.001549  -0.006494
    18  N   -0.063877   0.001923  -0.000018  -0.000072   0.000006   0.000006
    19  C   17.766194   0.000444  -0.012053  -0.020395  -0.076561   0.111172
    20  H    0.000444   0.506350  -0.019169  -0.033173   0.000532  -0.000273
    21  H   -0.012053  -0.019169   0.557961  -0.034343   0.005822  -0.001308
    22  H   -0.020395  -0.033173  -0.034343   0.546899  -0.000951   0.003128
    23  H   -0.076561   0.000532   0.005822  -0.000951   0.577627  -0.043532
    24  H    0.111172  -0.000273  -0.001308   0.003128  -0.043532   0.581919
    25  H   -0.128390   0.000007   0.000004   0.000000  -0.002603   0.004296
    26  H    0.013254   0.000001  -0.000023   0.000007  -0.002772  -0.002796
    27  H    0.035040   0.000000   0.000000   0.000000   0.000005  -0.000004
    28  H    0.037437   0.000000   0.000000   0.000000  -0.000000   0.000001
    29  H   -0.007882   0.000000   0.000000   0.000000   0.000001  -0.000017
    30  H    0.002056   0.000000  -0.000000   0.000000   0.000000   0.000000
    31  H   -0.002052   0.000000  -0.000000   0.000000  -0.000000  -0.000000
    32  H    0.003728   0.000000  -0.000000   0.000000  -0.000000   0.000000
    33  H   -0.001605  -0.000000   0.000000   0.000000   0.000000   0.000000
    34  H    0.044880   0.000000  -0.000000   0.000000   0.000014   0.000028
    35  H    0.043898  -0.000021  -0.000000   0.000003  -0.000000   0.000001
    36  H    0.123043   0.000010   0.000000  -0.000008   0.000000  -0.000002
              25         26         27         28         29         30
     1  C   -0.004133   0.000385  -0.000580   0.000069  -0.000327  -0.000000
     2  N    0.017843   0.004245  -0.002008   0.000184  -0.000687  -0.000011
     3  C   -0.049817  -0.028715   0.014622  -0.000283   0.006961  -0.000412
     4  C    0.415524   0.393882  -0.005025   0.002454  -0.004088   0.002359
     5  N   -0.066222  -0.034943  -0.059825  -0.019829   0.012705  -0.001770
     6  C    0.007443   0.040991   0.282230  -0.034167  -0.120326   0.021045
     7  C   -0.007277  -0.013171  -0.085575   0.345521   0.406194  -0.075390
     8  C    0.002351   0.001924  -0.017218  -0.010048  -0.028278   0.413199
     9  C   -0.003052  -0.003775  -0.035041   0.020713  -0.033146  -0.027457
    10  N   -0.000197  -0.026081  -0.037394   0.016646   0.006603   0.009089
    11  C    0.142242  -0.021254   0.248634   0.177675   0.044920  -0.001023
    12  C    0.040472   0.007286  -0.149496  -0.122237  -0.002310  -0.002766
    13  C    0.015722  -0.004083   0.025691  -0.049079   0.018107  -0.003175
    14  N   -0.000172   0.000023  -0.002256   0.003987  -0.000083   0.000043
    15  C   -0.004779   0.000344  -0.009512  -0.046233   0.001764  -0.000421
    16  C   -0.075390   0.004657   0.031575   0.015515   0.012768   0.000187
    17  C   -0.001672   0.000087   0.002621   0.000345   0.001436  -0.000001
    18  N    0.000000  -0.000000   0.000000  -0.000000  -0.000000  -0.000000
    19  C   -0.128390   0.013254   0.035040   0.037437  -0.007882   0.002056
    20  H    0.000007   0.000001   0.000000   0.000000   0.000000   0.000000
    21  H    0.000004  -0.000023   0.000000   0.000000   0.000000  -0.000000
    22  H    0.000000   0.000007   0.000000   0.000000   0.000000   0.000000
    23  H   -0.002603  -0.002772   0.000005  -0.000000   0.000001   0.000000
    24  H    0.004296  -0.002796  -0.000004   0.000001  -0.000017   0.000000
    25  H    0.568622  -0.033235   0.001539   0.000003  -0.000001  -0.000000
    26  H   -0.033235   0.542761  -0.000690  -0.000011   0.000031   0.000001
    27  H    0.001539  -0.000690   0.589607  -0.002706   0.004877  -0.000081
    28  H    0.000003  -0.000011  -0.002706   0.526922  -0.027705   0.002325
    29  H   -0.000001   0.000031   0.004877  -0.027705   0.569811  -0.009806
    30  H   -0.000000   0.000001  -0.000081   0.002325  -0.009806   0.556051
    31  H   -0.000000   0.000000   0.000884  -0.006123   0.003673  -0.029041
    32  H    0.000005  -0.000041   0.002624   0.000103  -0.000205   0.003854
    33  H    0.000000   0.000004   0.000079  -0.000118   0.000062  -0.007608
    34  H    0.000307  -0.000314   0.006343   0.000073   0.000701   0.000692
    35  H   -0.000005   0.000000  -0.000015  -0.000000  -0.000000   0.000000
    36  H    0.000002  -0.000000   0.000007   0.000005   0.000002  -0.000000
              31         32         33         34         35         36
     1  C   -0.000003   0.000004  -0.000004   0.000067   0.002440  -0.001777
     2  N   -0.000000  -0.000010   0.000002  -0.001224  -0.001703   0.002092
     3  C    0.000149   0.000858  -0.000165   0.019499   0.000130   0.003759
     4  C    0.001469   0.001525  -0.002113  -0.002364   0.002632  -0.002325
     5  N    0.002444   0.000591  -0.000519   0.001962   0.000902  -0.001959
     6  C    0.007471  -0.007721  -0.030198  -0.064754   0.007088  -0.006585
     7  C   -0.084593   0.032571   0.047925  -0.011751  -0.000928   0.000665
     8  C    0.450696  -0.120060  -0.075528  -0.020919  -0.000153   0.000388
     9  C   -0.052640   0.455515   0.439702  -0.048256   0.000070  -0.000143
    10  N    0.014792  -0.052074  -0.034980   0.349101  -0.000022  -0.000024
    11  C   -0.013082   0.015170  -0.004048   0.035557   0.167229  -0.008740
    12  C   -0.000235  -0.018049   0.001939  -0.045531  -0.270693  -0.057179
    13  C    0.009891   0.006558   0.000844   0.001083  -0.016665  -0.057963
    14  N    0.000351  -0.000139  -0.000030   0.000051  -0.000525   0.001715
    15  C    0.000388  -0.000342   0.000030  -0.000680   0.603165   0.535265
    16  C   -0.000204   0.000075  -0.000170   0.005832  -0.123539  -0.198090
    17  C   -0.000004  -0.000004  -0.000003   0.000177  -0.101942  -0.019447
    18  N    0.000000  -0.000000   0.000000  -0.000000   0.001333  -0.000166
    19  C   -0.002052   0.003728  -0.001605   0.044880   0.043898   0.123043
    20  H    0.000000   0.000000  -0.000000   0.000000  -0.000021   0.000010
    21  H   -0.000000  -0.000000   0.000000  -0.000000  -0.000000   0.000000
    22  H    0.000000   0.000000   0.000000   0.000000   0.000003  -0.000008
    23  H   -0.000000  -0.000000   0.000000   0.000014  -0.000000   0.000000
    24  H   -0.000000   0.000000   0.000000   0.000028   0.000001  -0.000002
    25  H   -0.000000   0.000005   0.000000   0.000307  -0.000005   0.000002
    26  H    0.000000  -0.000041   0.000004  -0.000314   0.000000  -0.000000
    27  H    0.000884   0.002624   0.000079   0.006343  -0.000015   0.000007
    28  H   -0.006123   0.000103  -0.000118   0.000073  -0.000000   0.000005
    29  H    0.003673  -0.000205   0.000062   0.000701  -0.000000   0.000002
    30  H   -0.029041   0.003854  -0.007608   0.000692   0.000000  -0.000000
    31  H    0.537829  -0.006928   0.002869  -0.000145   0.000000  -0.000000
    32  H   -0.006928   0.553390  -0.029296   0.005164   0.000000  -0.000000
    33  H    0.002869  -0.029296   0.561768  -0.007992  -0.000000   0.000000
    34  H   -0.000145   0.005164  -0.007992   0.438672  -0.000000   0.000000
    35  H    0.000000   0.000000  -0.000000  -0.000000   0.535517  -0.034773
    36  H   -0.000000  -0.000000   0.000000   0.000000  -0.034773   0.537369
 Mulliken charges:
               1
     1  C   -0.220112
     2  N   -0.130639
     3  C   -0.203802
     4  C   -0.068964
     5  N   -0.074761
     6  C   -0.425802
     7  C    0.075236
     8  C   -0.361167
     9  C   -0.048798
    10  N   -0.270939
    11  C   -1.052323
    12  C    1.797106
    13  C   -0.014549
    14  N   -0.564168
    15  C   -1.115921
    16  C    0.582021
    17  C    0.379480
    18  N   -0.621313
    19  C   -0.507432
    20  H    0.178959
    21  H    0.140177
    22  H    0.165566
    23  H    0.144604
    24  H    0.153429
    25  H    0.160569
    26  H    0.162021
    27  H    0.161053
    28  H    0.168565
    29  H    0.144246
    30  H    0.148061
    31  H    0.162144
    32  H    0.153135
    33  H    0.139152
    34  H    0.293728
    35  H    0.186576
    36  H    0.184860
 Sum of Mulliken charges =  -0.00000
 Mulliken charges with hydrogens summed into heavy atoms:
               1
     1  C    0.264590
     2  N   -0.130639
     3  C    0.094232
     4  C    0.253626
     5  N   -0.074761
     6  C   -0.264749
     7  C    0.388047
     8  C   -0.050962
     9  C    0.243489
    10  N    0.022790
    11  C   -1.052323
    12  C    1.797106
    13  C   -0.014549
    14  N   -0.564168
    15  C   -0.744485
    16  C    0.582021
    17  C    0.379480
    18  N   -0.621313
    19  C   -0.507432
 Electronic spatial extent (au):  <R**2>=           5295.1946
 Charge=             -0.0000 electrons
 Dipole moment (field-independent basis, Debye):
    X=              3.4971    Y=             -6.8500    Z=              1.2371  Tot=              7.7899
 Quadrupole moment (field-independent basis, Debye-Ang):
   XX=           -138.8125   YY=           -117.3234   ZZ=           -115.0682
   XY=              1.6887   XZ=              8.0558   YZ=              0.7294
 Traceless Quadrupole moment (field-independent basis, Debye-Ang):
   XX=            -15.0778   YY=              6.4113   ZZ=              8.6665
   XY=              1.6887   XZ=              8.0558   YZ=              0.7294
 Octapole moment (field-independent basis, Debye-Ang**2):
  XXX=            237.4009  YYY=            -95.6931  ZZZ=              1.7320  XYY=            -43.5410
  XXY=            -72.4647  XXZ=             -1.0455  XZZ=              2.9004  YZZ=             -7.3139
  YYZ=             16.3990  XYZ=              2.7289
 Hexadecapole moment (field-independent basis, Debye-Ang**3):
 XXXX=          -6027.2306 YYYY=          -2117.2425 ZZZZ=           -353.8386 XXXY=            251.7977
 XXXZ=            143.6090 YYYX=           -103.8406 YYYZ=             53.1829 ZZZX=              9.6081
 ZZZY=              0.8595 XXYY=          -1207.6980 XXZZ=           -922.0687 YYZZ=           -401.7376
 XXYZ=            -45.3600 YYXZ=             49.1759 ZZXY=              1.7630
 N-N= 1.417483396557D+03 E-N=-4.728846790520D+03  KE= 8.096804358551D+02
 Unable to Open any file for archive entry.
 1\1\GINC-N1\SP\RB3LYP TD-FC\6-31+G(d,p)\C14H17N5\HPCMGAC13\29-Jul-2025
 \0\\# td=(50-50,nstates=3) b3lyp/6-31+g(d,p) geom=connectivity\\Title 
 Card Required\\0,1\C,0,-3.260148,-2.115336,0.311249\N,0,-1.958109,-1.5
 87174,-0.08035\C,0,-0.835447,-2.522845,-0.061681\C,0,0.355302,-1.95147
 ,-0.814424\N,0,0.734535,-0.661192,-0.215717\C,0,2.136364,-0.215211,-0.
 229516\C,0,2.601908,0.477123,1.076826\C,0,4.144087,0.340172,1.003459\C
 ,0,4.378244,-0.743661,-0.094608\N,0,3.060902,-1.3473,-0.393626\C,0,-0.
 294308,0.247956,-0.176931\C,0,-0.32108,1.625316,-0.216019\C,0,0.724014
 ,2.539676,-0.466962\N,0,1.539176,3.347857,-0.687462\C,0,-1.736572,2.11
 6493,-0.026381\C,0,-2.532843,0.838205,0.078527\C,0,-3.932297,0.873273,
 0.255995\N,0,-5.088482,0.970107,0.400109\C,0,-1.691038,-0.248751,-0.04
 328\H,0,-4.064249,-1.54981,-0.159054\H,0,-3.328857,-3.152969,-0.023588
 \H,0,-3.404461,-2.085496,1.400569\H,0,-1.158935,-3.448596,-0.549317\H,
 0,-0.542724,-2.769564,0.97185\H,0,0.106724,-1.829437,-1.879182\H,0,1.1
 95615,-2.638731,-0.756734\H,0,2.307202,0.455992,-1.084207\H,0,2.285198
 ,1.514936,1.17097\H,0,2.188705,-0.086356,1.922239\H,0,4.561667,0.03925
 5,1.969076\H,0,4.614941,1.288295,0.72788\H,0,4.763757,-0.289068,-1.013
 164\H,0,5.078771,-1.527745,0.202916\H,0,2.863462,-2.012668,0.357127\H,
 0,-2.063804,2.735643,-0.872247\H,0,-1.836272,2.73459,0.876666\\Version
 =ES64L-G16RevC.02\State=1-A\HF=-817.46758\RMSD=9.772e-09\PG=C01 [X(C14
 H17N5)]\\@
 The archive entry for this job was punched.


 ERWIN WITH HIS PSI CAN DO
 CALCULATIONS QUITE A FEW.
 BUT ONE THING HAS NOT BEEN SEEN
 JUST WHAT DOES PSI REALLY MEAN.
 -- WALTER HUCKEL, TRANS. BY FELIX BLOCH
 Job cpu time:       0 days  3 hours  8 minutes 13.5 seconds.
 Elapsed time:       0 days  0 hours 12 minutes  4.0 seconds.
 File lengths (MBytes):  RWF=   1131 Int=      0 D2E=      0 Chk=     52 Scr=      2
 Normal termination of Gaussian 16 at Tue Jul 29 22:41:23 2025.
