 Entering Gaussian System, Link 0=g16
 Input=M2579E.gjf
 Output=M2579E.log
 Initial command:
 /hpc/softwares/Gaussian/g16/l1.exe "/hpc/home/hpcmgac13/pbs.12426.admin1.x8z/Gau-1779303.inp" -scrdir="/hpc/home/hpcmgac13/pbs.12426.admin1.x8z/"
 Default linda workers: n1
 Default is to use  16 SMP processors on each worker.
 Entering Link 1 = /hpc/softwares/Gaussian/g16/l1.exe PID=   1779304.
  
 Copyright (c) 1988-2021, Gaussian, Inc.  All Rights Reserved.
  
 This is part of the Gaussian(R) 16 program.  It is based on
 the Gaussian(R) 09 system (copyright 2009, Gaussian, Inc.),
 the Gaussian(R) 03 system (copyright 2003, Gaussian, Inc.),
 the Gaussian(R) 98 system (copyright 1998, Gaussian, Inc.),
 the Gaussian(R) 94 system (copyright 1995, Gaussian, Inc.),
 the Gaussian 92(TM) system (copyright 1992, Gaussian, Inc.),
 the Gaussian 90(TM) system (copyright 1990, Gaussian, Inc.),
 the Gaussian 88(TM) system (copyright 1988, Gaussian, Inc.),
 the Gaussian 86(TM) system (copyright 1986, Carnegie Mellon
 University), and the Gaussian 82(TM) system (copyright 1983,
 Carnegie Mellon University). Gaussian is a federally registered
 trademark of Gaussian, Inc.
  
 This software contains proprietary and confidential information,
 including trade secrets, belonging to Gaussian, Inc.
  
 This software is provided under written license and may be
 used, copied, transmitted, or stored only in accord with that
 written license.
  
 The following legend is applicable only to US Government
 contracts under FAR:
  
                    RESTRICTED RIGHTS LEGEND
  
 Use, reproduction and disclosure by the US Government is
 subject to restrictions as set forth in subparagraphs (a)
 and (c) of the Commercial Computer Software - Restricted
 Rights clause in FAR 52.227-19.
  
 Gaussian, Inc.
 340 Quinnipiac St., Bldg. 40, Wallingford CT 06492
  
  
 ---------------------------------------------------------------
 Warning -- This program may not be used in any manner that
 competes with the business of Gaussian, Inc. or will provide
 assistance to any competitor of Gaussian, Inc.  The licensee
 of this program is prohibited from giving any competitor of
 Gaussian, Inc. access to this program.  By using this program,
 the user acknowledges that Gaussian, Inc. is engaged in the
 business of creating and licensing software in the field of
 computational chemistry and represents and warrants to the
 licensee that it is not a competitor of Gaussian, Inc. and that
 it will not use this program in any manner prohibited above.
 ---------------------------------------------------------------
  

 Cite this work as:
 Gaussian 16, Revision C.02,
 M. J. Frisch, G. W. Trucks, H. B. Schlegel, G. E. Scuseria, 
 M. A. Robb, J. R. Cheeseman, G. Scalmani, V. Barone, 
 G. A. Petersson, H. Nakatsuji, X. Li, M. Caricato, A. V. Marenich, 
 J. Bloino, B. G. Janesko, R. Gomperts, B. Mennucci, H. P. Hratchian, 
 J. V. Ortiz, A. F. Izmaylov, J. L. Sonnenberg, D. Williams-Young, 
 F. Ding, F. Lipparini, F. Egidi, J. Goings, B. Peng, A. Petrone, 
 T. Henderson, D. Ranasinghe, V. G. Zakrzewski, J. Gao, N. Rega, 
 G. Zheng, W. Liang, M. Hada, M. Ehara, K. Toyota, R. Fukuda, 
 J. Hasegawa, M. Ishida, T. Nakajima, Y. Honda, O. Kitao, H. Nakai, 
 T. Vreven, K. Throssell, J. A. Montgomery, Jr., J. E. Peralta, 
 F. Ogliaro, M. J. Bearpark, J. J. Heyd, E. N. Brothers, K. N. Kudin, 
 V. N. Staroverov, T. A. Keith, R. Kobayashi, J. Normand, 
 K. Raghavachari, A. P. Rendell, J. C. Burant, S. S. Iyengar, 
 J. Tomasi, M. Cossi, J. M. Millam, M. Klene, C. Adamo, R. Cammi, 
 J. W. Ochterski, R. L. Martin, K. Morokuma, O. Farkas, 
 J. B. Foresman, and D. J. Fox, Gaussian, Inc., Wallingford CT, 2019.
 
 ******************************************
 Gaussian 16:  ES64L-G16RevC.02  7-Dec-2021
                30-Jul-2025 
 ******************************************
 SetLPE:    new flags="-opt 'Tsnet.Node.lindarsharg: ssh'  -nodelist 'n1' -env GAUSS_MDEF=2147483648 -env GAUSS_EXEDIR="/hpc/softwares/Gaussian/g16/bsd:/hpc/softwares/Gaussian/g16""
 Will use up to    1 processors via Linda.
 ----------------------------------------------------------
 # td=(50-50,nstates=3) b3lyp/6-31+g(d,p) geom=connectivity
 ----------------------------------------------------------
 1/38=1,57=2,172=1/1;
 2/12=2,17=6,18=5,40=1/2;
 3/5=1,6=6,7=111,11=9,25=1,30=1,74=-5/1,2,3,8;
 4//1;
 5/5=2,38=5/2;
 8/6=1,10=2,108=3/1;
 9/41=3,42=1,48=2,70=2/14;
 6/7=2,8=2,9=2,10=2/1;
 99/5=1,9=1/99;
 -------------------
 Title Card Required
 -------------------
 Symbolic Z-matrix:
 Charge =  0 Multiplicity = 1
 C                    -3.37642   2.74671   1.07417 
 C                    -4.18143   1.98066   0.31344 
 C                    -5.55768   2.36384   0.11689 
 N                    -6.67163   2.66597  -0.02474 
 C                    -3.74633   0.73526  -0.34455 
 C                    -3.09123  -0.3486    0.11536 
 C                    -2.62259  -0.6093    1.52569 
 C                    -3.21476  -1.91172   2.1048 
 C                    -1.08086  -0.55275   1.67024 
 N                    -0.41118  -1.64319   0.97163 
 C                     0.8761   -1.67959   0.52305 
 S                     1.48748  -3.07927  -0.19851 
 N                     1.59567  -0.53046   0.66865 
 C                     2.9962   -0.42821   0.31626 
 C                     3.25079  -0.10812  -1.17489 
 C                     4.74501   0.05274  -1.44283 
 N                     5.2909    1.11937  -0.57563 
 C                     6.42402   1.7207   -0.96228 
 N                     7.39102   2.2789   -1.30795 
 C                     5.10843   0.94021   0.87696 
 C                     3.64906   0.63224   1.18878 
 O                     3.05495   1.19276   2.09292 
 C                    -2.98879  -1.318    -1.03775 
 C                    -3.70087  -0.59385  -2.17102 
 O                    -3.89531  -0.93171  -3.30445 
 O                    -4.12821   0.63429  -1.68383 
 H                    -2.32729   2.50291   1.19628 
 H                    -3.75168   3.6354    1.56921 
 H                    -2.99038   0.21429   2.14863 
 H                    -2.87916  -2.06027   3.13645 
 H                    -4.30739  -1.86401   2.10838 
 H                    -2.93332  -2.80023   1.52926 
 H                    -0.73073   0.3957    1.25093 
 H                    -0.8304   -0.55994   2.74278 
 H                    -0.84796  -2.55437   0.97616 
 H                     1.31225   0.14681   1.37031 
 H                     3.48996  -1.38974   0.53544 
 H                     2.85203  -0.93222  -1.77257 
 H                     2.71925   0.80975  -1.44911 
 H                     4.92165   0.34619  -2.47933 
 H                     5.27714  -0.89469  -1.26372 
 H                     5.39168   1.85617   1.39654 
 H                     5.72978   0.11126   1.25918 
 H                    -1.959    -1.54522  -1.33818 
 H                    -3.48304  -2.27959  -0.85507 
 
                          Input orientation:                          
 ---------------------------------------------------------------------
 Center     Atomic      Atomic             Coordinates (Angstroms)
 Number     Number       Type             X           Y           Z
 ---------------------------------------------------------------------
      1          6           0       -3.376419    2.746714    1.074170
      2          6           0       -4.181427    1.980657    0.313438
      3          6           0       -5.557676    2.363836    0.116888
      4          7           0       -6.671630    2.665971   -0.024744
      5          6           0       -3.746326    0.735261   -0.344549
      6          6           0       -3.091230   -0.348597    0.115358
      7          6           0       -2.622592   -0.609299    1.525691
      8          6           0       -3.214756   -1.911715    2.104799
      9          6           0       -1.080857   -0.552749    1.670239
     10          7           0       -0.411181   -1.643185    0.971625
     11          6           0        0.876098   -1.679591    0.523053
     12         16           0        1.487476   -3.079275   -0.198509
     13          7           0        1.595671   -0.530462    0.668653
     14          6           0        2.996197   -0.428208    0.316259
     15          6           0        3.250793   -0.108117   -1.174889
     16          6           0        4.745008    0.052740   -1.442832
     17          7           0        5.290900    1.119366   -0.575634
     18          6           0        6.424020    1.720699   -0.962284
     19          7           0        7.391025    2.278904   -1.307945
     20          6           0        5.108434    0.940212    0.876960
     21          6           0        3.649059    0.632235    1.188782
     22          8           0        3.054950    1.192755    2.092916
     23          6           0       -2.988788   -1.318002   -1.037752
     24          6           0       -3.700866   -0.593852   -2.171024
     25          8           0       -3.895312   -0.931709   -3.304452
     26          8           0       -4.128205    0.634294   -1.683830
     27          1           0       -2.327289    2.502906    1.196276
     28          1           0       -3.751681    3.635396    1.569206
     29          1           0       -2.990378    0.214285    2.148628
     30          1           0       -2.879157   -2.060271    3.136445
     31          1           0       -4.307389   -1.864012    2.108380
     32          1           0       -2.933321   -2.800229    1.529264
     33          1           0       -0.730730    0.395702    1.250927
     34          1           0       -0.830400   -0.559938    2.742775
     35          1           0       -0.847960   -2.554369    0.976156
     36          1           0        1.312252    0.146808    1.370306
     37          1           0        3.489958   -1.389736    0.535441
     38          1           0        2.852032   -0.932216   -1.772568
     39          1           0        2.719251    0.809745   -1.449105
     40          1           0        4.921651    0.346191   -2.479326
     41          1           0        5.277145   -0.894689   -1.263720
     42          1           0        5.391675    1.856165    1.396535
     43          1           0        5.729776    0.111258    1.259184
     44          1           0       -1.959000   -1.545222   -1.338181
     45          1           0       -3.483039   -2.279590   -0.855070
 ---------------------------------------------------------------------
                    Distance matrix (angstroms):
                    1          2          3          4          5
     1  C    0.000000
     2  C    1.346698   0.000000
     3  C    2.412647   1.442054   0.000000
     4  N    3.474557   2.604829   1.162858   0.000000
     5  C    2.489084   1.474202   2.479147   3.519562   0.000000
     6  C    3.252938   2.579378   3.666149   4.682575   1.347373
     7  C    3.469142   3.256900   4.408965   5.433779   2.562892
     8  C    4.773813   4.392492   5.265112   6.118835   3.645319
     9  C    4.063417   4.227599   5.564286   6.670073   3.580931
    10  N    5.298525   5.270692   6.578237   7.665168   4.302617
    11  C    6.162776   6.246592   7.609712   8.726522   5.286875
    12  S    7.695410   7.615869   8.908485   9.980434   6.478016
    13  N    5.968752   6.309260   7.736393   8.890796   5.582613
    14  C    7.159944   7.571058   9.000222  10.156629   6.874005
    15  C    7.558324   7.862314   9.239500  10.366913   7.096508
    16  C    8.919101   9.299602  10.673293  11.797439   8.589227
    17  N    8.971763   9.552866  10.941659  12.074667   9.048336
    18  C   10.062229  10.685062  12.047376  13.163152  10.236631
    19  N   11.037716  11.689289  13.027134  14.126383  11.285015
    20  C    8.677273   9.364913  10.787507  11.939900   8.940965
    21  C    7.337677   7.993809   9.429282  10.588926   7.553373
    22  O    6.694411   7.493496   8.913666  10.062863   7.239330
    23  C    4.596998   3.758890   4.635549   5.519198   2.295710
    24  C    4.668611   3.609929   4.174949   4.904937   2.259340
    25  O    5.742158   4.653264   5.032856   5.604260   3.400296
    26  O    3.554443   2.409275   2.877028   3.653668   1.396316
    27  H    1.083986   2.118956   3.408786   4.515615   2.740871
    28  H    1.084268   2.121272   2.643428   3.465049   3.474661
    29  H    2.777892   2.811866   3.916575   4.928075   2.656841
    30  H    5.254270   5.098468   5.988732   6.834715   4.548000
    31  H    4.816128   4.244898   4.837764   5.537201   3.617716
    32  H    5.583191   5.088504   5.962350   6.802149   4.083117
    33  H    3.543751   3.911301   5.334698   6.486582   3.428507
    34  H    4.494486   4.856509   6.147428   7.223961   4.439790
    35  H    5.874027   5.667244   6.863564   7.884725   4.578914
    36  H    5.369436   5.887315   7.326812   8.487327   5.373659
    37  H    8.034151   8.382063   9.804293  10.955384   7.593010
    38  H    7.773805   7.893402   9.228065  10.329665   6.953995
    39  H    6.875751   7.217822   8.565924   9.677966   6.559671
    40  H    9.340654   9.661110  10.983056  12.075203   8.935462
    41  H    9.675211  10.010975  11.398132  12.529429   9.215457
    42  H    8.819097   9.634982  11.035557  12.173707   9.369678
    43  H    9.481701  10.130204  11.566569  12.726740   9.631088
    44  H    5.123400   4.483174   5.508941   6.455087   3.063077
    45  H    5.384892   4.472456   5.177859   5.942653   3.069084
                    6          7          8          9         10
     6  C    0.000000
     7  C    1.508849   0.000000
     8  C    2.533076   1.543474   0.000000
     9  C    2.549693   1.549529   2.566935   0.000000
    10  N    3.097065   2.503247   3.035824   1.457936   0.000000
    11  C    4.204456   3.793631   4.392139   2.532880   1.363682
    12  S    5.340380   5.095714   5.364644   4.058557   2.652634
    13  N    4.722949   4.305168   5.206782   2.857879   2.314606
    14  C    6.091261   5.750331   6.631411   4.297807   3.676397
    15  C    6.476405   6.483901   7.470786   5.201504   4.513758
    16  C    7.999728   7.970693   8.933231   6.633139   5.940711
    17  N    8.537710   8.368226   9.419042   6.959828   6.522226
    18  C    9.797106   9.667476  10.747438   8.271754   7.859751
    19  N   10.899873  10.800173  11.903390   9.415977   9.025167
    20  C    8.335200   7.911422   8.883500   6.416038   6.095002
    21  C    6.895344   6.402228   7.377176   4.899805   4.659425
    22  O    6.637924   5.983613   6.996220   4.508918   4.616699
    23  C    1.509935   2.684697   3.206117   3.399857   3.284417
    24  C    2.378939   3.850794   4.500636   4.649886   4.668980
    25  O    3.561133   5.005402   5.539275   5.728204   5.561493
    26  O    2.297492   3.756916   4.655133   4.684568   5.104373
    27  H    3.143733   3.143491   4.593679   3.333956   4.572965
    28  H    4.292094   4.392513   5.598713   4.968306   6.275306
    29  H    2.112154   1.096179   2.138257   2.112692   3.389364
    30  H    3.478760   2.183042   1.094984   2.766996   3.309277
    31  H    2.783462   2.179994   1.093680   3.510255   4.064654
    32  H    2.834531   2.212858   1.095401   2.915933   2.830354
    33  H    2.723134   2.159783   3.496235   1.094519   2.082590
    34  H    3.472656   2.166952   2.814155   1.101414   2.118051
    35  H    3.261696   2.689722   2.699734   2.131308   1.010472
    36  H    4.605537   4.009843   5.027007   2.511237   2.516593
    37  H    6.676262   6.241229   6.905689   4.783374   3.933622
    38  H    6.263165   6.399554   7.266313   5.240661   4.322572
    39  H    6.127886   6.276813   7.432968   5.101717   4.655793
    40  H    8.451117   8.594692   9.607989   7.352352   6.656258
    41  H    8.498810   8.382607   9.192042   7.010651   6.157440
    42  H    8.857882   8.385921   9.421741   6.911689   6.789635
    43  H    8.906736   8.387627   9.209351   6.855260   6.393130
    44  H    2.196960   3.085137   3.683117   3.287359   2.782183
    45  H    2.196356   3.032864   2.994684   3.889684   3.630170
                   11         12         13         14         15
    11  C    0.000000
    12  S    1.689245   0.000000
    13  N    1.363628   2.694462   0.000000
    14  C    2.470535   3.093442   1.447795   0.000000
    15  C    3.315375   3.590318   2.513255   1.546221   0.000000
    16  C    4.672701   4.687150   3.836250   2.526668   1.526547
    17  N    5.341512   5.677750   4.233781   2.907941   2.455170
    18  C    6.674402   6.927667   5.571412   4.242929   3.668670
    19  N    7.840058   8.049399   6.736884   5.411193   4.780909
    20  C    4.990119   5.515818   3.813893   2.578469   2.959714
    21  C    3.671110   4.513571   2.416361   1.520547   2.508720
    22  O    3.932205   5.094884   2.669737   2.405719   3.522665
    23  C    4.183802   4.882965   4.954725   6.200413   6.357279
    24  C    5.420838   6.081697   6.010082   7.145955   7.039445
    25  O    6.162424   6.575206   6.789511   7.801023   7.502010
    26  O    5.938640   6.894392   6.297110   7.475719   7.433694
    27  H    5.311139   6.903521   4.986915   6.140469   6.599611
    28  H    7.124596   8.698298   6.838095   7.976002   8.401106
    29  H    4.602054   6.033885   4.876148   6.293604   7.078271
    30  H    4.590934   5.588181   5.334266   6.718397   7.744339
    31  H    5.423634   6.354452   6.220714   7.656083   8.425505
    32  H    4.096335   4.754631   5.138508   6.500542   7.266579
    33  H    2.723699   4.369985   2.570791   3.929684   4.689450
    34  H    3.015448   4.513398   3.191970   4.533010   5.675242
    35  H    1.985677   2.666388   3.187803   4.442248   5.235544
    36  H    2.060049   3.591587   1.015548   2.068171   3.209509
    37  H    2.629911   2.720875   2.084327   1.102895   2.150576
    38  H    3.119737   2.991578   2.774781   2.153603   1.093330
    39  H    3.671977   4.266818   2.746541   2.173876   1.095537
    40  H    5.429970   5.359991   4.662664   3.481718   2.167883
    41  H    4.814337   4.502075   4.173725   2.813656   2.175474
    42  H    5.801291   6.491957   4.542626   3.481906   3.879949
    43  H    5.225631   5.504678   4.225086   2.941528   3.481120
    44  H    3.394117   3.940859   4.206282   5.342178   5.406836
    45  H    4.610997   5.077065   5.583411   6.839600   7.082519
                   16         17         18         19         20
    16  C    0.000000
    17  N    1.479095   0.000000
    18  C    2.414973   1.339799   0.000000
    19  N    3.460550   2.508253   1.168834   0.000000
    20  C    2.510203   1.474930   2.392226   3.431636   0.000000
    21  C    2.909005   2.458882   3.675901   4.790352   1.523764
    22  O    4.081353   3.482243   4.578603   5.616682   2.399817
    23  C    7.864771   8.643353   9.891428  10.988688   8.621523
    24  C    8.501831   9.291514  10.456171  11.490330   9.447080
    25  O    8.893250   9.799992  10.909154  11.902751  10.102264
    26  O    8.895515   9.496469  10.632514  11.642109   9.589929
    27  H    7.936346   7.942962   9.047466  10.038273   7.604864
    28  H    9.700594   9.628033  10.659240  11.587837   9.286811
    29  H    8.529999   8.764721  10.028856  11.134814   8.230119
    30  H    9.141252   9.520475  10.846401  12.002403   8.826652
    31  H    9.911152  10.403443  11.723578  12.871982   9.901403
    32  H    8.713755   9.350488  10.686741  11.850716   8.893044
    33  H    6.112092   6.334038   7.605548   8.721077   5.876409
    34  H    6.998561   7.162556   8.459041   9.594748   6.403239
    35  H    6.627957   7.320518   8.655371   9.821330   6.906560
    36  H    4.439190   4.534555   5.835090   6.976413   3.909460
    37  H    2.751264   3.282297   4.530641   5.663507   2.857404
    38  H    2.159218   3.404367   4.522567   5.579393   3.951877
    39  H    2.162588   2.733532   3.846056   4.899370   3.337034
    40  H    1.091621   2.087627   2.539252   3.347435   3.413562
    41  H    1.101305   2.128396   2.871662   3.813415   2.824506
    42  H    3.425277   2.107719   2.578394   3.389738   1.090483
    43  H    2.876471   2.139030   2.829699   3.748145   1.104231
    44  H    6.892616   7.761608   9.004586  10.101872   7.812353
    45  H    8.572397   9.413447  10.684738  11.799586   9.337048
                   21         22         23         24         25
    21  C    0.000000
    22  O    1.218444   0.000000
    23  C    7.267867   7.254774   0.000000
    24  C    8.173921   8.186220   1.521760   0.000000
    25  O    8.919227   9.052683   2.471626   1.198589   0.000000
    26  O    8.290823   8.134704   2.350989   1.388639   2.265617
    27  H    6.262284   5.611502   4.475243   4.776540   5.874677
    28  H    7.995915   7.250586   5.649282   5.646100   6.680690
    29  H    6.721466   6.124255   3.535665   4.451659   5.645201
    30  H    7.325338   6.847244   4.241097   5.567299   6.617505
    31  H    8.389397   7.971706   3.454704   4.504939   5.507971
    32  H    7.431384   7.219489   2.964733   4.375998   5.270826
    33  H    4.386612   3.959244   3.643303   4.637960   5.703339
    34  H    4.888939   4.311635   4.418788   5.690883   6.789761
    35  H    5.515690   5.524563   3.188663   4.678402   5.499362
    36  H    2.393587   2.157120   5.142310   6.182309   7.080627
    37  H    2.130853   3.047002   6.667401   7.724399   8.336473
    38  H    3.442725   4.415727   5.899488   6.573715   6.919055
    39  H    2.802588   3.578450   6.105590   6.611290   7.087130
    40  H    3.893113   5.010653   8.211134   8.679086   8.947217
    41  H    3.316161   4.534598   8.279849   9.028753   9.396804
    42  H    2.139597   2.526924   9.286186  10.069973  10.775883
    43  H    2.146103   3.003238   9.128639  10.059847  10.703124
    44  H    6.525120   6.663981   1.096517   2.152401   2.826999
    45  H    7.970124   7.968256   1.096498   2.149627   2.825991
                   26         27         28         29         30
    26  O    0.000000
    27  H    3.876857   0.000000
    28  H    4.441917   1.857553   0.000000
    29  H    4.019800   2.566018   3.552367   0.000000
    30  H    5.661789   4.989128   5.971445   2.482289   0.000000
    31  H    4.544722   4.880851   5.553648   2.460784   1.770673
    32  H    4.852594   5.348027   6.487571   3.078013   1.770170
    33  H    4.495838   2.644295   4.441066   2.438194   3.768650
    34  H    5.647702   3.743441   5.245186   2.370219   2.569704
    35  H    5.291796   5.273793   6.862689   3.691895   3.006118
    36  H    6.258112   4.339095   6.152497   4.372981   5.055527
    37  H    8.188911   7.030628   8.874793   6.868043   6.912341
    38  H    7.154407   6.887631   8.697101   7.129095   7.630036
    39  H    6.853724   5.944106   7.679028   6.774815   7.785013
    40  H    9.089319   8.408841  10.121075   9.167091   9.908610
    41  H    9.538076   8.684621  10.491274   9.012540   9.340519
    42  H   10.080165   7.748599   9.316461   8.574394   9.315171
    43  H   10.301198   8.404774  10.119965   8.766003   9.074876
    44  H    3.094384   4.790245   6.205273   4.039485   4.597199
    45  H    3.097386   5.330670   6.398151   3.935013   4.042891
                   31         32         33         34         35
    31  H    0.000000
    32  H    1.760665   0.000000
    33  H    4.316714   3.891382   0.000000
    34  H    3.767296   3.303602   1.774484   0.000000
    35  H    3.704885   2.171430   2.965158   2.664396   0.000000
    36  H    6.014027   5.170608   2.061547   2.640856   3.481124
    37  H    7.968544   6.650991   4.638310   4.922030   4.513107
    38  H    8.196787   6.918228   4.872481   5.838426   4.886390
    39  H    8.317352   7.338540   4.400451   5.661087   5.470297
    40  H   10.540741   9.363191   6.772492   7.821605   7.324071
    41  H   10.206563   8.879392   6.639512   7.312056   6.729673
    42  H   10.412410   9.539664   6.295871   6.809121   7.652619
    43  H   10.264868   9.143246   6.466770   6.759250   7.102977
    44  H    4.182743   3.278198   3.461114   4.347266   2.758431
    45  H    3.103916   2.501660   4.378084   4.789383   3.220642
                   36         37         38         39         40
    36  H    0.000000
    37  H    2.792914   0.000000
    38  H    3.662359   2.437864   0.000000
    39  H    3.219971   3.061067   1.776707   0.000000
    40  H    5.280831   3.761915   2.533210   2.475238   0.000000
    41  H    4.872698   2.583813   2.478207   3.079332   1.773093
    42  H    4.423153   3.859259   4.926263   4.041598   4.186077
    43  H    4.419064   2.791697   4.308337   4.109255   3.832064
    44  H    4.571647   5.764181   4.869343   5.238722   7.226549
    45  H    5.816745   7.165755   6.541433   6.954514   8.953868
                   41         42         43         44         45
    41  H    0.000000
    42  H    3.828482   0.000000
    43  H    2.753516   1.782660   0.000000
    44  H    7.265709   8.548715   8.282965   0.000000
    45  H    8.878388  10.046628   9.749984   1.759371   0.000000
 Stoichiometry    C17H19N5O3S
 Framework group  C1[X(C17H19N5O3S)]
 Deg. of freedom   129
 Full point group                 C1      NOp   1
 Largest Abelian subgroup         C1      NOp   1
 Largest concise Abelian subgroup C1      NOp   1
                         Standard orientation:                         
 ---------------------------------------------------------------------
 Center     Atomic      Atomic             Coordinates (Angstroms)
 Number     Number       Type             X           Y           Z
 ---------------------------------------------------------------------
      1          6           0       -3.376419   -2.746714   -1.074170
      2          6           0       -4.181427   -1.980657   -0.313438
      3          6           0       -5.557676   -2.363836   -0.116888
      4          7           0       -6.671630   -2.665971    0.024744
      5          6           0       -3.746326   -0.735261    0.344549
      6          6           0       -3.091230    0.348597   -0.115358
      7          6           0       -2.622592    0.609299   -1.525691
      8          6           0       -3.214756    1.911715   -2.104799
      9          6           0       -1.080857    0.552749   -1.670239
     10          7           0       -0.411181    1.643185   -0.971625
     11          6           0        0.876098    1.679591   -0.523053
     12         16           0        1.487476    3.079275    0.198509
     13          7           0        1.595671    0.530462   -0.668653
     14          6           0        2.996197    0.428208   -0.316259
     15          6           0        3.250793    0.108117    1.174889
     16          6           0        4.745008   -0.052740    1.442832
     17          7           0        5.290900   -1.119366    0.575634
     18          6           0        6.424020   -1.720699    0.962284
     19          7           0        7.391025   -2.278904    1.307945
     20          6           0        5.108434   -0.940212   -0.876960
     21          6           0        3.649059   -0.632235   -1.188782
     22          8           0        3.054950   -1.192755   -2.092916
     23          6           0       -2.988788    1.318002    1.037752
     24          6           0       -3.700866    0.593852    2.171024
     25          8           0       -3.895312    0.931709    3.304452
     26          8           0       -4.128205   -0.634294    1.683830
     27          1           0       -2.327289   -2.502906   -1.196276
     28          1           0       -3.751681   -3.635396   -1.569206
     29          1           0       -2.990378   -0.214285   -2.148628
     30          1           0       -2.879157    2.060271   -3.136445
     31          1           0       -4.307389    1.864012   -2.108380
     32          1           0       -2.933321    2.800229   -1.529264
     33          1           0       -0.730730   -0.395702   -1.250927
     34          1           0       -0.830400    0.559938   -2.742775
     35          1           0       -0.847960    2.554369   -0.976156
     36          1           0        1.312252   -0.146808   -1.370306
     37          1           0        3.489958    1.389736   -0.535441
     38          1           0        2.852032    0.932216    1.772568
     39          1           0        2.719251   -0.809745    1.449105
     40          1           0        4.921651   -0.346191    2.479326
     41          1           0        5.277145    0.894689    1.263720
     42          1           0        5.391675   -1.856165   -1.396535
     43          1           0        5.729776   -0.111258   -1.259184
     44          1           0       -1.959000    1.545222    1.338181
     45          1           0       -3.483039    2.279590    0.855070
 ---------------------------------------------------------------------
 Rotational constants (GHZ):           0.2986895           0.0785351           0.0746732
 Standard basis: 6-31+G(d,p) (6D, 7F)
 There are   593 symmetry adapted cartesian basis functions of A   symmetry.
 There are   593 symmetry adapted basis functions of A   symmetry.
   593 basis functions,   989 primitive gaussians,   593 cartesian basis functions
    98 alpha electrons       98 beta electrons
       nuclear repulsion energy      2345.8959180507 Hartrees.
 NAtoms=   45 NActive=   45 NUniq=   45 SFac= 1.00D+00 NAtFMM=   60 NAOKFM=F Big=F
 Integral buffers will be    131072 words long.
 Regular integral format.
 Two-electron integral symmetry is turned on.
 One-electron integrals computed using PRISM.
 NBasis=   593 RedAO= T EigKep=  3.36D-06  NBF=   593
 NBsUse=   592 1.00D-06 EigRej=  9.89D-07 NBFU=   592
 ExpMin= 4.05D-02 ExpMax= 2.19D+04 ExpMxC= 3.30D+03 IAcc=3 IRadAn=         5 AccDes= 0.00D+00
 Harris functional with IExCor=  402 and IRadAn=       5 diagonalized for initial guess.
 HarFok:  IExCor=  402 AccDes= 0.00D+00 IRadAn=         5 IDoV= 1 UseB2=F ITyADJ=14
 ICtDFT=  3500011 ScaDFX=  1.000000  1.000000  1.000000  1.000000
 FoFCou: FMM=F IPFlag=           0 FMFlag=      100000 FMFlg1=           0
         NFxFlg=           0 DoJE=T BraDBF=F KetDBF=T FulRan=T
         wScrn=  0.000000 ICntrl=       500 IOpCl=  0 I1Cent=   200000004 NGrid=           0
         NMat0=    1 NMatS0=      1 NMatT0=    0 NMatD0=    1 NMtDS0=    0 NMtDT0=    0
 Petite list used in FoFCou.
 Requested convergence on RMS density matrix=1.00D-08 within 128 cycles.
 Requested convergence on MAX density matrix=1.00D-06.
 Requested convergence on             energy=1.00D-06.
 No special actions if energy rises.
 SCF Done:  E(RB3LYP) =  -1556.87015329     A.U. after   17 cycles
            NFock= 17  Conv=0.17D-08     -V/T= 2.0079
 DoSCS=F DFT=T ScalE2(SS,OS)=  1.000000  1.000000
 ExpMin= 4.05D-02 ExpMax= 2.19D+04 ExpMxC= 3.30D+03 IAcc=3 IRadAn=         5 AccDes= 0.00D+00
 HarFok:  IExCor=  205 AccDes= 0.00D+00 IRadAn=         5 IDoV=-2 UseB2=F ITyADJ=14
 ICtDFT= 12500011 ScaDFX=  1.000000  1.000000  1.000000  1.000000
 GSVD:  LWork=       -1140 too small for GESVD, short by        4950 words or        4950 for optimal perf.
 Range of M.O.s used for correlation:    31   592
 NBasis=   593 NAE=    98 NBE=    98 NFC=    30 NFV=     0
 NROrb=    562 NOA=    68 NOB=    68 NVA=   494 NVB=   494

 **** Warning!!: The largest alpha MO coefficient is  0.14647419D+03

 Orbital symmetries:
       Occupied  (A) (A) (A) (A) (A) (A) (A) (A) (A) (A) (A) (A)
                 (A) (A) (A) (A) (A) (A) (A) (A) (A) (A) (A) (A)
                 (A) (A) (A) (A) (A) (A) (A) (A) (A) (A) (A) (A)
                 (A) (A) (A) (A) (A) (A) (A) (A) (A) (A) (A) (A)
                 (A) (A) (A) (A) (A) (A) (A) (A) (A) (A) (A) (A)
                 (A) (A) (A) (A) (A) (A) (A) (A) (A) (A) (A) (A)
                 (A) (A) (A) (A) (A) (A) (A) (A) (A) (A) (A) (A)
                 (A) (A) (A) (A) (A) (A) (A) (A) (A) (A) (A) (A)
                 (A) (A)
       Virtual   (A) (A) (A) (A) (A) (A) (A) (A) (A) (A) (A) (A)
                 (A) (A) (A) (A) (A) (A) (A) (A) (A) (A) (A) (A)
                 (A) (A) (A) (A) (A) (A) (A) (A) (A) (A) (A) (A)
                 (A) (A) (A) (A) (A) (A) (A) (A) (A) (A) (A) (A)
                 (A) (A) (A) (A) (A) (A) (A) (A) (A) (A) (A) (A)
                 (A) (A) (A) (A) (A) (A) (A) (A) (A) (A) (A) (A)
                 (A) (A) (A) (A) (A) (A) (A) (A) (A) (A) (A) (A)
                 (A) (A) (A) (A) (A) (A) (A) (A) (A) (A) (A) (A)
                 (A) (A) (A) (A) (A) (A) (A) (A) (A) (A) (A) (A)
                 (A) (A) (A) (A) (A) (A) (A) (A) (A) (A) (A) (A)
                 (A) (A) (A) (A) (A) (A) (A) (A) (A) (A) (A) (A)
                 (A) (A) (A) (A) (A) (A) (A) (A) (A) (A) (A) (A)
                 (A) (A) (A) (A) (A) (A) (A) (A) (A) (A) (A) (A)
                 (A) (A) (A) (A) (A) (A) (A) (A) (A) (A) (A) (A)
                 (A) (A) (A) (A) (A) (A) (A) (A) (A) (A) (A) (A)
                 (A) (A) (A) (A) (A) (A) (A) (A) (A) (A) (A) (A)
                 (A) (A) (A) (A) (A) (A) (A) (A) (A) (A) (A) (A)
                 (A) (A) (A) (A) (A) (A) (A) (A) (A) (A) (A) (A)
                 (A) (A) (A) (A) (A) (A) (A) (A) (A) (A) (A) (A)
                 (A) (A) (A) (A) (A) (A) (A) (A) (A) (A) (A) (A)
                 (A) (A) (A) (A) (A) (A) (A) (A) (A) (A) (A) (A)
                 (A) (A) (A) (A) (A) (A) (A) (A) (A) (A) (A) (A)
                 (A) (A) (A) (A) (A) (A) (A) (A) (A) (A) (A) (A)
                 (A) (A) (A) (A) (A) (A) (A) (A) (A) (A) (A) (A)
                 (A) (A) (A) (A) (A) (A) (A) (A) (A) (A) (A) (A)
                 (A) (A) (A) (A) (A) (A) (A) (A) (A) (A) (A) (A)
                 (A) (A) (A) (A) (A) (A) (A) (A) (A) (A) (A) (A)
                 (A) (A) (A) (A) (A) (A) (A) (A) (A) (A) (A) (A)
                 (A) (A) (A) (A) (A) (A) (A) (A) (A) (A) (A) (A)
                 (A) (A) (A) (A) (A) (A) (A) (A) (A) (A) (A) (A)
                 (A) (A) (A) (A) (A) (A) (A) (A) (A) (A) (A) (A)
                 (A) (A) (A) (A) (A) (A) (A) (A) (A) (A) (A) (A)
                 (A) (A) (A) (A) (A) (A) (A) (A) (A) (A) (A) (A)
                 (A) (A) (A) (A) (A) (A) (A) (A) (A) (A) (A) (A)
                 (A) (A) (A) (A) (A) (A) (A) (A) (A) (A) (A) (A)
                 (A) (A) (A) (A) (A) (A) (A) (A) (A) (A) (A) (A)
                 (A) (A) (A) (A) (A) (A) (A) (A) (A) (A) (A) (A)
                 (A) (A) (A) (A) (A) (A) (A) (A) (A) (A) (A) (A)
                 (A) (A) (A) (A) (A) (A) (A) (A) (A) (A) (A) (A)
                 (A) (A) (A) (A) (A) (A) (A) (A) (A) (A) (A) (A)
                 (A) (A) (A) (A) (A) (A) (A) (A) (A) (A) (A) (A)
                 (A) (A)
    24 initial guesses have been made.
 Convergence on wavefunction:    0.001000000000000
 Iteration     1 Dimension    24 NMult     0 NNew     24
 CISAX will form    24 AO SS matrices at one time.
 New state      1 was old state     10
 New state      2 was old state      1
 New state      3 was old state      2
 New state      4 was old state      3
 New state      5 was old state      4
 New state      7 was old state      5
 New state      9 was old state      7
 New state     10 was old state     18
 New state     11 was old state     22
 New state     12 was old state     17
 Vector   6 SDiff=7.31D+00 TDiff=7.77D+00 assumed to be singlet.
 Vector  12 SDiff=7.37D+00 TDiff=7.22D+00 assumed to be triplet.
 Iteration     2 Dimension    36 NMult    24 NNew     12
 New state      2 was old state      3
 New state      3 was old state      2
 New state      6 was old state      7
 Iteration     3 Dimension    48 NMult    36 NNew     12
 Iteration     4 Dimension    60 NMult    48 NNew     12
 New state      4 was old state      5
 New state      5 was old state      4
 Iteration     5 Dimension    70 NMult    60 NNew     10
 Iteration     6 Dimension    78 NMult    70 NNew      8
 Iteration     7 Dimension    84 NMult    78 NNew      6
 Iteration     8 Dimension    86 NMult    84 NNew      2
 Iteration     9 Dimension    88 NMult    86 NNew      2
 ***********************************************************************
 Excited states from <AA,BB:AA,BB> singles matrix:
 ***********************************************************************
 
 Ground to excited state transition densities written to RWF  633
 Ground to excited state transition electric dipole moments (Au):
       state          X           Y           Z        Dip. S.      Osc.
         1         0.0000      0.0000     -0.0000      0.0000      0.0000
         2        -0.0000     -0.0000     -0.0000      0.0000      0.0000
         3         0.0846      0.0663     -0.0087      0.0116      0.0010
         4        -0.0000      0.0000     -0.0000      0.0000      0.0000
         5        -0.1109     -0.1393     -0.0255      0.0323      0.0028
         6         0.4475     -0.2718     -0.0558      0.2773      0.0247
 Ground to excited state transition velocity dipole moments (Au):
       state          X           Y           Z        Dip. S.      Osc.
         1         0.0000     -0.0000      0.0000      0.0000      0.0000
         2         0.0000     -0.0000      0.0000      0.0000      0.0000
         3        -0.0103     -0.0084      0.0006      0.0002      0.0009
         4        -0.0000     -0.0000     -0.0000      0.0000      0.0000
         5         0.0148      0.0171      0.0028      0.0005      0.0027
         6        -0.0576      0.0348      0.0050      0.0046      0.0227
 Ground to excited state transition magnetic dipole moments (Au):
       state          X           Y           Z
         1         0.0000     -0.0000      0.0000
         2         0.0000      0.0000     -0.0000
         3         0.0186     -0.0088      0.0893
         4        -0.0000      0.0000     -0.0000
         5         0.0536     -0.0825     -0.1428
         6        -0.1625     -0.1831      0.5350
 Ground to excited state transition velocity quadrupole moments (Au):
       state          XX          YY          ZZ          XY          XZ          YZ
         1         0.0000      0.0000      0.0000      0.0000      0.0000      0.0000
         2         0.0000      0.0000      0.0000      0.0000     -0.0000      0.0000
         3         0.0464      0.0037      0.0058      0.0382     -0.0037      0.0146
         4         0.0000     -0.0000     -0.0000     -0.0000     -0.0000     -0.0000
         5        -0.1042     -0.0428      0.0110     -0.1038     -0.0141     -0.0182
         6        -0.3820      0.2036     -0.0485      0.0808      0.0793     -0.0337
 <0|del|b> * <b|rxdel|0> + <0|del|b> * <b|delr+rdel|0>
 Rotatory Strengths (R) in cgs (10**-40 erg-esu-cm/Gauss)
       state          XX          YY          ZZ    R(velocity)    E-M Angle
         1         0.0000      0.0000      0.0000      0.0000       90.00
         2        -0.0000     -0.0000     -0.0000     -0.0000       90.00
         3         0.3386     -0.8892      0.1798     -0.1236       90.00
         4        -0.0000      0.0000     -0.0000     -0.0000       90.00
         5        -5.1021      1.1382     -1.6127     -1.8589      104.92
         6       -16.0119     35.9113     10.0504      9.9833       81.80
 1/2[<0|r|b>*<b|rxdel|0> + (<0|rxdel|b>*<b|r|0>)*]
 Rotatory Strengths (R) in cgs (10**-40 erg-esu-cm/Gauss)
       state          XX          YY          ZZ     R(length)
         1        -0.0000      0.0000      0.0000      0.0000
         2         0.0000      0.0000     -0.0000      0.0000
         3        -1.1148      0.4136      0.5463     -0.0516
         4        -0.0000     -0.0000     -0.0000     -0.0000
         5         4.2000     -8.1220     -2.5782     -2.1667
         6        51.4129    -35.1989     21.1251     12.4464
  1/2[<0|del|b>*<b|r|0> + (<0|r|b>*<b|del|0>)*] (Au)
       state          X           Y           Z        Dip. S.   Osc.(frdel)
         1         0.0000     -0.0000     -0.0000      0.0000      0.0000
         2        -0.0000      0.0000     -0.0000      0.0000      0.0000
         3        -0.0009     -0.0006     -0.0000      0.0014      0.0010
         4         0.0000     -0.0000      0.0000      0.0000      0.0000
         5        -0.0016     -0.0024     -0.0001      0.0041      0.0027
         6        -0.0258     -0.0095     -0.0003      0.0355      0.0237

 Excitation energies and oscillator strengths:
 
 Excited State   1:      Triplet-A      2.7766 eV  446.54 nm  f=0.0000  <S**2>=2.000
      91 -> 99         0.28167
      93 -> 99         0.10584
      95 -> 99         0.12385
      96 -> 99         0.58224
      96 ->101         0.11489
 This state for optimization and/or second-order correction.
 Total Energy, E(TD-HF/TD-DFT) =  -1556.76811652    
 Copying the excited state density for this state as the 1-particle RhoCI density.
 
 Excited State   2:      Triplet-A      3.3735 eV  367.52 nm  f=0.0000  <S**2>=2.000
      98 -> 99         0.70413
 
 Excited State   3:      Singlet-A      3.3746 eV  367.41 nm  f=0.0010  <S**2>=0.000
      98 -> 99         0.70631
 
 Excited State   4:      Triplet-A      3.4905 eV  355.20 nm  f=0.0000  <S**2>=2.000
      92 ->100         0.25758
      95 ->100         0.18275
      98 ->100         0.62364
 
 Excited State   5:      Singlet-A      3.5037 eV  353.87 nm  f=0.0028  <S**2>=0.000
      97 -> 99         0.70530
 
 Excited State   6:      Singlet-A      3.6368 eV  340.92 nm  f=0.0247  <S**2>=0.000
      98 ->100         0.69747
 SavETr:  write IOETrn=   770 NScale= 10 NData=  16 NLR=1 NState=    6 LETran=     118.

 **********************************************************************

            Population analysis using the SCF Density.

 **********************************************************************

 Orbital symmetries:
       Occupied  (A) (A) (A) (A) (A) (A) (A) (A) (A) (A) (A) (A)
                 (A) (A) (A) (A) (A) (A) (A) (A) (A) (A) (A) (A)
                 (A) (A) (A) (A) (A) (A) (A) (A) (A) (A) (A) (A)
                 (A) (A) (A) (A) (A) (A) (A) (A) (A) (A) (A) (A)
                 (A) (A) (A) (A) (A) (A) (A) (A) (A) (A) (A) (A)
                 (A) (A) (A) (A) (A) (A) (A) (A) (A) (A) (A) (A)
                 (A) (A) (A) (A) (A) (A) (A) (A) (A) (A) (A) (A)
                 (A) (A) (A) (A) (A) (A) (A) (A) (A) (A) (A) (A)
                 (A) (A)
       Virtual   (A) (A) (A) (A) (A) (A) (A) (A) (A) (A) (A) (A)
                 (A) (A) (A) (A) (A) (A) (A) (A) (A) (A) (A) (A)
                 (A) (A) (A) (A) (A) (A) (A) (A) (A) (A) (A) (A)
                 (A) (A) (A) (A) (A) (A) (A) (A) (A) (A) (A) (A)
                 (A) (A) (A) (A) (A) (A) (A) (A) (A) (A) (A) (A)
                 (A) (A) (A) (A) (A) (A) (A) (A) (A) (A) (A) (A)
                 (A) (A) (A) (A) (A) (A) (A) (A) (A) (A) (A) (A)
                 (A) (A) (A) (A) (A) (A) (A) (A) (A) (A) (A) (A)
                 (A) (A) (A) (A) (A) (A) (A) (A) (A) (A) (A) (A)
                 (A) (A) (A) (A) (A) (A) (A) (A) (A) (A) (A) (A)
                 (A) (A) (A) (A) (A) (A) (A) (A) (A) (A) (A) (A)
                 (A) (A) (A) (A) (A) (A) (A) (A) (A) (A) (A) (A)
                 (A) (A) (A) (A) (A) (A) (A) (A) (A) (A) (A) (A)
                 (A) (A) (A) (A) (A) (A) (A) (A) (A) (A) (A) (A)
                 (A) (A) (A) (A) (A) (A) (A) (A) (A) (A) (A) (A)
                 (A) (A) (A) (A) (A) (A) (A) (A) (A) (A) (A) (A)
                 (A) (A) (A) (A) (A) (A) (A) (A) (A) (A) (A) (A)
                 (A) (A) (A) (A) (A) (A) (A) (A) (A) (A) (A) (A)
                 (A) (A) (A) (A) (A) (A) (A) (A) (A) (A) (A) (A)
                 (A) (A) (A) (A) (A) (A) (A) (A) (A) (A) (A) (A)
                 (A) (A) (A) (A) (A) (A) (A) (A) (A) (A) (A) (A)
                 (A) (A) (A) (A) (A) (A) (A) (A) (A) (A) (A) (A)
                 (A) (A) (A) (A) (A) (A) (A) (A) (A) (A) (A) (A)
                 (A) (A) (A) (A) (A) (A) (A) (A) (A) (A) (A) (A)
                 (A) (A) (A) (A) (A) (A) (A) (A) (A) (A) (A) (A)
                 (A) (A) (A) (A) (A) (A) (A) (A) (A) (A) (A) (A)
                 (A) (A) (A) (A) (A) (A) (A) (A) (A) (A) (A) (A)
                 (A) (A) (A) (A) (A) (A) (A) (A) (A) (A) (A) (A)
                 (A) (A) (A) (A) (A) (A) (A) (A) (A) (A) (A) (A)
                 (A) (A) (A) (A) (A) (A) (A) (A) (A) (A) (A) (A)
                 (A) (A) (A) (A) (A) (A) (A) (A) (A) (A) (A) (A)
                 (A) (A) (A) (A) (A) (A) (A) (A) (A) (A) (A) (A)
                 (A) (A) (A) (A) (A) (A) (A) (A) (A) (A) (A) (A)
                 (A) (A) (A) (A) (A) (A) (A) (A) (A) (A) (A) (A)
                 (A) (A) (A) (A) (A) (A) (A) (A) (A) (A) (A) (A)
                 (A) (A) (A) (A) (A) (A) (A) (A) (A) (A) (A) (A)
                 (A) (A) (A) (A) (A) (A) (A) (A) (A) (A) (A) (A)
                 (A) (A) (A) (A) (A) (A) (A) (A) (A) (A) (A) (A)
                 (A) (A) (A) (A) (A) (A) (A) (A) (A) (A) (A) (A)
                 (A) (A) (A) (A) (A) (A) (A) (A) (A) (A) (A) (A)
                 (A) (A) (A) (A) (A) (A) (A) (A) (A) (A) (A) (A)
                 (A) (A)
 The electronic state is 1-A.
 Alpha  occ. eigenvalues --  -88.84854 -19.23871 -19.20764 -19.17609 -14.42616
 Alpha  occ. eigenvalues --  -14.40797 -14.40556 -14.36841 -14.34863 -10.35196
 Alpha  occ. eigenvalues --  -10.33553 -10.33373 -10.30086 -10.28806 -10.28135
 Alpha  occ. eigenvalues --  -10.28001 -10.27663 -10.27123 -10.27083 -10.25921
 Alpha  occ. eigenvalues --  -10.25845 -10.25645 -10.24718 -10.24478 -10.23365
 Alpha  occ. eigenvalues --  -10.22573  -7.90955  -5.87527  -5.86880  -5.86598
 Alpha  occ. eigenvalues --   -1.14691  -1.10647  -1.06740  -1.02588  -1.01446
 Alpha  occ. eigenvalues --   -0.95739  -0.93548  -0.90973  -0.88392  -0.86014
 Alpha  occ. eigenvalues --   -0.83890  -0.81851  -0.80471  -0.77315  -0.75898
 Alpha  occ. eigenvalues --   -0.73434  -0.71988  -0.69611  -0.67438  -0.65885
 Alpha  occ. eigenvalues --   -0.63460  -0.62856  -0.60800  -0.59738  -0.59481
 Alpha  occ. eigenvalues --   -0.57612  -0.57073  -0.53560  -0.52781  -0.52331
 Alpha  occ. eigenvalues --   -0.52191  -0.51148  -0.50901  -0.50263  -0.49745
 Alpha  occ. eigenvalues --   -0.49013  -0.48348  -0.48079  -0.46931  -0.46329
 Alpha  occ. eigenvalues --   -0.45500  -0.44102  -0.43820  -0.43239  -0.43075
 Alpha  occ. eigenvalues --   -0.42196  -0.41701  -0.41560  -0.41046  -0.40282
 Alpha  occ. eigenvalues --   -0.39858  -0.39647  -0.38750  -0.38733  -0.38278
 Alpha  occ. eigenvalues --   -0.38109  -0.37781  -0.37648  -0.35990  -0.34745
 Alpha  occ. eigenvalues --   -0.32128  -0.31391  -0.30683  -0.29705  -0.27268
 Alpha  occ. eigenvalues --   -0.27093  -0.24329  -0.23724
 Alpha virt. eigenvalues --   -0.09850  -0.08075  -0.04634  -0.03950  -0.03126
 Alpha virt. eigenvalues --   -0.01952  -0.01632  -0.01325  -0.00801  -0.00383
 Alpha virt. eigenvalues --    0.00199   0.00611   0.01017   0.01261   0.01378
 Alpha virt. eigenvalues --    0.01819   0.01941   0.02442   0.03011   0.03262
 Alpha virt. eigenvalues --    0.03541   0.03664   0.04106   0.04324   0.04794
 Alpha virt. eigenvalues --    0.04944   0.05295   0.05508   0.05659   0.06154
 Alpha virt. eigenvalues --    0.06591   0.07043   0.07124   0.07457   0.07775
 Alpha virt. eigenvalues --    0.07931   0.08111   0.08536   0.08707   0.08962
 Alpha virt. eigenvalues --    0.09048   0.09234   0.09718   0.09831   0.10307
 Alpha virt. eigenvalues --    0.10691   0.10783   0.11337   0.11503   0.11605
 Alpha virt. eigenvalues --    0.11818   0.12026   0.12538   0.12739   0.12957
 Alpha virt. eigenvalues --    0.13212   0.13482   0.13728   0.13921   0.14420
 Alpha virt. eigenvalues --    0.14788   0.15125   0.15238   0.15387   0.16046
 Alpha virt. eigenvalues --    0.16199   0.16552   0.16693   0.17084   0.17265
 Alpha virt. eigenvalues --    0.17498   0.17698   0.18005   0.18234   0.18534
 Alpha virt. eigenvalues --    0.18628   0.19353   0.19527   0.19632   0.19977
 Alpha virt. eigenvalues --    0.20160   0.20480   0.20828   0.21052   0.21150
 Alpha virt. eigenvalues --    0.21434   0.21638   0.21833   0.22235   0.22569
 Alpha virt. eigenvalues --    0.22783   0.23010   0.23375   0.23624   0.23668
 Alpha virt. eigenvalues --    0.23791   0.24225   0.24575   0.24667   0.25033
 Alpha virt. eigenvalues --    0.25386   0.25500   0.25830   0.26117   0.26325
 Alpha virt. eigenvalues --    0.26551   0.26687   0.26762   0.27282   0.27786
 Alpha virt. eigenvalues --    0.28000   0.28245   0.28440   0.28588   0.28729
 Alpha virt. eigenvalues --    0.28964   0.29522   0.29921   0.30147   0.30339
 Alpha virt. eigenvalues --    0.31004   0.31464   0.31664   0.32192   0.32250
 Alpha virt. eigenvalues --    0.32858   0.33006   0.33644   0.33801   0.34171
 Alpha virt. eigenvalues --    0.34513   0.34816   0.34995   0.35563   0.35832
 Alpha virt. eigenvalues --    0.36669   0.37153   0.37379   0.37583   0.38115
 Alpha virt. eigenvalues --    0.38538   0.39259   0.39602   0.39960   0.40566
 Alpha virt. eigenvalues --    0.41445   0.41777   0.42056   0.42899   0.43587
 Alpha virt. eigenvalues --    0.44816   0.45123   0.46837   0.47900   0.48638
 Alpha virt. eigenvalues --    0.51015   0.54618   0.56188   0.58161   0.59562
 Alpha virt. eigenvalues --    0.61089   0.62262   0.63518   0.64348   0.64654
 Alpha virt. eigenvalues --    0.65043   0.66873   0.66964   0.67136   0.68008
 Alpha virt. eigenvalues --    0.68799   0.69142   0.69453   0.70378   0.70797
 Alpha virt. eigenvalues --    0.71073   0.71968   0.72631   0.72920   0.73034
 Alpha virt. eigenvalues --    0.74211   0.74405   0.75248   0.75833   0.76128
 Alpha virt. eigenvalues --    0.77264   0.78023   0.78521   0.79185   0.79522
 Alpha virt. eigenvalues --    0.79956   0.80499   0.80599   0.80880   0.81684
 Alpha virt. eigenvalues --    0.82706   0.83001   0.83610   0.83767   0.84933
 Alpha virt. eigenvalues --    0.85790   0.87171   0.88069   0.88487   0.89376
 Alpha virt. eigenvalues --    0.89912   0.90381   0.90646   0.91748   0.92337
 Alpha virt. eigenvalues --    0.92587   0.92744   0.93382   0.94105   0.94412
 Alpha virt. eigenvalues --    0.95572   0.96483   0.96571   0.97590   0.98934
 Alpha virt. eigenvalues --    0.99550   0.99855   1.00182   1.00575   1.01782
 Alpha virt. eigenvalues --    1.02132   1.02934   1.03542   1.03729   1.04125
 Alpha virt. eigenvalues --    1.05116   1.05900   1.06567   1.07092   1.07332
 Alpha virt. eigenvalues --    1.07764   1.08483   1.08863   1.09561   1.09788
 Alpha virt. eigenvalues --    1.10543   1.11608   1.12186   1.12818   1.13538
 Alpha virt. eigenvalues --    1.14586   1.15534   1.16216   1.16823   1.17421
 Alpha virt. eigenvalues --    1.18380   1.19857   1.20677   1.20776   1.21850
 Alpha virt. eigenvalues --    1.24504   1.25673   1.26546   1.27563   1.27915
 Alpha virt. eigenvalues --    1.28697   1.29169   1.30480   1.30932   1.31754
 Alpha virt. eigenvalues --    1.32327   1.33394   1.34034   1.35082   1.36302
 Alpha virt. eigenvalues --    1.37339   1.37777   1.37996   1.39089   1.39500
 Alpha virt. eigenvalues --    1.40144   1.41037   1.43651   1.44668   1.45531
 Alpha virt. eigenvalues --    1.45816   1.47095   1.48430   1.48775   1.49444
 Alpha virt. eigenvalues --    1.49970   1.50879   1.53245   1.53551   1.54316
 Alpha virt. eigenvalues --    1.54592   1.56238   1.57705   1.58531   1.58760
 Alpha virt. eigenvalues --    1.61135   1.62605   1.64027   1.65287   1.66742
 Alpha virt. eigenvalues --    1.67872   1.68227   1.69330   1.70427   1.70913
 Alpha virt. eigenvalues --    1.72140   1.72834   1.73621   1.74037   1.74943
 Alpha virt. eigenvalues --    1.75071   1.75554   1.76452   1.78155   1.79212
 Alpha virt. eigenvalues --    1.80257   1.81470   1.82429   1.83372   1.84502
 Alpha virt. eigenvalues --    1.85320   1.85874   1.86485   1.86819   1.87253
 Alpha virt. eigenvalues --    1.88376   1.88922   1.89778   1.91458   1.91515
 Alpha virt. eigenvalues --    1.92380   1.93063   1.93552   1.93687   1.94517
 Alpha virt. eigenvalues --    1.95085   1.95619   1.96257   1.98853   1.99227
 Alpha virt. eigenvalues --    1.99422   2.00301   2.01723   2.02251   2.02372
 Alpha virt. eigenvalues --    2.02561   2.03200   2.05079   2.05638   2.06646
 Alpha virt. eigenvalues --    2.07028   2.08179   2.08435   2.09383   2.10809
 Alpha virt. eigenvalues --    2.11449   2.11976   2.12878   2.14082   2.14690
 Alpha virt. eigenvalues --    2.15264   2.16176   2.18330   2.19280   2.20294
 Alpha virt. eigenvalues --    2.20677   2.23010   2.24930   2.26372   2.27586
 Alpha virt. eigenvalues --    2.28692   2.28925   2.29615   2.31363   2.31936
 Alpha virt. eigenvalues --    2.32550   2.33761   2.36610   2.37506   2.37731
 Alpha virt. eigenvalues --    2.39500   2.41119   2.41461   2.42477   2.44370
 Alpha virt. eigenvalues --    2.45061   2.46021   2.46664   2.47100   2.48362
 Alpha virt. eigenvalues --    2.49017   2.49782   2.50474   2.51120   2.52105
 Alpha virt. eigenvalues --    2.53134   2.53720   2.55641   2.55906   2.57252
 Alpha virt. eigenvalues --    2.57585   2.58652   2.60509   2.61930   2.63303
 Alpha virt. eigenvalues --    2.63914   2.64770   2.66300   2.67543   2.68434
 Alpha virt. eigenvalues --    2.68935   2.69877   2.71178   2.72373   2.74932
 Alpha virt. eigenvalues --    2.74986   2.75651   2.77221   2.78175   2.79263
 Alpha virt. eigenvalues --    2.79544   2.80095   2.81717   2.84028   2.84471
 Alpha virt. eigenvalues --    2.85975   2.87230   2.87662   2.87982   2.90769
 Alpha virt. eigenvalues --    2.91454   2.92346   2.94231   2.94398   2.97403
 Alpha virt. eigenvalues --    2.97488   2.99589   3.00357   3.02342   3.05144
 Alpha virt. eigenvalues --    3.08902   3.09865   3.13527   3.14891   3.20524
 Alpha virt. eigenvalues --    3.21663   3.22441   3.24245   3.27366   3.27574
 Alpha virt. eigenvalues --    3.28301   3.30362   3.31807   3.35290   3.37176
 Alpha virt. eigenvalues --    3.38555   3.39772   3.40676   3.43918   3.44045
 Alpha virt. eigenvalues --    3.45121   3.46104   3.47445   3.48521   3.51124
 Alpha virt. eigenvalues --    3.54340   3.57089   3.59017   4.02498   4.11212
 Alpha virt. eigenvalues --    4.20799   4.21207   4.27498   4.29475   4.30019
 Alpha virt. eigenvalues --    4.32398   4.34673   4.39817   4.40807   4.41508
 Alpha virt. eigenvalues --    4.44302   4.46377   4.48078   4.50081   4.57264
 Alpha virt. eigenvalues --    4.59362   4.60919   4.67720   4.71739   4.73136
 Alpha virt. eigenvalues --    4.74700   4.76178   4.78550   4.86672
          Condensed to atoms (all electrons):
               1          2          3          4          5          6
     1  C    7.837479  -1.157158  -1.875086   0.010788   1.958340  -1.704598
     2  C   -1.157158   9.627820  -0.534776   0.078626  -4.434276   2.784790
     3  C   -1.875086  -0.534776  10.489684   0.104074  -2.720462   0.867186
     4  N    0.010788   0.078626   0.104074   7.202114   0.121391  -0.034807
     5  C    1.958340  -4.434276  -2.720462   0.121391  18.408462  -7.389887
     6  C   -1.704598   2.784790   0.867186  -0.034807  -7.389887  14.520490
     7  C    0.567236  -0.637555  -0.268567  -0.001075   1.950184  -3.744788
     8  C   -0.098904   0.249176   0.107120  -0.001600  -0.913934   0.740962
     9  C    0.021740  -0.097001  -0.147473   0.002859   1.077922  -0.946625
    10  N    0.004933  -0.013433  -0.002572   0.000020  -0.109286   0.201172
    11  C    0.005525   0.016391  -0.004992   0.000006   0.026875  -0.000471
    12  S   -0.003129  -0.004980   0.000021   0.000006  -0.020923  -0.020365
    13  N    0.001655   0.000574  -0.000652  -0.000000  -0.013628   0.013044
    14  C    0.006319  -0.018519  -0.001081  -0.000005   0.019882  -0.045465
    15  C   -0.000191   0.000480   0.000236   0.000000   0.006694   0.002143
    16  C   -0.000325   0.000694  -0.000021   0.000000  -0.002925   0.000984
    17  N    0.000017  -0.000022   0.000002  -0.000000   0.000100  -0.000139
    18  C   -0.000004   0.000028   0.000001  -0.000000  -0.000064   0.000008
    19  N    0.000000  -0.000001  -0.000000  -0.000000   0.000002  -0.000000
    20  C   -0.000247   0.000470   0.000029  -0.000000   0.000472  -0.000565
    21  C   -0.000540   0.003579   0.000198   0.000000  -0.001906   0.005022
    22  O   -0.000435   0.000484  -0.000002   0.000000  -0.000768   0.002408
    23  C   -0.222084  -0.013121   0.135797  -0.003217  -2.918864   1.373090
    24  C    0.088281  -0.009916  -0.203574   0.009318   0.787970  -0.628225
    25  O   -0.004536   0.020803  -0.003818   0.000207  -0.013611   0.024401
    26  O   -0.022658  -0.054325   0.047780   0.001177  -0.122177   0.267578
    27  H    0.431997  -0.116837  -0.019654  -0.000215   0.063024  -0.028733
    28  H    0.447230  -0.100402  -0.017118  -0.000185   0.041280  -0.018302
    29  H    0.018197   0.008353  -0.009317   0.000132   0.017787  -0.067736
    30  H   -0.001787   0.003369  -0.001507   0.000013  -0.032809  -0.006103
    31  H   -0.000325   0.002673  -0.003198  -0.000012   0.002272   0.052038
    32  H    0.000541  -0.001367   0.000396  -0.000006   0.025215   0.078056
    33  H    0.006308   0.005909   0.000023  -0.000003  -0.010673  -0.135131
    34  H   -0.006433   0.009218   0.000678   0.000002  -0.013784   0.049621
    35  H    0.000163   0.000658   0.000028  -0.000000   0.006323  -0.021352
    36  H   -0.000339   0.001279  -0.000016   0.000000  -0.001282  -0.002374
    37  H   -0.000004   0.000023  -0.000000   0.000000  -0.000107  -0.000465
    38  H   -0.000007   0.000023   0.000001  -0.000000  -0.000035   0.000359
    39  H    0.000022   0.000095   0.000001  -0.000000  -0.000221  -0.000320
    40  H    0.000000  -0.000000  -0.000000   0.000000   0.000002  -0.000004
    41  H   -0.000000   0.000000   0.000000  -0.000000  -0.000002  -0.000012
    42  H   -0.000000   0.000000   0.000000   0.000000  -0.000000   0.000001
    43  H   -0.000000   0.000000   0.000000  -0.000000  -0.000001  -0.000006
    44  H    0.004287  -0.020404  -0.006934   0.000025   0.005950  -0.079468
    45  H   -0.002826   0.005152   0.009337  -0.000089   0.004589  -0.037384
               7          8          9         10         11         12
     1  C    0.567236  -0.098904   0.021740   0.004933   0.005525  -0.003129
     2  C   -0.637555   0.249176  -0.097001  -0.013433   0.016391  -0.004980
     3  C   -0.268567   0.107120  -0.147473  -0.002572  -0.004992   0.000021
     4  N   -0.001075  -0.001600   0.002859   0.000020   0.000006   0.000006
     5  C    1.950184  -0.913934   1.077922  -0.109286   0.026875  -0.020923
     6  C   -3.744788   0.740962  -0.946625   0.201172  -0.000471  -0.020365
     7  C   10.671633  -0.753131  -0.616142  -0.347088  -0.050829  -0.021117
     8  C   -0.753131   6.406042  -0.820781   0.086081  -0.063917   0.009357
     9  C   -0.616142  -0.820781   8.062034  -0.248188  -0.172571   0.028553
    10  N   -0.347088   0.086081  -0.248188   7.587209   0.160245  -0.063984
    11  C   -0.050829  -0.063917  -0.172571   0.160245   7.194664  -0.130111
    12  S   -0.021117   0.009357   0.028553  -0.063984  -0.130111  16.511916
    13  N    0.032656  -0.021095   0.104506  -0.349536  -0.206795  -0.247055
    14  C   -0.006812  -0.013874  -0.248352  -0.042196  -0.894699   0.071262
    15  C    0.010974  -0.000915   0.106928  -0.022143  -0.155868  -0.163833
    16  C   -0.002166   0.000361   0.007820   0.005260  -0.075976  -0.035401
    17  N    0.000038  -0.000011  -0.000653   0.001745  -0.000230  -0.003763
    18  C    0.000102   0.000007   0.000313  -0.000107   0.011639  -0.000829
    19  N   -0.000000  -0.000000   0.000009   0.000009  -0.000596  -0.000000
    20  C   -0.003107   0.000942   0.008424   0.016095  -0.002817   0.005044
    21  C    0.008568   0.006079  -0.011101   0.060635   0.435942   0.111294
    22  O   -0.003997  -0.000306   0.010321  -0.001231   0.008290   0.003922
    23  C   -0.494242   0.266769  -0.696380   0.125720  -0.138354   0.070771
    24  C   -0.039274  -0.000778   0.063540  -0.006567  -0.002940   0.000628
    25  O    0.018243  -0.002601   0.003578  -0.001380  -0.000365   0.000275
    26  O   -0.126313   0.018316  -0.017168   0.002896  -0.000056   0.000089
    27  H    0.037658   0.002975  -0.020241  -0.000093  -0.000980  -0.000106
    28  H    0.002336  -0.000522   0.001454  -0.000008  -0.000097  -0.000001
    29  H    0.242100   0.016751   0.055783   0.014115  -0.000327  -0.000256
    30  H   -0.073066   0.431471  -0.000298   0.011072  -0.000746   0.000887
    31  H   -0.143113   0.493882  -0.029091  -0.004271  -0.002271   0.000231
    32  H   -0.204213   0.473161  -0.000549   0.008182   0.008359  -0.002259
    33  H    0.113528  -0.009872   0.398307  -0.057644  -0.012582  -0.005226
    34  H   -0.134990  -0.012963   0.493602  -0.071669  -0.011185   0.002912
    35  H    0.039009  -0.009595  -0.048305   0.266676   0.023719   0.005438
    36  H    0.012158  -0.001439   0.019240  -0.014447   0.036229   0.001853
    37  H   -0.001145  -0.000000  -0.006870   0.003440   0.051148   0.015743
    38  H    0.000166  -0.000004  -0.001027  -0.001196   0.001435   0.010574
    39  H    0.000382   0.000014  -0.001987   0.000477   0.020044   0.000329
    40  H    0.000008  -0.000000   0.000109  -0.000002  -0.001639   0.000530
    41  H    0.000012   0.000000  -0.000189  -0.000025   0.004678   0.001366
    42  H   -0.000017  -0.000000  -0.000120   0.000004  -0.000900   0.000062
    43  H    0.000012   0.000000  -0.000096  -0.000042   0.005520  -0.000113
    44  H   -0.021110  -0.016379   0.006721   0.002087  -0.000214   0.001862
    45  H   -0.011778   0.020933  -0.013719  -0.006859  -0.001401  -0.000969
              13         14         15         16         17         18
     1  C    0.001655   0.006319  -0.000191  -0.000325   0.000017  -0.000004
     2  C    0.000574  -0.018519   0.000480   0.000694  -0.000022   0.000028
     3  C   -0.000652  -0.001081   0.000236  -0.000021   0.000002   0.000001
     4  N   -0.000000  -0.000005   0.000000   0.000000  -0.000000  -0.000000
     5  C   -0.013628   0.019882   0.006694  -0.002925   0.000100  -0.000064
     6  C    0.013044  -0.045465   0.002143   0.000984  -0.000139   0.000008
     7  C    0.032656  -0.006812   0.010974  -0.002166   0.000038   0.000102
     8  C   -0.021095  -0.013874  -0.000915   0.000361  -0.000011   0.000007
     9  C    0.104506  -0.248352   0.106928   0.007820  -0.000653   0.000313
    10  N   -0.349536  -0.042196  -0.022143   0.005260   0.001745  -0.000107
    11  C   -0.206795  -0.894699  -0.155868  -0.075976  -0.000230   0.011639
    12  S   -0.247055   0.071262  -0.163833  -0.035401  -0.003763  -0.000829
    13  N    7.544292  -0.265106   0.267112   0.041847   0.010108   0.011057
    14  C   -0.265106  12.862640  -1.513486  -0.047664   0.038552  -0.104031
    15  C    0.267112  -1.513486   6.802692   0.023123  -0.078974  -0.005247
    16  C    0.041847  -0.047664   0.023123   5.771090   0.126497  -0.099783
    17  N    0.010108   0.038552  -0.078974   0.126497   7.107459   0.302766
    18  C    0.011057  -0.104031  -0.005247  -0.099783   0.302766   5.209257
    19  N   -0.000088  -0.002790   0.014334  -0.006363  -0.088023   0.311730
    20  C    0.066605  -0.982775   0.159170  -0.121748   0.082049  -0.117843
    21  C   -0.116590  -1.961975  -0.192929  -0.060561  -0.006421  -0.010288
    22  O    0.032791  -0.308316   0.000283  -0.002605   0.013492  -0.004211
    23  C    0.006415   0.010377  -0.006977   0.002304  -0.000055   0.000041
    24  C   -0.001653  -0.006624   0.003272  -0.000184  -0.000014  -0.000003
    25  O   -0.000045  -0.000164   0.000076   0.000004   0.000000   0.000000
    26  O   -0.000168   0.000459  -0.000194   0.000021   0.000000  -0.000000
    27  H    0.000308   0.000379  -0.000112   0.000007   0.000000   0.000000
    28  H    0.000006  -0.000003   0.000001  -0.000000  -0.000000  -0.000000
    29  H    0.000604   0.000451   0.000005   0.000004   0.000000  -0.000000
    30  H    0.000006  -0.000209  -0.000012  -0.000000  -0.000000  -0.000000
    31  H   -0.000133  -0.000017   0.000012   0.000000   0.000000  -0.000000
    32  H    0.000546   0.000032  -0.000031   0.000000   0.000000   0.000000
    33  H    0.000682   0.043983  -0.009290   0.000051  -0.000020   0.000003
    34  H    0.005331  -0.007803   0.001321  -0.000013   0.000001  -0.000002
    35  H    0.036454   0.014317  -0.001557  -0.000001  -0.000003  -0.000001
    36  H    0.262446  -0.062978  -0.015886  -0.003016  -0.000934   0.000167
    37  H   -0.084416   0.417944  -0.074004  -0.010381   0.002152   0.001179
    38  H   -0.014884  -0.007006   0.372244  -0.016324   0.003487  -0.002299
    39  H    0.012209  -0.109346   0.399914  -0.037913   0.012471   0.004212
    40  H    0.000379   0.010100  -0.032222   0.423815  -0.058535  -0.022414
    41  H   -0.001301   0.008222  -0.116734   0.446951  -0.060197   0.014610
    42  H   -0.000999   0.025009   0.011924  -0.000732  -0.045121  -0.020210
    43  H   -0.001735   0.035819  -0.019449  -0.000706  -0.062178   0.003613
    44  H   -0.000062  -0.001387   0.000189   0.000211  -0.000000   0.000001
    45  H    0.000075  -0.000160   0.000051  -0.000001  -0.000000   0.000000
              19         20         21         22         23         24
     1  C    0.000000  -0.000247  -0.000540  -0.000435  -0.222084   0.088281
     2  C   -0.000001   0.000470   0.003579   0.000484  -0.013121  -0.009916
     3  C   -0.000000   0.000029   0.000198  -0.000002   0.135797  -0.203574
     4  N   -0.000000  -0.000000   0.000000   0.000000  -0.003217   0.009318
     5  C    0.000002   0.000472  -0.001906  -0.000768  -2.918864   0.787970
     6  C   -0.000000  -0.000565   0.005022   0.002408   1.373090  -0.628225
     7  C   -0.000000  -0.003107   0.008568  -0.003997  -0.494242  -0.039274
     8  C   -0.000000   0.000942   0.006079  -0.000306   0.266769  -0.000778
     9  C    0.000009   0.008424  -0.011101   0.010321  -0.696380   0.063540
    10  N    0.000009   0.016095   0.060635  -0.001231   0.125720  -0.006567
    11  C   -0.000596  -0.002817   0.435942   0.008290  -0.138354  -0.002940
    12  S   -0.000000   0.005044   0.111294   0.003922   0.070771   0.000628
    13  N   -0.000088   0.066605  -0.116590   0.032791   0.006415  -0.001653
    14  C   -0.002790  -0.982775  -1.961975  -0.308316   0.010377  -0.006624
    15  C    0.014334   0.159170  -0.192929   0.000283  -0.006977   0.003272
    16  C   -0.006363  -0.121748  -0.060561  -0.002605   0.002304  -0.000184
    17  N   -0.088023   0.082049  -0.006421   0.013492  -0.000055  -0.000014
    18  C    0.311730  -0.117843  -0.010288  -0.004211   0.000041  -0.000003
    19  N    7.191363   0.013017   0.003471   0.000054  -0.000000   0.000000
    20  C    0.013017   6.668779  -0.232839  -0.131004  -0.001705   0.000210
    21  C    0.003471  -0.232839   7.070984   0.628243  -0.004670   0.000033
    22  O    0.000054  -0.131004   0.628243   8.162206   0.000073   0.000031
    23  C   -0.000000  -0.001705  -0.004670   0.000073   8.472951  -0.346614
    24  C    0.000000   0.000210   0.000033   0.000031  -0.346614   5.515906
    25  O   -0.000000   0.000001   0.000009  -0.000000  -0.153503   0.418946
    26  O    0.000000  -0.000005  -0.000020   0.000000  -0.064170  -0.091066
    27  H    0.000000   0.000013  -0.000003  -0.000004   0.000856  -0.000358
    28  H    0.000000  -0.000001  -0.000007   0.000000  -0.000737  -0.000097
    29  H    0.000000   0.000017   0.000029   0.000002  -0.026757   0.001981
    30  H   -0.000000  -0.000002  -0.000024   0.000001   0.023698  -0.001000
    31  H    0.000000  -0.000000   0.000005  -0.000000  -0.006048   0.001958
    32  H   -0.000000   0.000004   0.000020   0.000000  -0.050094   0.005569
    33  H   -0.000000   0.000500  -0.006567  -0.000362  -0.002096  -0.006895
    34  H    0.000000  -0.000820  -0.000880   0.000300   0.002631   0.000625
    35  H   -0.000000  -0.000068  -0.003046   0.000012  -0.013952  -0.001354
    36  H   -0.000000   0.015081   0.013867   0.022320   0.000098  -0.000023
    37  H   -0.000108  -0.014611  -0.017904  -0.001399  -0.000034  -0.000020
    38  H   -0.000091  -0.009040   0.004367  -0.000285  -0.000077  -0.000042
    39  H   -0.000481  -0.021612   0.040041  -0.000560  -0.000088  -0.000096
    40  H    0.004617   0.008487   0.005511   0.000036   0.000005   0.000001
    41  H   -0.002555  -0.041629   0.038426  -0.000448   0.000004  -0.000001
    42  H    0.003470   0.417157  -0.045377  -0.004002  -0.000001   0.000000
    43  H   -0.002208   0.293447   0.036906   0.000876   0.000001  -0.000000
    44  H   -0.000000  -0.000022   0.000116  -0.000000   0.439620  -0.000482
    45  H   -0.000000   0.000001  -0.000006  -0.000000   0.353948  -0.001205
              25         26         27         28         29         30
     1  C   -0.004536  -0.022658   0.431997   0.447230   0.018197  -0.001787
     2  C    0.020803  -0.054325  -0.116837  -0.100402   0.008353   0.003369
     3  C   -0.003818   0.047780  -0.019654  -0.017118  -0.009317  -0.001507
     4  N    0.000207   0.001177  -0.000215  -0.000185   0.000132   0.000013
     5  C   -0.013611  -0.122177   0.063024   0.041280   0.017787  -0.032809
     6  C    0.024401   0.267578  -0.028733  -0.018302  -0.067736  -0.006103
     7  C    0.018243  -0.126313   0.037658   0.002336   0.242100  -0.073066
     8  C   -0.002601   0.018316   0.002975  -0.000522   0.016751   0.431471
     9  C    0.003578  -0.017168  -0.020241   0.001454   0.055783  -0.000298
    10  N   -0.001380   0.002896  -0.000093  -0.000008   0.014115   0.011072
    11  C   -0.000365  -0.000056  -0.000980  -0.000097  -0.000327  -0.000746
    12  S    0.000275   0.000089  -0.000106  -0.000001  -0.000256   0.000887
    13  N   -0.000045  -0.000168   0.000308   0.000006   0.000604   0.000006
    14  C   -0.000164   0.000459   0.000379  -0.000003   0.000451  -0.000209
    15  C    0.000076  -0.000194  -0.000112   0.000001   0.000005  -0.000012
    16  C    0.000004   0.000021   0.000007  -0.000000   0.000004  -0.000000
    17  N    0.000000   0.000000   0.000000  -0.000000   0.000000  -0.000000
    18  C    0.000000  -0.000000   0.000000  -0.000000  -0.000000  -0.000000
    19  N   -0.000000   0.000000   0.000000   0.000000   0.000000  -0.000000
    20  C    0.000001  -0.000005   0.000013  -0.000001   0.000017  -0.000002
    21  C    0.000009  -0.000020  -0.000003  -0.000007   0.000029  -0.000024
    22  O   -0.000000   0.000000  -0.000004   0.000000   0.000002   0.000001
    23  C   -0.153503  -0.064170   0.000856  -0.000737  -0.026757   0.023698
    24  C    0.418946  -0.091066  -0.000358  -0.000097   0.001981  -0.001000
    25  O    8.209956  -0.054898   0.000008  -0.000000   0.000017  -0.000001
    26  O   -0.054898   8.458892  -0.000105  -0.000241   0.000784   0.000008
    27  H    0.000008  -0.000105   0.527700  -0.030205  -0.001041   0.000000
    28  H   -0.000000  -0.000241  -0.030205   0.502649   0.000132  -0.000000
    29  H    0.000017   0.000784  -0.001041   0.000132   0.595630  -0.003504
    30  H   -0.000001   0.000008   0.000000  -0.000000  -0.003504   0.541221
    31  H    0.000012  -0.000087  -0.000002  -0.000000  -0.005651  -0.024236
    32  H   -0.000023   0.000219  -0.000001   0.000000   0.005073  -0.027186
    33  H    0.000020  -0.000523   0.001250   0.000007  -0.004436  -0.000002
    34  H   -0.000002   0.000059  -0.000038   0.000001  -0.002540   0.003560
    35  H    0.000006  -0.000081   0.000000   0.000000   0.000135  -0.000606
    36  H    0.000000   0.000003  -0.000008   0.000000   0.000002   0.000001
    37  H    0.000000  -0.000000   0.000000  -0.000000   0.000000  -0.000000
    38  H   -0.000000   0.000000   0.000000  -0.000000  -0.000000  -0.000000
    39  H    0.000001  -0.000000   0.000000  -0.000000  -0.000000  -0.000000
    40  H   -0.000000  -0.000000  -0.000000  -0.000000   0.000000   0.000000
    41  H    0.000000  -0.000000   0.000000   0.000000  -0.000000  -0.000000
    42  H    0.000000   0.000000  -0.000000   0.000000   0.000000   0.000000
    43  H    0.000000  -0.000000   0.000000  -0.000000  -0.000000  -0.000000
    44  H   -0.004040   0.009235   0.000003  -0.000000  -0.000101   0.000001
    45  H   -0.003279   0.008854  -0.000001   0.000000  -0.000059   0.000000
              31         32         33         34         35         36
     1  C   -0.000325   0.000541   0.006308  -0.006433   0.000163  -0.000339
     2  C    0.002673  -0.001367   0.005909   0.009218   0.000658   0.001279
     3  C   -0.003198   0.000396   0.000023   0.000678   0.000028  -0.000016
     4  N   -0.000012  -0.000006  -0.000003   0.000002  -0.000000   0.000000
     5  C    0.002272   0.025215  -0.010673  -0.013784   0.006323  -0.001282
     6  C    0.052038   0.078056  -0.135131   0.049621  -0.021352  -0.002374
     7  C   -0.143113  -0.204213   0.113528  -0.134990   0.039009   0.012158
     8  C    0.493882   0.473161  -0.009872  -0.012963  -0.009595  -0.001439
     9  C   -0.029091  -0.000549   0.398307   0.493602  -0.048305   0.019240
    10  N   -0.004271   0.008182  -0.057644  -0.071669   0.266676  -0.014447
    11  C   -0.002271   0.008359  -0.012582  -0.011185   0.023719   0.036229
    12  S    0.000231  -0.002259  -0.005226   0.002912   0.005438   0.001853
    13  N   -0.000133   0.000546   0.000682   0.005331   0.036454   0.262446
    14  C   -0.000017   0.000032   0.043983  -0.007803   0.014317  -0.062978
    15  C    0.000012  -0.000031  -0.009290   0.001321  -0.001557  -0.015886
    16  C    0.000000   0.000000   0.000051  -0.000013  -0.000001  -0.003016
    17  N    0.000000   0.000000  -0.000020   0.000001  -0.000003  -0.000934
    18  C   -0.000000   0.000000   0.000003  -0.000002  -0.000001   0.000167
    19  N    0.000000  -0.000000  -0.000000   0.000000  -0.000000  -0.000000
    20  C   -0.000000   0.000004   0.000500  -0.000820  -0.000068   0.015081
    21  C    0.000005   0.000020  -0.006567  -0.000880  -0.003046   0.013867
    22  O   -0.000000   0.000000  -0.000362   0.000300   0.000012   0.022320
    23  C   -0.006048  -0.050094  -0.002096   0.002631  -0.013952   0.000098
    24  C    0.001958   0.005569  -0.006895   0.000625  -0.001354  -0.000023
    25  O    0.000012  -0.000023   0.000020  -0.000002   0.000006   0.000000
    26  O   -0.000087   0.000219  -0.000523   0.000059  -0.000081   0.000003
    27  H   -0.000002  -0.000001   0.001250  -0.000038   0.000000  -0.000008
    28  H   -0.000000   0.000000   0.000007   0.000001   0.000000   0.000000
    29  H   -0.005651   0.005073  -0.004436  -0.002540   0.000135   0.000002
    30  H   -0.024236  -0.027186  -0.000002   0.003560  -0.000606   0.000001
    31  H    0.522753  -0.027288  -0.000130   0.000084  -0.000164  -0.000000
    32  H   -0.027288   0.560407  -0.000110   0.000105   0.004027  -0.000001
    33  H   -0.000130  -0.000110   0.593168  -0.045011   0.004321   0.003343
    34  H    0.000084   0.000105  -0.045011   0.577048  -0.000707  -0.000232
    35  H   -0.000164   0.004027   0.004321  -0.000707   0.375356  -0.000233
    36  H   -0.000000  -0.000001   0.003343  -0.000232  -0.000233   0.396184
    37  H    0.000000  -0.000000   0.000005   0.000001  -0.000001   0.002927
    38  H   -0.000000  -0.000000   0.000001   0.000000  -0.000002  -0.000105
    39  H   -0.000000  -0.000000   0.000006  -0.000000  -0.000000   0.000100
    40  H   -0.000000   0.000000  -0.000000   0.000000   0.000000   0.000004
    41  H   -0.000000  -0.000000  -0.000000   0.000000  -0.000000  -0.000005
    42  H    0.000000   0.000000   0.000000  -0.000000   0.000000  -0.000010
    43  H   -0.000000  -0.000000  -0.000000   0.000000  -0.000000  -0.000032
    44  H    0.000034  -0.000035   0.000099  -0.000050  -0.000430  -0.000001
    45  H   -0.000024  -0.000461   0.000008   0.000004   0.000019   0.000000
              37         38         39         40         41         42
     1  C   -0.000004  -0.000007   0.000022   0.000000  -0.000000  -0.000000
     2  C    0.000023   0.000023   0.000095  -0.000000   0.000000   0.000000
     3  C   -0.000000   0.000001   0.000001  -0.000000   0.000000   0.000000
     4  N    0.000000  -0.000000  -0.000000   0.000000  -0.000000   0.000000
     5  C   -0.000107  -0.000035  -0.000221   0.000002  -0.000002  -0.000000
     6  C   -0.000465   0.000359  -0.000320  -0.000004  -0.000012   0.000001
     7  C   -0.001145   0.000166   0.000382   0.000008   0.000012  -0.000017
     8  C   -0.000000  -0.000004   0.000014  -0.000000   0.000000  -0.000000
     9  C   -0.006870  -0.001027  -0.001987   0.000109  -0.000189  -0.000120
    10  N    0.003440  -0.001196   0.000477  -0.000002  -0.000025   0.000004
    11  C    0.051148   0.001435   0.020044  -0.001639   0.004678  -0.000900
    12  S    0.015743   0.010574   0.000329   0.000530   0.001366   0.000062
    13  N   -0.084416  -0.014884   0.012209   0.000379  -0.001301  -0.000999
    14  C    0.417944  -0.007006  -0.109346   0.010100   0.008222   0.025009
    15  C   -0.074004   0.372244   0.399914  -0.032222  -0.116734   0.011924
    16  C   -0.010381  -0.016324  -0.037913   0.423815   0.446951  -0.000732
    17  N    0.002152   0.003487   0.012471  -0.058535  -0.060197  -0.045121
    18  C    0.001179  -0.002299   0.004212  -0.022414   0.014610  -0.020210
    19  N   -0.000108  -0.000091  -0.000481   0.004617  -0.002555   0.003470
    20  C   -0.014611  -0.009040  -0.021612   0.008487  -0.041629   0.417157
    21  C   -0.017904   0.004367   0.040041   0.005511   0.038426  -0.045377
    22  O   -0.001399  -0.000285  -0.000560   0.000036  -0.000448  -0.004002
    23  C   -0.000034  -0.000077  -0.000088   0.000005   0.000004  -0.000001
    24  C   -0.000020  -0.000042  -0.000096   0.000001  -0.000001   0.000000
    25  O    0.000000  -0.000000   0.000001  -0.000000   0.000000   0.000000
    26  O   -0.000000   0.000000  -0.000000  -0.000000  -0.000000   0.000000
    27  H    0.000000   0.000000   0.000000  -0.000000   0.000000  -0.000000
    28  H   -0.000000  -0.000000  -0.000000  -0.000000   0.000000   0.000000
    29  H    0.000000  -0.000000  -0.000000   0.000000  -0.000000   0.000000
    30  H   -0.000000  -0.000000  -0.000000   0.000000  -0.000000   0.000000
    31  H    0.000000  -0.000000  -0.000000  -0.000000  -0.000000   0.000000
    32  H   -0.000000  -0.000000  -0.000000   0.000000  -0.000000   0.000000
    33  H    0.000005   0.000001   0.000006  -0.000000  -0.000000   0.000000
    34  H    0.000001   0.000000  -0.000000   0.000000   0.000000  -0.000000
    35  H   -0.000001  -0.000002  -0.000000   0.000000  -0.000000   0.000000
    36  H    0.002927  -0.000105   0.000100   0.000004  -0.000005  -0.000010
    37  H    0.514554  -0.006259   0.004465  -0.000076   0.003106   0.000025
    38  H   -0.006259   0.503023  -0.025058  -0.002371  -0.001290   0.000004
    39  H    0.004465  -0.025058   0.537316  -0.004745   0.004267  -0.000027
    40  H   -0.000076  -0.002371  -0.004745   0.525151  -0.031122  -0.000127
    41  H    0.003106  -0.001290   0.004267  -0.031122   0.559844  -0.000154
    42  H    0.000025   0.000004  -0.000027  -0.000127  -0.000154   0.493301
    43  H    0.000496   0.000048   0.000033  -0.000118   0.005004  -0.028013
    44  H   -0.000000   0.000001  -0.000000  -0.000000  -0.000000  -0.000000
    45  H    0.000000  -0.000000   0.000000  -0.000000   0.000000   0.000000
              43         44         45
     1  C   -0.000000   0.004287  -0.002826
     2  C    0.000000  -0.020404   0.005152
     3  C    0.000000  -0.006934   0.009337
     4  N   -0.000000   0.000025  -0.000089
     5  C   -0.000001   0.005950   0.004589
     6  C   -0.000006  -0.079468  -0.037384
     7  C    0.000012  -0.021110  -0.011778
     8  C    0.000000  -0.016379   0.020933
     9  C   -0.000096   0.006721  -0.013719
    10  N   -0.000042   0.002087  -0.006859
    11  C    0.005520  -0.000214  -0.001401
    12  S   -0.000113   0.001862  -0.000969
    13  N   -0.001735  -0.000062   0.000075
    14  C    0.035819  -0.001387  -0.000160
    15  C   -0.019449   0.000189   0.000051
    16  C   -0.000706   0.000211  -0.000001
    17  N   -0.062178  -0.000000  -0.000000
    18  C    0.003613   0.000001   0.000000
    19  N   -0.002208  -0.000000  -0.000000
    20  C    0.293447  -0.000022   0.000001
    21  C    0.036906   0.000116  -0.000006
    22  O    0.000876  -0.000000  -0.000000
    23  C    0.000001   0.439620   0.353948
    24  C   -0.000000  -0.000482  -0.001205
    25  O    0.000000  -0.004040  -0.003279
    26  O   -0.000000   0.009235   0.008854
    27  H    0.000000   0.000003  -0.000001
    28  H   -0.000000  -0.000000   0.000000
    29  H   -0.000000  -0.000101  -0.000059
    30  H   -0.000000   0.000001   0.000000
    31  H   -0.000000   0.000034  -0.000024
    32  H   -0.000000  -0.000035  -0.000461
    33  H   -0.000000   0.000099   0.000008
    34  H    0.000000  -0.000050   0.000004
    35  H   -0.000000  -0.000430   0.000019
    36  H   -0.000032  -0.000001   0.000000
    37  H    0.000496  -0.000000   0.000000
    38  H    0.000048   0.000001  -0.000000
    39  H    0.000033  -0.000000   0.000000
    40  H   -0.000118  -0.000000  -0.000000
    41  H    0.005004  -0.000000   0.000000
    42  H   -0.028013  -0.000000   0.000000
    43  H    0.551593  -0.000000   0.000000
    44  H   -0.000000   0.478693  -0.021863
    45  H    0.000000  -0.021863   0.497669
 Mulliken charges:
               1
     1  C   -0.309444
     2  C    0.393426
     3  C    0.058229
     4  N   -0.489544
     5  C    0.196887
     6  C   -0.070027
     7  C   -0.001368
     8  C   -0.587781
     9  C   -0.328835
    10  N   -0.194106
    11  C   -0.076781
    12  S   -0.130504
    13  N   -0.125769
    14  C   -0.912905
    15  C    0.226877
    16  C   -0.326236
    17  N   -0.295642
    18  C    0.516602
    19  N   -0.438771
    20  C   -0.073552
    21  C    0.200307
    22  O   -0.426209
    23  C   -0.121330
    24  C    0.450735
    25  O   -0.454298
    26  O   -0.262112
    27  H    0.152560
    28  H    0.172831
    29  H    0.143639
    30  H    0.157792
    31  H    0.170108
    32  H    0.143713
    33  H    0.135052
    34  H    0.162018
    35  H    0.324797
    36  H    0.316059
    37  H    0.200599
    38  H    0.191665
    39  H    0.166056
    40  H    0.174619
    41  H    0.169173
    42  H    0.194851
    43  H    0.181329
    44  H    0.223847
    45  H    0.201443
 Sum of Mulliken charges =  -0.00000
 Mulliken charges with hydrogens summed into heavy atoms:
               1
     1  C    0.015947
     2  C    0.393426
     3  C    0.058229
     4  N   -0.489544
     5  C    0.196887
     6  C   -0.070027
     7  C    0.142271
     8  C   -0.116168
     9  C   -0.031764
    10  N    0.130690
    11  C   -0.076781
    12  S   -0.130504
    13  N    0.190290
    14  C   -0.712306
    15  C    0.584597
    16  C    0.017555
    17  N   -0.295642
    18  C    0.516602
    19  N   -0.438771
    20  C    0.302628
    21  C    0.200307
    22  O   -0.426209
    23  C    0.303960
    24  C    0.450735
    25  O   -0.454298
    26  O   -0.262112
 Electronic spatial extent (au):  <R**2>=          14336.6797
 Charge=              0.0000 electrons
 Dipole moment (field-independent basis, Debye):
    X=              0.6699    Y=              1.5916    Z=             -6.6920  Tot=              6.9112
 Quadrupole moment (field-independent basis, Debye-Ang):
   XX=           -235.8979   YY=           -179.5750   ZZ=           -172.1854
   XY=              2.1579   XZ=             13.8472   YZ=              1.3512
 Traceless Quadrupole moment (field-independent basis, Debye-Ang):
   XX=            -40.0118   YY=             16.3111   ZZ=             23.7007
   XY=              2.1579   XZ=             13.8472   YZ=              1.3512
 Octapole moment (field-independent basis, Debye-Ang**2):
  XXX=             -6.4328  YYY=            -19.3756  ZZZ=            -43.9302  XYY=            -67.8052
  XXY=            300.5186  XXZ=           -184.5970  XZZ=             35.5611  YZZ=              1.2239
  YYZ=            -30.1631  XYZ=             31.0048
 Hexadecapole moment (field-independent basis, Debye-Ang**3):
 XXXX=         -21070.0814 YYYY=          -3024.8412 ZZZZ=          -2072.3030 XXXY=            404.9572
 XXXZ=           -611.3692 YYYX=            -36.2713 YYYZ=             87.5548 ZZZX=            205.8222
 ZZZY=            -56.1823 XXYY=          -3741.1112 XXZZ=          -3117.5492 YYZZ=           -817.9543
 XXYZ=            311.2324 YYXZ=            -43.1067 ZZXY=            103.0895
 N-N= 2.345895918051D+03 E-N=-8.328542264238D+03  KE= 1.544634302957D+03
 Unable to Open any file for archive entry.
 1\1\GINC-N1\SP\RB3LYP TD-FC\6-31+G(d,p)\C17H19N5O3S1\HPCMGAC13\30-Jul-
 2025\0\\# td=(50-50,nstates=3) b3lyp/6-31+g(d,p) geom=connectivity\\Ti
 tle Card Required\\0,1\C,0,-3.376419,2.746714,1.07417\C,0,-4.181427,1.
 980657,0.313438\C,0,-5.557676,2.363836,0.116888\N,0,-6.67163,2.665971,
 -0.024744\C,0,-3.746326,0.735261,-0.344549\C,0,-3.09123,-0.348597,0.11
 5358\C,0,-2.622592,-0.609299,1.525691\C,0,-3.214756,-1.911715,2.104799
 \C,0,-1.080857,-0.552749,1.670239\N,0,-0.411181,-1.643185,0.971625\C,0
 ,0.876098,-1.679591,0.523053\S,0,1.487476,-3.079275,-0.198509\N,0,1.59
 5671,-0.530462,0.668653\C,0,2.996197,-0.428208,0.316259\C,0,3.250793,-
 0.108117,-1.174889\C,0,4.745008,0.05274,-1.442832\N,0,5.2909,1.119366,
 -0.575634\C,0,6.42402,1.720699,-0.962284\N,0,7.391025,2.278904,-1.3079
 45\C,0,5.108434,0.940212,0.87696\C,0,3.649059,0.632235,1.188782\O,0,3.
 05495,1.192755,2.092916\C,0,-2.988788,-1.318002,-1.037752\C,0,-3.70086
 6,-0.593852,-2.171024\O,0,-3.895312,-0.931709,-3.304452\O,0,-4.128205,
 0.634294,-1.68383\H,0,-2.327289,2.502906,1.196276\H,0,-3.751681,3.6353
 96,1.569206\H,0,-2.990378,0.214285,2.148628\H,0,-2.879157,-2.060271,3.
 136445\H,0,-4.307389,-1.864012,2.10838\H,0,-2.933321,-2.800229,1.52926
 4\H,0,-0.73073,0.395702,1.250927\H,0,-0.8304,-0.559938,2.742775\H,0,-0
 .84796,-2.554369,0.976156\H,0,1.312252,0.146808,1.370306\H,0,3.489958,
 -1.389736,0.535441\H,0,2.852032,-0.932216,-1.772568\H,0,2.719251,0.809
 745,-1.449105\H,0,4.921651,0.346191,-2.479326\H,0,5.277145,-0.894689,-
 1.26372\H,0,5.391675,1.856165,1.396535\H,0,5.729776,0.111258,1.259184\
 H,0,-1.959,-1.545222,-1.338181\H,0,-3.483039,-2.27959,-0.85507\\Versio
 n=ES64L-G16RevC.02\State=1-A\HF=-1556.8701533\RMSD=1.669e-09\PG=C01 [X
 (C17H19N5O3S1)]\\@
 The archive entry for this job was punched.


 WE MIGHT AS WELL ATTEMPT TO INTRODUCE A NEW PLANET 
 INTO THE SOLAR SYSTEM, OR TO ANNIHILATE ONE ALREADYIN EXISTENCE, 
 AS TO CREATE OR DESTROY A PARTICLE OF HYDROGEN.
 ALL THE CHANGES WE CAN PRODUCE CONSIST IN SEPARATING PARTICLES
 THAT ARE IN A STATE OF ... COMBINATION, AND JOINING 
 THOSE THAT WERE PREVIOUSLY AT A DISTANCE.

                                    -- JOHN DALTON, 1810
 Job cpu time:       0 days  2 hours 41 minutes 54.5 seconds.
 Elapsed time:       0 days  0 hours 10 minutes 22.2 seconds.
 File lengths (MBytes):  RWF=   1942 Int=      0 D2E=      0 Chk=     91 Scr=      2
 Normal termination of Gaussian 16 at Wed Jul 30 06:48:17 2025.
