 Entering Gaussian System, Link 0=g16
 Input=M2585E.gjf
 Output=M2585E.log
 Initial command:
 /hpc/softwares/Gaussian/g16/l1.exe "/hpc/home/hpcmgac13/pbs.12423.admin1.x8z/Gau-1778537.inp" -scrdir="/hpc/home/hpcmgac13/pbs.12423.admin1.x8z/"
 Default linda workers: n1
 Default is to use  16 SMP processors on each worker.
 Entering Link 1 = /hpc/softwares/Gaussian/g16/l1.exe PID=   1778538.
  
 Copyright (c) 1988-2021, Gaussian, Inc.  All Rights Reserved.
  
 This is part of the Gaussian(R) 16 program.  It is based on
 the Gaussian(R) 09 system (copyright 2009, Gaussian, Inc.),
 the Gaussian(R) 03 system (copyright 2003, Gaussian, Inc.),
 the Gaussian(R) 98 system (copyright 1998, Gaussian, Inc.),
 the Gaussian(R) 94 system (copyright 1995, Gaussian, Inc.),
 the Gaussian 92(TM) system (copyright 1992, Gaussian, Inc.),
 the Gaussian 90(TM) system (copyright 1990, Gaussian, Inc.),
 the Gaussian 88(TM) system (copyright 1988, Gaussian, Inc.),
 the Gaussian 86(TM) system (copyright 1986, Carnegie Mellon
 University), and the Gaussian 82(TM) system (copyright 1983,
 Carnegie Mellon University). Gaussian is a federally registered
 trademark of Gaussian, Inc.
  
 This software contains proprietary and confidential information,
 including trade secrets, belonging to Gaussian, Inc.
  
 This software is provided under written license and may be
 used, copied, transmitted, or stored only in accord with that
 written license.
  
 The following legend is applicable only to US Government
 contracts under FAR:
  
                    RESTRICTED RIGHTS LEGEND
  
 Use, reproduction and disclosure by the US Government is
 subject to restrictions as set forth in subparagraphs (a)
 and (c) of the Commercial Computer Software - Restricted
 Rights clause in FAR 52.227-19.
  
 Gaussian, Inc.
 340 Quinnipiac St., Bldg. 40, Wallingford CT 06492
  
  
 ---------------------------------------------------------------
 Warning -- This program may not be used in any manner that
 competes with the business of Gaussian, Inc. or will provide
 assistance to any competitor of Gaussian, Inc.  The licensee
 of this program is prohibited from giving any competitor of
 Gaussian, Inc. access to this program.  By using this program,
 the user acknowledges that Gaussian, Inc. is engaged in the
 business of creating and licensing software in the field of
 computational chemistry and represents and warrants to the
 licensee that it is not a competitor of Gaussian, Inc. and that
 it will not use this program in any manner prohibited above.
 ---------------------------------------------------------------
  

 Cite this work as:
 Gaussian 16, Revision C.02,
 M. J. Frisch, G. W. Trucks, H. B. Schlegel, G. E. Scuseria, 
 M. A. Robb, J. R. Cheeseman, G. Scalmani, V. Barone, 
 G. A. Petersson, H. Nakatsuji, X. Li, M. Caricato, A. V. Marenich, 
 J. Bloino, B. G. Janesko, R. Gomperts, B. Mennucci, H. P. Hratchian, 
 J. V. Ortiz, A. F. Izmaylov, J. L. Sonnenberg, D. Williams-Young, 
 F. Ding, F. Lipparini, F. Egidi, J. Goings, B. Peng, A. Petrone, 
 T. Henderson, D. Ranasinghe, V. G. Zakrzewski, J. Gao, N. Rega, 
 G. Zheng, W. Liang, M. Hada, M. Ehara, K. Toyota, R. Fukuda, 
 J. Hasegawa, M. Ishida, T. Nakajima, Y. Honda, O. Kitao, H. Nakai, 
 T. Vreven, K. Throssell, J. A. Montgomery, Jr., J. E. Peralta, 
 F. Ogliaro, M. J. Bearpark, J. J. Heyd, E. N. Brothers, K. N. Kudin, 
 V. N. Staroverov, T. A. Keith, R. Kobayashi, J. Normand, 
 K. Raghavachari, A. P. Rendell, J. C. Burant, S. S. Iyengar, 
 J. Tomasi, M. Cossi, J. M. Millam, M. Klene, C. Adamo, R. Cammi, 
 J. W. Ochterski, R. L. Martin, K. Morokuma, O. Farkas, 
 J. B. Foresman, and D. J. Fox, Gaussian, Inc., Wallingford CT, 2019.
 
 ******************************************
 Gaussian 16:  ES64L-G16RevC.02  7-Dec-2021
                30-Jul-2025 
 ******************************************
 SetLPE:    new flags="-opt 'Tsnet.Node.lindarsharg: ssh'  -nodelist 'n1' -env GAUSS_MDEF=2147483648 -env GAUSS_EXEDIR="/hpc/softwares/Gaussian/g16/bsd:/hpc/softwares/Gaussian/g16""
 Will use up to    1 processors via Linda.
 ----------------------------------------------------------
 # td=(50-50,nstates=3) b3lyp/6-31+g(d,p) geom=connectivity
 ----------------------------------------------------------
 1/38=1,57=2,172=1/1;
 2/12=2,17=6,18=5,40=1/2;
 3/5=1,6=6,7=111,11=9,25=1,30=1,74=-5/1,2,3,8;
 4//1;
 5/5=2,38=5/2;
 8/6=1,10=2,108=3/1;
 9/41=3,42=1,48=2,70=2/14;
 6/7=2,8=2,9=2,10=2/1;
 99/5=1,9=1/99;
 -------------------
 Title Card Required
 -------------------
 Symbolic Z-matrix:
 Charge =  0 Multiplicity = 1
 C                    -1.478     2.5934   -0.4822 
 O                    -1.7021    1.2094   -0.4822 
 C                    -0.5287    0.5319   -0.4822 
 C                    -0.5287   -0.8051   -0.4822 
 C                     0.6292   -1.4736   -0.4822 
 C                     0.6292   -2.8106   -0.4822 
 C                     1.7663   -3.4671   -0.4822 
 N                     2.7692   -4.0461   -0.4822 
 C                    -0.6672   -3.5591   -0.4822 
 C                    -1.8253   -2.57     -0.4822 
 C                    -3.1369   -3.2732   -0.7857 
 C                    -4.1747   -2.5696    0.0809 
 C                    -3.4011   -1.5056    0.8405 
 N                    -2.0311   -2.0105    0.8508 
 C                     1.7871   -0.8051   -0.4822 
 O                     2.9605   -1.4826   -0.4822 
 C                     4.047    -0.5965   -0.4822 
 C                     1.7871    0.5319   -0.4822 
 C                     0.6292    1.2004   -0.4822 
 C                     0.6292    2.5374   -0.4822 
 C                     0.7629    3.785    -0.7917 
 N                    -0.24      4.364    -0.7917 
 C                     1.7663    3.1939   -0.4822 
 N                     2.7692    3.7729   -0.4822 
 H                    -2.4542    3.1279   -0.4822 
 H                    -0.9013    2.8753    0.4271 
 H                    -0.9007    2.8756   -1.391 
 H                    -1.4813   -1.3551   -0.4822 
 H                    -0.726    -4.1983   -1.3914 
 H                    -0.726    -4.1989    0.4266 
 H                    -1.5664   -1.796    -1.2389 
 H                    -3.3944   -3.1707   -1.8636 
 H                    -3.0847   -4.364    -0.571 
 H                    -4.6453   -3.2891    0.7878 
 H                    -4.998    -2.1322   -0.5269 
 H                    -3.4578   -0.5252    0.3167 
 H                    -3.8025   -1.3299    1.8636 
 H                    -1.9406   -2.7336    1.5645 
 H                     4.998    -1.1747   -0.4822 
 H                     4.0028    0.0439   -1.3914 
 H                     4.0028    0.0445    0.4266 
 H                     2.7397    1.0819   -0.4822 
 
                          Input orientation:                          
 ---------------------------------------------------------------------
 Center     Atomic      Atomic             Coordinates (Angstroms)
 Number     Number       Type             X           Y           Z
 ---------------------------------------------------------------------
      1          6           0       -1.478000    2.593400   -0.482200
      2          8           0       -1.702100    1.209400   -0.482200
      3          6           0       -0.528700    0.531900   -0.482200
      4          6           0       -0.528700   -0.805100   -0.482200
      5          6           0        0.629200   -1.473600   -0.482200
      6          6           0        0.629200   -2.810600   -0.482200
      7          6           0        1.766300   -3.467100   -0.482200
      8          7           0        2.769200   -4.046100   -0.482200
      9          6           0       -0.667200   -3.559100   -0.482200
     10          6           0       -1.825300   -2.570000   -0.482200
     11          6           0       -3.136900   -3.273200   -0.785700
     12          6           0       -4.174700   -2.569600    0.080900
     13          6           0       -3.401100   -1.505600    0.840500
     14          7           0       -2.031100   -2.010500    0.850800
     15          6           0        1.787100   -0.805100   -0.482200
     16          8           0        2.960500   -1.482600   -0.482200
     17          6           0        4.047000   -0.596500   -0.482200
     18          6           0        1.787100    0.531900   -0.482200
     19          6           0        0.629200    1.200400   -0.482200
     20          6           0        0.629200    2.537400   -0.482200
     21          6           0        0.762900    3.785000   -0.791700
     22          7           0       -0.240000    4.364000   -0.791700
     23          6           0        1.766300    3.193900   -0.482200
     24          7           0        2.769200    3.772900   -0.482200
     25          1           0       -2.454200    3.127900   -0.482200
     26          1           0       -0.901300    2.875300    0.427100
     27          1           0       -0.900700    2.875600   -1.391000
     28          1           0       -1.481300   -1.355100   -0.482200
     29          1           0       -0.726000   -4.198300   -1.391400
     30          1           0       -0.726000   -4.198900    0.426600
     31          1           0       -1.566400   -1.796000   -1.238900
     32          1           0       -3.394400   -3.170700   -1.863600
     33          1           0       -3.084700   -4.364000   -0.571000
     34          1           0       -4.645300   -3.289100    0.787800
     35          1           0       -4.998000   -2.132200   -0.526900
     36          1           0       -3.457800   -0.525200    0.316700
     37          1           0       -3.802500   -1.329900    1.863600
     38          1           0       -1.940600   -2.733600    1.564500
     39          1           0        4.998000   -1.174700   -0.482200
     40          1           0        4.002800    0.043900   -1.391400
     41          1           0        4.002800    0.044500    0.426600
     42          1           0        2.739700    1.081900   -0.482200
 ---------------------------------------------------------------------
                    Distance matrix (angstroms):
                    1          2          3          4          5
     1  C    0.000000
     2  O    1.402026   0.000000
     3  C    2.269571   1.354944   0.000000
     4  C    3.528594   2.331325   1.337000   0.000000
     5  C    4.580478   3.554356   2.315764   1.337021   0.000000
     6  C    5.800302   4.647081   3.537377   2.315764   1.337000
     7  C    6.874238   5.822323   4.610751   3.514722   2.295003
     8  N    7.881730   6.900203   5.642183   4.623876   3.346245
     9  C    6.205695   4.879509   4.093344   2.757480   2.455598
    10  C    5.175067   3.781407   3.361987   2.189987   2.688245
    11  C    6.104184   4.716404   4.623160   3.603656   4.184995
    12  C    5.851995   4.551008   4.819720   4.089481   4.959411
    13  C    4.716953   3.465164   3.761864   3.238969   4.241919
    14  N    4.824801   3.500412   3.240045   2.342453   3.023631
    15  C    4.712821   4.028986   2.674042   2.315800   1.337021
    16  O    6.026115   5.383930   4.028986   3.554367   2.331317
    17  C    6.379740   6.026062   4.712782   4.580452   3.528549
    18  C    3.861432   3.554367   2.315800   2.674042   2.315764
    19  C    2.526013   2.331317   1.337021   2.315764   2.674000
    20  C    2.107944   2.683010   2.315764   3.537377   4.011000
    21  C    2.556821   3.578510   3.513784   4.778393   5.269397
    22  N    2.182535   3.490706   3.855402   5.186399   5.910065
    23  C    3.299406   3.996003   3.514722   4.610751   4.804014
    24  N    4.407939   5.154033   4.623876   5.642183   5.666159
    25  H    1.112950   2.060654   3.232146   4.379045   5.539057
    26  H    1.113049   2.059934   2.541098   3.809331   4.699169
    27  H    1.113027   2.060190   2.541108   3.809443   4.699154
    28  H    3.948501   2.573988   2.113815   1.099976   2.113824
    29  H    6.893427   5.569797   4.820826   3.518434   3.176036
    30  H    6.893966   5.570314   4.821339   3.518909   3.176436
    31  H    4.455024   3.102167   2.658672   1.622128   2.344610
    32  H    6.229422   4.894632   4.881572   3.964412   4.580150
    33  H    7.141063   5.743018   5.523663   4.382555   4.706947
    34  H    6.800625   5.523751   5.758414   4.972882   5.720952
    35  H    5.892681   4.693745   5.203275   4.662385   5.665786
    36  H    3.779354   2.594140   3.214861   3.048969   4.270980
    37  H    5.128193   4.045059   4.436986   4.061522   5.016313
    38  H    5.725374   4.448945   4.104380   3.146674   3.518587
    39  H    7.492473   7.111629   5.784194   5.539045   4.379013
    40  H    6.112754   5.893294   4.647503   4.699142   3.809282
    41  H    6.112444   5.893114   4.647361   4.699173   3.809425
    42  H    4.480360   4.443630   3.314353   3.774017   3.314331
                    6          7          8          9         10
     6  C    0.000000
     7  C    1.313007   0.000000
     8  N    2.471044   1.158037   0.000000
     9  C    1.496965   2.435238   3.470737   0.000000
    10  C    2.466264   3.701943   4.825795   1.522995   0.000000
    11  C    3.806523   4.916409   5.964185   2.504650   1.518847
    12  C    4.842790   6.034739   7.121438   3.687648   2.415939
    13  C    4.438004   5.683224   6.802667   3.666143   2.316383
    14  N    3.081273   4.280049   5.381769   2.456680   1.460234
    15  C    2.315764   2.662081   3.386532   3.688916   4.020486
    16  O    2.683010   2.316107   2.570628   4.179959   4.907782
    17  C    4.072296   3.666325   3.678656   5.567825   6.195047
    18  C    3.537377   3.999054   4.682158   4.770730   4.761430
    19  C    4.011000   4.804014   5.666159   4.932899   4.498943
    20  C    5.348000   6.111221   6.922577   6.232814   5.666578
    21  C    6.604211   7.327725   8.089942   7.488443   6.868813
    22  N    7.233684   8.089942   8.937609   7.940643   7.119643
    23  C    6.111221   6.661000   7.309132   7.178087   6.791328
    24  N    6.922577   7.309132   7.819000   8.097350   7.832101
    25  H    6.691273   7.829856   8.874130   6.921657   5.732502
    26  H    5.958080   6.940386   7.887026   6.502548   5.597490
    27  H    5.958136   6.940364   7.886952   6.502754   5.597800
    28  H    2.563726   3.873945   5.030729   2.349548   1.262663
    29  H    2.142177   2.751883   3.614724   1.112959   2.164825
    30  H    2.142396   2.751910   3.614649   1.112978   2.165108
    31  H    2.534298   3.804216   4.942972   2.118886   1.112969
    32  H    4.269344   5.350602   6.376877   3.081678   2.175128
    33  H    4.026660   4.934016   5.863198   2.549521   2.193721
    34  H    5.446303   6.538593   7.560473   4.184624   3.175280
    35  H    5.668122   6.894905   7.999650   4.560030   3.203075
    36  H    4.750249   6.048491   7.197952   4.198838   2.735782
    37  H    5.228309   6.409519   7.487841   4.505798   3.309070
    38  H    3.286150   4.297454   5.300363   2.547936   2.056463
    39  H    4.665038   3.962194   3.634899   6.146532   6.964502
    40  H    4.511762   4.260950   4.367667   5.968011   6.451811
    41  H    4.512061   4.261359   4.368145   5.968312   6.451998
    42  H    4.427840   4.651979   5.128085   5.757243   5.845990
                   11         12         13         14         15
    11  C    0.000000
    12  C    1.524164   0.000000
    13  C    2.416348   1.519061   0.000000
    14  N    2.344214   2.345285   1.460113   0.000000
    15  C    5.516286   6.242884   5.399783   4.220015   0.000000
    16  O    6.362126   7.239456   6.497693   5.193423   1.354944
    17  C    7.672370   8.473875   7.619068   6.381190   2.269507
    18  C    6.230303   6.743845   5.728731   4.776959   1.337000
    19  C    5.855657   6.132490   5.031430   4.377666   2.315764
    20  C    6.930995   7.033917   5.859923   5.434839   3.537377
    21  C    8.063911   8.094582   6.927728   6.640185   4.713151
    22  N    8.168163   8.019857   6.863588   6.822030   5.560982
    23  C    8.121383   8.296415   7.108928   6.578975   3.999054
    24  N    9.199003   9.421366   8.227071   7.633314   4.682158
    25  H    6.444554   5.978186   4.910751   5.325322   5.784213
    26  H    6.653784   6.362542   5.060848   5.032595   4.647544
    27  H    6.570747   6.521945   5.516023   5.493400   4.647337
    28  H    2.551907   3.007739   2.336197   1.583893   3.314353
    29  H    2.652380   4.088259   4.403200   3.393702   4.319273
    30  H    2.852899   3.829838   3.818552   2.583085   4.319661
    31  H    2.203175   3.023832   2.788254   2.151465   3.577770
    32  H    1.112960   2.179741   3.175651   3.251556   5.861081
    33  H    1.112954   2.198396   3.203575   2.944580   6.033912
    34  H    2.179777   1.113037   2.175243   2.910812   7.011343
    35  H    2.198307   1.112907   2.193741   3.273433   6.913810
    36  H    2.978215   2.179247   1.112998   2.127640   5.312773
    37  H    3.352347   2.203045   1.112981   2.151009   6.084556
    38  H    2.691792   2.686851   2.040887   1.020015   4.669458
    39  H    8.406689   9.295227   8.509049   7.203034   3.232102
    40  H    7.895907   8.710313   7.886702   6.756920   2.541018
    41  H    7.965684   8.592120   7.575741   6.388342   2.541075
    42  H    7.320754   7.839608   6.793682   5.839551   2.113815
                   16         17         18         19         20
    16  O    0.000000
    17  C    1.402018   0.000000
    18  C    2.331325   2.525952   0.000000
    19  C    3.554356   3.861374   1.337021   0.000000
    20  C    4.647081   4.637099   2.315764   1.337000   0.000000
    21  C    5.716017   5.484400   3.424534   2.606496   1.292351
    22  N    6.672460   6.563590   4.346253   3.295400   2.046403
    23  C    4.826569   4.423655   2.662081   2.295003   1.313007
    24  N    5.258981   4.552409   3.386532   3.346245   2.471044
    25  H    7.111658   7.492447   4.972710   3.636291   3.139434
    26  H    5.893354   6.112765   3.680468   2.444289   1.812025
    27  H    5.893105   6.112375   3.680097   2.443933   1.811323
    28  H    4.443630   5.580105   3.774017   3.314331   4.427840
    29  H    4.668185   6.048234   5.432965   5.639962   6.930575
    30  H    4.668456   6.048531   5.433420   5.640472   6.931105
    31  H    4.600395   5.789789   4.151828   3.790998   4.916463
    32  H    6.718832   7.994323   6.516552   6.099519   7.118991
    33  H    6.697372   8.066169   6.907399   6.690552   7.837746
    34  H    7.919882   9.187985   7.588723   7.041936   7.961241
    35  H    7.985092   9.174552   7.289514   6.540153   7.312492
    36  H    6.538305   7.547539   5.409684   4.507716   5.169268
    37  H    7.159907   8.225284   6.341349   5.616508   6.332358
    38  H    5.456626   6.678887   5.361737   5.125350   6.210982
    39  H    2.060633   1.112976   3.636257   4.972677   5.732896
    40  H    2.059912   1.112974   2.444200   3.680396   4.292478
    41  H    2.060180   1.112992   2.443932   3.680109   4.292044
    42  H    2.573988   2.127454   1.099976   2.113824   2.563726
                   21         22         23         24         25
    21  C    0.000000
    22  N    1.158037   0.000000
    23  C    1.204990   2.343110   0.000000
    24  N    2.030068   3.082284   1.158037   0.000000
    25  H    3.298076   2.554685   4.221016   5.263073   0.000000
    26  H    2.254460   2.034458   2.836269   3.886526   1.817177
    27  H    1.988400   1.735229   2.835511   3.885773   1.817398
    28  H    5.617193   5.860437   5.589303   6.660566   4.587355
    29  H    8.143067   8.597024   7.853841   8.751177   7.581987
    30  H    8.212414   8.662777   7.854360   8.751682   7.582519
    31  H    6.064090   6.317034   6.048023   7.098075   5.060195
    32  H    8.173975   8.238380   8.309586   9.386789   6.516487
    33  H    9.014374   9.182538   8.981199  10.024229   7.518908
    34  H    9.043580   8.970587   9.206020  10.317924   6.898674
    35  H    8.262647   8.056631   8.609593   9.757131   5.843079
    36  H    6.133570   5.957102   6.462288   7.608379   3.871769
    37  H    7.352258   7.222363   7.548449   8.644570   5.214659
    38  H    7.439942   7.669397   7.284596   8.288893   6.229763
    39  H    6.529203   7.629524   5.434018   5.426444   8.605095
    40  H    4.985220   6.084756   3.968763   4.031607   7.213220
    41  H    5.096327   6.176058   3.968195   4.030962   7.212914
    42  H    3.363076   4.443713   2.325522   2.691162   5.582357
                   26         27         28         29         30
    26  H    0.000000
    27  H    1.818100   0.000000
    28  H    4.365720   4.365986   0.000000
    29  H    7.305716   7.076057   3.079108   0.000000
    30  H    7.076372   7.306349   3.079544   1.818000   0.000000
    31  H    5.003894   4.721243   0.879903   2.549622   3.042054
    32  H    6.929428   6.557411   2.977351   2.898153   3.663683
    33  H    7.626985   7.606186   3.410609   2.502794   2.566307
    34  H    7.221320   7.534768   3.919713   4.575639   4.039692
    35  H    6.539734   6.527832   3.601814   4.823496   4.840495
    36  H    4.255735   4.584805   2.287690   4.885898   4.579397
    37  H    5.306995   6.057978   3.300209   5.318608   4.445333
    38  H    5.816664   6.424912   2.510020   3.515387   2.217470
    39  H    7.213256   7.212871   6.481811   6.537047   6.537268
    40  H    5.947602   5.662406   5.732294   6.352780   6.608179
    41  H    5.662475   5.946689   5.732377   6.608179   6.353581
    42  H    4.159326   4.158821   4.873993   6.381084   6.381524
                   31         32         33         34         35
    31  H    0.000000
    32  H    2.370999   0.000000
    33  H    3.057115   1.786251   0.000000
    34  H    3.976995   2.934057   2.331785   0.000000
    35  H    3.520774   2.331691   2.939999   1.786407   0.000000
    36  H    2.759025   3.428760   3.957727   3.044870   2.380405
    37  H    3.852648   4.176974   3.955790   2.388749   2.790591
    38  H    2.979626   3.749195   2.920193   2.868317   3.752776
    39  H    6.637014   8.736399   8.689624   9.953734  10.041853
    40  H    5.867238   8.079307   8.386614   9.520895   9.300386
    41  H    6.097321   8.384575   8.406113   9.275397   9.309220
    42  H    5.234253   7.590788   7.974293   8.675066   8.378809
                   36         37         38         39         40
    36  H    0.000000
    37  H    1.777431   0.000000
    38  H    2.955661   2.350852   0.000000
    39  H    8.518254   9.109098   7.400224   0.000000
    40  H    7.674766   8.567675   7.195544   1.817155   0.000000
    41  H    7.483127   8.054604   6.658578   1.817358   1.818000
    42  H    6.452133   7.356625   6.375910   3.192517   1.870698
                   41         42
    41  H    0.000000
    42  H    1.870171   0.000000
 Stoichiometry    C18H18N4O2
 Framework group  C1[X(C18H18N4O2)]
 Deg. of freedom   120
 Full point group                 C1      NOp   1
 Largest Abelian subgroup         C1      NOp   1
 Largest concise Abelian subgroup C1      NOp   1
                         Standard orientation:                         
 ---------------------------------------------------------------------
 Center     Atomic      Atomic             Coordinates (Angstroms)
 Number     Number       Type             X           Y           Z
 ---------------------------------------------------------------------
      1          6           0       -1.863808   -2.753489   -0.135502
      2          8           0       -0.546168   -2.278407   -0.197131
      3          6           0       -0.518617   -0.925555   -0.127085
      4          6           0        0.650096   -0.277587   -0.169713
      5          6           0        0.677238    1.057369   -0.100590
      6          6           0        1.845951    1.705337   -0.143218
      7          6           0        1.872614    3.016318   -0.075338
      8          7           0        1.896112    4.172567   -0.015468
      9          6           0        3.124102    0.936194   -0.268335
     10          6           0        2.816809   -0.554314   -0.327252
     11          6           0        4.042740   -1.342619   -0.754530
     12          6           0        3.984046   -2.635595    0.050358
     13          6           0        2.731591   -2.516024    0.901594
     14          7           0        2.514334   -1.075713    1.002762
     15          6           0       -0.464332    1.744359    0.011159
     16          8           0       -0.436781    3.097211    0.081205
     17          6           0       -1.734202    3.616401    0.194316
     18          6           0       -1.633045    1.096391    0.053787
     19          6           0       -1.660187   -0.238566   -0.015336
     20          6           0       -2.828900   -0.886534    0.027292
     21          6           0       -4.004137   -1.358058   -0.230885
     22          7           0       -4.027635   -2.514308   -0.290755
     23          6           0       -3.949971   -0.211890    0.137034
     24          7           0       -4.938716    0.383143    0.233824
     25          1           0       -1.861256   -3.864860   -0.194705
     26          1           0       -2.328018   -2.434717    0.824587
     27          1           0       -2.447999   -2.338107   -0.986976
     28          1           0        1.589285   -0.842758   -0.261649
     29          1           0        3.651418    1.242763   -1.199266
     30          1           0        3.771366    1.146827    0.612234
     31          1           0        1.965935   -0.663328   -1.036356
     32          1           0        4.006251   -1.560068   -1.845431
     33          1           0        4.985225   -0.779758   -0.571296
     34          1           0        4.885885   -2.735196    0.695043
     35          1           0        3.957970   -3.534238   -0.605632
     36          1           0        1.867471   -3.012948    0.406491
     37          1           0        2.838378   -3.005794    1.895299
     38          1           0        3.149749   -0.684027    1.697931
     39          1           0       -1.686428    4.726949    0.250157
     40          1           0       -2.332450    3.315568   -0.694678
     41          1           0       -2.213551    3.219051    1.116861
     42          1           0       -2.572234    1.661561    0.145723
 ---------------------------------------------------------------------
 Rotational constants (GHZ):           0.3476007           0.2149012           0.1368190
 Standard basis: 6-31+G(d,p) (6D, 7F)
 There are   546 symmetry adapted cartesian basis functions of A   symmetry.
 There are   546 symmetry adapted basis functions of A   symmetry.
   546 basis functions,   894 primitive gaussians,   546 cartesian basis functions
    85 alpha electrons       85 beta electrons
       nuclear repulsion energy      2111.6342462141 Hartrees.
 NAtoms=   42 NActive=   42 NUniq=   42 SFac= 1.00D+00 NAtFMM=   60 NAOKFM=F Big=F
 Integral buffers will be    131072 words long.
 Regular integral format.
 Two-electron integral symmetry is turned on.
 One-electron integrals computed using PRISM.
 NBasis=   546 RedAO= T EigKep=  1.04D-06  NBF=   546
 NBsUse=   539 1.00D-06 EigRej=  3.92D-07 NBFU=   539
 ExpMin= 4.38D-02 ExpMax= 5.48D+03 ExpMxC= 8.25D+02 IAcc=3 IRadAn=         5 AccDes= 0.00D+00
 Harris functional with IExCor=  402 and IRadAn=       5 diagonalized for initial guess.
 HarFok:  IExCor=  402 AccDes= 0.00D+00 IRadAn=         5 IDoV= 1 UseB2=F ITyADJ=14
 ICtDFT=  3500011 ScaDFX=  1.000000  1.000000  1.000000  1.000000
 FoFCou: FMM=F IPFlag=           0 FMFlag=      100000 FMFlg1=           0
         NFxFlg=           0 DoJE=T BraDBF=F KetDBF=T FulRan=T
         wScrn=  0.000000 ICntrl=       500 IOpCl=  0 I1Cent=   200000004 NGrid=           0
         NMat0=    1 NMatS0=      1 NMatT0=    0 NMatD0=    1 NMtDS0=    0 NMtDT0=    0
 Petite list used in FoFCou.
 Requested convergence on RMS density matrix=1.00D-08 within 128 cycles.
 Requested convergence on MAX density matrix=1.00D-06.
 Requested convergence on             energy=1.00D-06.
 No special actions if energy rises.
 Restarting incremental Fock formation.
 SCF Done:  E(RB3LYP) =  -1065.36742772     A.U. after   23 cycles
            NFock= 23  Conv=0.20D-08     -V/T= 2.0035
 DoSCS=F DFT=T ScalE2(SS,OS)=  1.000000  1.000000
 ExpMin= 4.38D-02 ExpMax= 5.48D+03 ExpMxC= 8.25D+02 IAcc=3 IRadAn=         5 AccDes= 0.00D+00
 HarFok:  IExCor=  205 AccDes= 0.00D+00 IRadAn=         5 IDoV=-2 UseB2=F ITyADJ=14
 ICtDFT= 12500011 ScaDFX=  1.000000  1.000000  1.000000  1.000000
 GSVD:  LWork=        -768 too small for GESVD, short by        3240 words or        3240 for optimal perf.
 Range of M.O.s used for correlation:    25   539
 NBasis=   546 NAE=    85 NBE=    85 NFC=    24 NFV=     0
 NROrb=    515 NOA=    61 NOB=    61 NVA=   454 NVB=   454

 **** Warning!!: The largest alpha MO coefficient is  0.15904795D+03


 **** Warning!!: The smallest alpha delta epsilon is  0.56192943D-01

 Orbital symmetries:
       Occupied  (A) (A) (A) (A) (A) (A) (A) (A) (A) (A) (A) (A)
                 (A) (A) (A) (A) (A) (A) (A) (A) (A) (A) (A) (A)
                 (A) (A) (A) (A) (A) (A) (A) (A) (A) (A) (A) (A)
                 (A) (A) (A) (A) (A) (A) (A) (A) (A) (A) (A) (A)
                 (A) (A) (A) (A) (A) (A) (A) (A) (A) (A) (A) (A)
                 (A) (A) (A) (A) (A) (A) (A) (A) (A) (A) (A) (A)
                 (A) (A) (A) (A) (A) (A) (A) (A) (A) (A) (A) (A)
                 (A)
       Virtual   (A) (A) (A) (A) (A) (A) (A) (A) (A) (A) (A) (A)
                 (A) (A) (A) (A) (A) (A) (A) (A) (A) (A) (A) (A)
                 (A) (A) (A) (A) (A) (A) (A) (A) (A) (A) (A) (A)
                 (A) (A) (A) (A) (A) (A) (A) (A) (A) (A) (A) (A)
                 (A) (A) (A) (A) (A) (A) (A) (A) (A) (A) (A) (A)
                 (A) (A) (A) (A) (A) (A) (A) (A) (A) (A) (A) (A)
                 (A) (A) (A) (A) (A) (A) (A) (A) (A) (A) (A) (A)
                 (A) (A) (A) (A) (A) (A) (A) (A) (A) (A) (A) (A)
                 (A) (A) (A) (A) (A) (A) (A) (A) (A) (A) (A) (A)
                 (A) (A) (A) (A) (A) (A) (A) (A) (A) (A) (A) (A)
                 (A) (A) (A) (A) (A) (A) (A) (A) (A) (A) (A) (A)
                 (A) (A) (A) (A) (A) (A) (A) (A) (A) (A) (A) (A)
                 (A) (A) (A) (A) (A) (A) (A) (A) (A) (A) (A) (A)
                 (A) (A) (A) (A) (A) (A) (A) (A) (A) (A) (A) (A)
                 (A) (A) (A) (A) (A) (A) (A) (A) (A) (A) (A) (A)
                 (A) (A) (A) (A) (A) (A) (A) (A) (A) (A) (A) (A)
                 (A) (A) (A) (A) (A) (A) (A) (A) (A) (A) (A) (A)
                 (A) (A) (A) (A) (A) (A) (A) (A) (A) (A) (A) (A)
                 (A) (A) (A) (A) (A) (A) (A) (A) (A) (A) (A) (A)
                 (A) (A) (A) (A) (A) (A) (A) (A) (A) (A) (A) (A)
                 (A) (A) (A) (A) (A) (A) (A) (A) (A) (A) (A) (A)
                 (A) (A) (A) (A) (A) (A) (A) (A) (A) (A) (A) (A)
                 (A) (A) (A) (A) (A) (A) (A) (A) (A) (A) (A) (A)
                 (A) (A) (A) (A) (A) (A) (A) (A) (A) (A) (A) (A)
                 (A) (A) (A) (A) (A) (A) (A) (A) (A) (A) (A) (A)
                 (A) (A) (A) (A) (A) (A) (A) (A) (A) (A) (A) (A)
                 (A) (A) (A) (A) (A) (A) (A) (A) (A) (A) (A) (A)
                 (A) (A) (A) (A) (A) (A) (A) (A) (A) (A) (A) (A)
                 (A) (A) (A) (A) (A) (A) (A) (A) (A) (A) (A) (A)
                 (A) (A) (A) (A) (A) (A) (A) (A) (A) (A) (A) (A)
                 (A) (A) (A) (A) (A) (A) (A) (A) (A) (A) (A) (A)
                 (A) (A) (A) (A) (A) (A) (A) (A) (A) (A) (A) (A)
                 (A) (A) (A) (A) (A) (A) (A) (A) (A) (A) (A) (A)
                 (A) (A) (A) (A) (A) (A) (A) (A) (A) (A) (A) (A)
                 (A) (A) (A) (A) (A) (A) (A) (A) (A) (A) (A) (A)
                 (A) (A) (A) (A) (A) (A) (A) (A) (A) (A) (A) (A)
                 (A) (A) (A) (A) (A) (A) (A) (A) (A) (A) (A) (A)
                 (A) (A) (A) (A) (A) (A) (A) (A) (A) (A)
    24 initial guesses have been made.
 Convergence on wavefunction:    0.001000000000000
 Iteration     1 Dimension    24 NMult     0 NNew     24
 CISAX will form    24 AO SS matrices at one time.
 New state      1 was old state      8
 New state      3 was old state      1
 New state      5 was old state      6
 New state      6 was old state      5
 New state      7 was old state     10
 New state      8 was old state     12
 New state     10 was old state     11
 New state     11 was old state     14
 New state     12 was old state     16
 Vector   5 SDiff=1.63D+00 TDiff=5.23D+00 assumed to be singlet.
 Vector  11 SDiff=2.31D+00 TDiff=1.66D+00 assumed to be triplet.
 Iteration     2 Dimension    36 NMult    24 NNew     12
 New state      3 was old state      4
 New state      4 was old state      3
 New state      5 was old state      6
 New state      6 was old state      9
 Iteration     3 Dimension    48 NMult    36 NNew     12
 Iteration     4 Dimension    60 NMult    48 NNew     12
 Iteration     5 Dimension    72 NMult    60 NNew     12
 Iteration     6 Dimension    76 NMult    72 NNew      4
 Iteration     7 Dimension    78 NMult    76 NNew      2
 Iteration     8 Dimension    80 NMult    78 NNew      2
 ***********************************************************************
 Excited states from <AA,BB:AA,BB> singles matrix:
 ***********************************************************************
 
 Ground to excited state transition densities written to RWF  633
 Ground to excited state transition electric dipole moments (Au):
       state          X           Y           Z        Dip. S.      Osc.
         1        -0.0000     -0.0000      0.0000      0.0000     -0.0000
         2        -0.0000     -0.0000     -0.0000      0.0000     -0.0000
         3        -0.0000     -0.0000     -0.0000      0.0000      0.0000
         4        -0.4229     -0.3206     -0.0463      0.2838      0.0051
         5         0.9608      0.3040      0.0157      1.0159      0.0448
         6        -0.0768     -0.5058     -0.0405      0.2634      0.0136
 Ground to excited state transition velocity dipole moments (Au):
       state          X           Y           Z        Dip. S.      Osc.
         1         0.0000      0.0000      0.0000      0.0000     -0.0000
         2         0.0000      0.0000      0.0000      0.0000     -0.0000
         3         0.0000      0.0000     -0.0000      0.0000      0.0000
         4         0.0122      0.0083     -0.0011      0.0002      0.0054
         5        -0.0604     -0.0145     -0.0019      0.0039      0.0389
         6         0.0085      0.0382      0.0027      0.0015      0.0132
 Ground to excited state transition magnetic dipole moments (Au):
       state          X           Y           Z
         1         0.0000      0.0000      0.0000
         2        -0.0000      0.0000     -0.0000
         3         0.0000      0.0000     -0.0000
         4         0.3899      0.2180     -0.0076
         5        -0.0082      0.1023     -0.4813
         6         0.1762     -0.2316     -0.0255
 Ground to excited state transition velocity quadrupole moments (Au):
       state          XX          YY          ZZ          XY          XZ          YZ
         1        -0.0000      0.0000      0.0000      0.0000     -0.0000      0.0000
         2         0.0000     -0.0000      0.0000      0.0000     -0.0000     -0.0000
         3        -0.0000      0.0000     -0.0000     -0.0000     -0.0000      0.0000
         4        -0.0695      0.0002      0.0063     -0.0272      0.0026     -0.0017
         5         0.0224      0.0239     -0.0151      0.0209      0.0001      0.0152
         6        -0.0378     -0.0764     -0.0133     -0.2506     -0.0525     -0.0209
 <0|del|b> * <b|rxdel|0> + <0|del|b> * <b|delr+rdel|0>
 Rotatory Strengths (R) in cgs (10**-40 erg-esu-cm/Gauss)
       state          XX          YY          ZZ    R(velocity)    E-M Angle
         1        -0.0000     -0.0000      0.0000     -0.0000       90.00
         2        -0.0000      0.0000     -0.0000     -0.0000       90.00
         3         0.0000      0.0000      0.0000      0.0000       90.00
         4        23.9793     61.7833     86.6715     57.4780        6.00
         5        -3.3413      2.7462     -0.3692     -0.3214       90.00
         6       -34.5471      8.7344    -41.8627    -22.5585      130.37
 1/2[<0|r|b>*<b|rxdel|0> + (<0|rxdel|b>*<b|r|0>)*]
 Rotatory Strengths (R) in cgs (10**-40 erg-esu-cm/Gauss)
       state          XX          YY          ZZ     R(length)
         1         0.0000      0.0000     -0.0000     -0.0000
         2        -0.0000      0.0000     -0.0000      0.0000
         3         0.0000      0.0000     -0.0000      0.0000
         4       116.5814     49.4375     -0.2482     55.2569
         5         5.5856    -21.9995      5.3479     -3.6886
         6         9.5717    -82.8276     -0.7305    -24.6621
  1/2[<0|del|b>*<b|r|0> + (<0|r|b>*<b|del|0>)*] (Au)
       state          X           Y           Z        Dip. S.   Osc.(frdel)
         1        -0.0000     -0.0000      0.0000      0.0000      0.0000
         2        -0.0000     -0.0000     -0.0000      0.0000      0.0000
         3        -0.0000     -0.0000      0.0000      0.0000      0.0000
         4        -0.0052     -0.0027      0.0001      0.0078      0.0052
         5        -0.0581     -0.0044     -0.0000      0.0625      0.0417
         6        -0.0006     -0.0193     -0.0001      0.0201      0.0134

 Excitation energies and oscillator strengths:
 
 Excited State   1:      Triplet-A      -1.4616 eV    -848.30 nm  f=-0.0000  <S**2>=2.000
      84 -> 87         0.28094
      85 -> 86         0.11103
      85 -> 87         0.62123
 This state for optimization and/or second-order correction.
 Total Energy, E(TD-HF/TD-DFT) =  -1065.42113884    
 Copying the excited state density for this state as the 1-particle RhoCI density.
 
 Excited State   2:      Triplet-A      -0.5211 eV    -2379.41 nm  f=-0.0000  <S**2>=2.000
      83 -> 86         0.14419
      84 -> 86        -0.34786
      85 -> 86         0.63763
      84 <- 86        -0.20327
 
 Excited State   3:      Triplet-A      0.6928 eV 1789.69 nm  f=0.0000  <S**2>=2.000
      83 -> 86        -0.13758
      84 -> 86         0.64388
      85 -> 86         0.29819
      84 <- 86         0.18115
 
 Excited State   4:      Singlet-A      0.7331 eV 1691.21 nm  f=0.0051  <S**2>=0.000
      84 -> 86         0.25296
      85 -> 86         0.65884
 
 Excited State   5:      Singlet-A      1.8000 eV  688.78 nm  f=0.0448  <S**2>=0.000
      83 -> 86         0.49492
      84 -> 86         0.46406
      85 -> 86        -0.13532
      85 -> 87        -0.14545
 
 Excited State   6:      Singlet-A      2.1074 eV  588.33 nm  f=0.0136  <S**2>=0.000
      82 -> 86         0.16568
      83 -> 86         0.22867
      83 -> 87         0.11111
      84 -> 87        -0.28558
      85 -> 87         0.56128
 SavETr:  write IOETrn=   770 NScale= 10 NData=  16 NLR=1 NState=    6 LETran=     118.

 **********************************************************************

            Population analysis using the SCF Density.

 **********************************************************************

 Orbital symmetries:
       Occupied  (A) (A) (A) (A) (A) (A) (A) (A) (A) (A) (A) (A)
                 (A) (A) (A) (A) (A) (A) (A) (A) (A) (A) (A) (A)
                 (A) (A) (A) (A) (A) (A) (A) (A) (A) (A) (A) (A)
                 (A) (A) (A) (A) (A) (A) (A) (A) (A) (A) (A) (A)
                 (A) (A) (A) (A) (A) (A) (A) (A) (A) (A) (A) (A)
                 (A) (A) (A) (A) (A) (A) (A) (A) (A) (A) (A) (A)
                 (A) (A) (A) (A) (A) (A) (A) (A) (A) (A) (A) (A)
                 (A)
       Virtual   (A) (A) (A) (A) (A) (A) (A) (A) (A) (A) (A) (A)
                 (A) (A) (A) (A) (A) (A) (A) (A) (A) (A) (A) (A)
                 (A) (A) (A) (A) (A) (A) (A) (A) (A) (A) (A) (A)
                 (A) (A) (A) (A) (A) (A) (A) (A) (A) (A) (A) (A)
                 (A) (A) (A) (A) (A) (A) (A) (A) (A) (A) (A) (A)
                 (A) (A) (A) (A) (A) (A) (A) (A) (A) (A) (A) (A)
                 (A) (A) (A) (A) (A) (A) (A) (A) (A) (A) (A) (A)
                 (A) (A) (A) (A) (A) (A) (A) (A) (A) (A) (A) (A)
                 (A) (A) (A) (A) (A) (A) (A) (A) (A) (A) (A) (A)
                 (A) (A) (A) (A) (A) (A) (A) (A) (A) (A) (A) (A)
                 (A) (A) (A) (A) (A) (A) (A) (A) (A) (A) (A) (A)
                 (A) (A) (A) (A) (A) (A) (A) (A) (A) (A) (A) (A)
                 (A) (A) (A) (A) (A) (A) (A) (A) (A) (A) (A) (A)
                 (A) (A) (A) (A) (A) (A) (A) (A) (A) (A) (A) (A)
                 (A) (A) (A) (A) (A) (A) (A) (A) (A) (A) (A) (A)
                 (A) (A) (A) (A) (A) (A) (A) (A) (A) (A) (A) (A)
                 (A) (A) (A) (A) (A) (A) (A) (A) (A) (A) (A) (A)
                 (A) (A) (A) (A) (A) (A) (A) (A) (A) (A) (A) (A)
                 (A) (A) (A) (A) (A) (A) (A) (A) (A) (A) (A) (A)
                 (A) (A) (A) (A) (A) (A) (A) (A) (A) (A) (A) (A)
                 (A) (A) (A) (A) (A) (A) (A) (A) (A) (A) (A) (A)
                 (A) (A) (A) (A) (A) (A) (A) (A) (A) (A) (A) (A)
                 (A) (A) (A) (A) (A) (A) (A) (A) (A) (A) (A) (A)
                 (A) (A) (A) (A) (A) (A) (A) (A) (A) (A) (A) (A)
                 (A) (A) (A) (A) (A) (A) (A) (A) (A) (A) (A) (A)
                 (A) (A) (A) (A) (A) (A) (A) (A) (A) (A) (A) (A)
                 (A) (A) (A) (A) (A) (A) (A) (A) (A) (A) (A) (A)
                 (A) (A) (A) (A) (A) (A) (A) (A) (A) (A) (A) (A)
                 (A) (A) (A) (A) (A) (A) (A) (A) (A) (A) (A) (A)
                 (A) (A) (A) (A) (A) (A) (A) (A) (A) (A) (A) (A)
                 (A) (A) (A) (A) (A) (A) (A) (A) (A) (A) (A) (A)
                 (A) (A) (A) (A) (A) (A) (A) (A) (A) (A) (A) (A)
                 (A) (A) (A) (A) (A) (A) (A) (A) (A) (A) (A) (A)
                 (A) (A) (A) (A) (A) (A) (A) (A) (A) (A) (A) (A)
                 (A) (A) (A) (A) (A) (A) (A) (A) (A) (A) (A) (A)
                 (A) (A) (A) (A) (A) (A) (A) (A) (A) (A) (A) (A)
                 (A) (A) (A) (A) (A) (A) (A) (A) (A) (A) (A) (A)
                 (A) (A) (A) (A) (A) (A) (A) (A) (A) (A)
 The electronic state is 1-A.
 Alpha  occ. eigenvalues --  -19.21474 -19.19715 -14.36188 -14.35084 -14.34321
 Alpha  occ. eigenvalues --  -14.33804 -10.27078 -10.25862 -10.25327 -10.24962
 Alpha  occ. eigenvalues --  -10.24911 -10.24487 -10.24344 -10.24300 -10.23679
 Alpha  occ. eigenvalues --  -10.23496 -10.23468 -10.23013 -10.22831 -10.22302
 Alpha  occ. eigenvalues --  -10.20758 -10.20597 -10.19914 -10.16038  -1.11634
 Alpha  occ. eigenvalues --   -1.10333  -1.08826  -1.00146  -0.94525  -0.94110
 Alpha  occ. eigenvalues --   -0.92119  -0.89288  -0.87019  -0.82931  -0.81288
 Alpha  occ. eigenvalues --   -0.79022  -0.77511  -0.74458  -0.73545  -0.70818
 Alpha  occ. eigenvalues --   -0.69517  -0.66107  -0.63205  -0.61590  -0.60527
 Alpha  occ. eigenvalues --   -0.58137  -0.55224  -0.54999  -0.54632  -0.53960
 Alpha  occ. eigenvalues --   -0.52233  -0.51066  -0.49974  -0.49761  -0.48405
 Alpha  occ. eigenvalues --   -0.47842  -0.47589  -0.46776  -0.45735  -0.45070
 Alpha  occ. eigenvalues --   -0.44247  -0.43466  -0.43356  -0.41723  -0.41258
 Alpha  occ. eigenvalues --   -0.40160  -0.39197  -0.38641  -0.38445  -0.38093
 Alpha  occ. eigenvalues --   -0.37329  -0.37316  -0.36594  -0.36437  -0.34945
 Alpha  occ. eigenvalues --   -0.34205  -0.33490  -0.31535  -0.31149  -0.29791
 Alpha  occ. eigenvalues --   -0.28261  -0.25165  -0.24112  -0.22164  -0.19845
 Alpha virt. eigenvalues --   -0.14226  -0.09838  -0.03356  -0.02068  -0.01645
 Alpha virt. eigenvalues --   -0.00643  -0.00108   0.00257   0.01007   0.01338
 Alpha virt. eigenvalues --    0.01927   0.02314   0.02574   0.02779   0.02983
 Alpha virt. eigenvalues --    0.03445   0.04234   0.04563   0.04723   0.04982
 Alpha virt. eigenvalues --    0.05096   0.05588   0.05805   0.06583   0.07124
 Alpha virt. eigenvalues --    0.07725   0.08090   0.08393   0.08775   0.08916
 Alpha virt. eigenvalues --    0.09074   0.09450   0.10093   0.10327   0.10439
 Alpha virt. eigenvalues --    0.10843   0.11152   0.11705   0.11900   0.12102
 Alpha virt. eigenvalues --    0.12537   0.12866   0.13103   0.13883   0.14016
 Alpha virt. eigenvalues --    0.14546   0.14875   0.15146   0.15473   0.15619
 Alpha virt. eigenvalues --    0.15944   0.16074   0.16407   0.16766   0.17292
 Alpha virt. eigenvalues --    0.17509   0.17699   0.18203   0.18932   0.19173
 Alpha virt. eigenvalues --    0.19230   0.19633   0.19822   0.20111   0.20598
 Alpha virt. eigenvalues --    0.20835   0.20987   0.21527   0.21754   0.22125
 Alpha virt. eigenvalues --    0.22600   0.22650   0.22850   0.23226   0.23475
 Alpha virt. eigenvalues --    0.23761   0.24148   0.24277   0.24811   0.25316
 Alpha virt. eigenvalues --    0.25625   0.25637   0.26067   0.26340   0.26539
 Alpha virt. eigenvalues --    0.26870   0.26874   0.27139   0.27607   0.27999
 Alpha virt. eigenvalues --    0.28268   0.28517   0.28739   0.29072   0.29235
 Alpha virt. eigenvalues --    0.29484   0.29702   0.29886   0.30061   0.30567
 Alpha virt. eigenvalues --    0.30964   0.31162   0.31438   0.31741   0.32252
 Alpha virt. eigenvalues --    0.33064   0.33133   0.33593   0.33883   0.34394
 Alpha virt. eigenvalues --    0.34641   0.35108   0.35838   0.35923   0.36345
 Alpha virt. eigenvalues --    0.36524   0.37371   0.38274   0.38629   0.38820
 Alpha virt. eigenvalues --    0.39659   0.39907   0.40266   0.40645   0.42147
 Alpha virt. eigenvalues --    0.42879   0.43740   0.44144   0.45298   0.46759
 Alpha virt. eigenvalues --    0.48246   0.49080   0.51557   0.52227   0.53102
 Alpha virt. eigenvalues --    0.55209   0.59076   0.59586   0.62479   0.63971
 Alpha virt. eigenvalues --    0.65757   0.66505   0.66989   0.67133   0.67736
 Alpha virt. eigenvalues --    0.68359   0.68809   0.69349   0.70343   0.70701
 Alpha virt. eigenvalues --    0.70940   0.72029   0.73047   0.73257   0.73341
 Alpha virt. eigenvalues --    0.74358   0.75642   0.75843   0.76191   0.76707
 Alpha virt. eigenvalues --    0.77375   0.78033   0.78628   0.79185   0.79841
 Alpha virt. eigenvalues --    0.80150   0.80822   0.82242   0.82773   0.83254
 Alpha virt. eigenvalues --    0.83699   0.84488   0.84790   0.86682   0.87404
 Alpha virt. eigenvalues --    0.88468   0.88772   0.89357   0.89999   0.90242
 Alpha virt. eigenvalues --    0.90884   0.91428   0.91637   0.92857   0.93545
 Alpha virt. eigenvalues --    0.93846   0.94366   0.95873   0.96702   0.97045
 Alpha virt. eigenvalues --    0.97661   0.98071   0.99164   1.00147   1.00775
 Alpha virt. eigenvalues --    1.01141   1.01706   1.02623   1.03388   1.03734
 Alpha virt. eigenvalues --    1.04872   1.05800   1.06085   1.06845   1.08051
 Alpha virt. eigenvalues --    1.08554   1.09208   1.10207   1.10601   1.11728
 Alpha virt. eigenvalues --    1.12187   1.12439   1.13718   1.14095   1.14588
 Alpha virt. eigenvalues --    1.16238   1.17452   1.17829   1.18527   1.19805
 Alpha virt. eigenvalues --    1.20278   1.20566   1.21654   1.22245   1.22683
 Alpha virt. eigenvalues --    1.22846   1.23963   1.25296   1.26881   1.27334
 Alpha virt. eigenvalues --    1.28415   1.28739   1.29452   1.30497   1.30626
 Alpha virt. eigenvalues --    1.31582   1.32082   1.33426   1.35548   1.36096
 Alpha virt. eigenvalues --    1.37956   1.39208   1.40129   1.41835   1.42935
 Alpha virt. eigenvalues --    1.45183   1.45427   1.47154   1.47415   1.48237
 Alpha virt. eigenvalues --    1.49008   1.50618   1.51976   1.53414   1.55131
 Alpha virt. eigenvalues --    1.55895   1.56728   1.59226   1.61252   1.64140
 Alpha virt. eigenvalues --    1.64950   1.66476   1.66715   1.67912   1.68469
 Alpha virt. eigenvalues --    1.69005   1.71745   1.72752   1.74435   1.75627
 Alpha virt. eigenvalues --    1.76807   1.77525   1.77787   1.80046   1.81597
 Alpha virt. eigenvalues --    1.81829   1.83065   1.84466   1.85393   1.85596
 Alpha virt. eigenvalues --    1.86485   1.87014   1.87831   1.88991   1.89489
 Alpha virt. eigenvalues --    1.90508   1.91375   1.91789   1.91998   1.92501
 Alpha virt. eigenvalues --    1.94381   1.95130   1.95829   1.96228   1.97091
 Alpha virt. eigenvalues --    1.97373   1.99204   1.99684   2.00123   2.01436
 Alpha virt. eigenvalues --    2.01995   2.02642   2.03209   2.03748   2.04062
 Alpha virt. eigenvalues --    2.04848   2.05559   2.06825   2.08086   2.09208
 Alpha virt. eigenvalues --    2.09767   2.10208   2.12270   2.12503   2.13037
 Alpha virt. eigenvalues --    2.13382   2.15147   2.16256   2.16483   2.18369
 Alpha virt. eigenvalues --    2.19893   2.21672   2.22500   2.23155   2.24562
 Alpha virt. eigenvalues --    2.24920   2.25730   2.26702   2.28753   2.30260
 Alpha virt. eigenvalues --    2.31567   2.31997   2.33152   2.34502   2.34938
 Alpha virt. eigenvalues --    2.36961   2.37552   2.38067   2.38782   2.41078
 Alpha virt. eigenvalues --    2.41768   2.43299   2.44249   2.45469   2.46805
 Alpha virt. eigenvalues --    2.47527   2.49423   2.49824   2.50612   2.51657
 Alpha virt. eigenvalues --    2.53086   2.54453   2.55614   2.56238   2.57771
 Alpha virt. eigenvalues --    2.59281   2.59485   2.60220   2.62005   2.62914
 Alpha virt. eigenvalues --    2.63628   2.65939   2.66627   2.68026   2.68491
 Alpha virt. eigenvalues --    2.70292   2.71748   2.71941   2.72660   2.74825
 Alpha virt. eigenvalues --    2.76284   2.78048   2.78999   2.79760   2.81064
 Alpha virt. eigenvalues --    2.82127   2.82843   2.83476   2.84356   2.84804
 Alpha virt. eigenvalues --    2.85509   2.87757   2.89086   2.89316   2.90746
 Alpha virt. eigenvalues --    2.93338   2.93726   2.94650   2.95713   2.96887
 Alpha virt. eigenvalues --    2.98546   3.01458   3.02388   3.03064   3.05180
 Alpha virt. eigenvalues --    3.07282   3.09772   3.10310   3.12805   3.15731
 Alpha virt. eigenvalues --    3.16899   3.19776   3.21146   3.22961   3.23859
 Alpha virt. eigenvalues --    3.25263   3.26070   3.28466   3.29561   3.32320
 Alpha virt. eigenvalues --    3.33300   3.36709   3.37822   3.38871   3.39504
 Alpha virt. eigenvalues --    3.42088   3.43156   3.44559   3.46212   3.46570
 Alpha virt. eigenvalues --    3.47522   3.51154   3.52927   3.54326   3.57722
 Alpha virt. eigenvalues --    3.61493   3.66305   3.72921   3.88096   3.97361
 Alpha virt. eigenvalues --    4.35506   4.35999   4.36326   4.38574   4.39760
 Alpha virt. eigenvalues --    4.40587   4.45314   4.45758   4.47843   4.49380
 Alpha virt. eigenvalues --    4.53956   4.54538   4.64503   4.65296   4.68154
 Alpha virt. eigenvalues --    4.72735   4.77277   4.80526   4.84591   4.88100
 Alpha virt. eigenvalues --    4.93756   5.00111   5.16868   5.28775
          Condensed to atoms (all electrons):
               1          2          3          4          5          6
     1  C    6.227613  -0.026499  -0.382889   0.011056  -0.015107   0.060368
     2  O   -0.026499   8.812273   0.271010  -0.262631   0.033463  -0.059035
     3  C   -0.382889   0.271010  18.537149   3.199502   0.346147   0.009112
     4  C    0.011056  -0.262631   3.199502  19.436407   2.102473   1.028725
     5  C   -0.015107   0.033463   0.346147   2.102473   7.777396   1.927362
     6  C    0.060368  -0.059035   0.009112   1.028725   1.927362  17.712463
     7  C    0.055193  -0.018274   0.453000  -5.639511  -3.146289  -9.723024
     8  N   -0.000306   0.000043  -0.015701   0.209364   0.127542   1.052229
     9  C    0.009713   0.028152  -1.070262   1.582976  -0.594441  -4.952506
    10  C   -0.074030   0.031616   1.082962  -2.759731  -1.076314   2.213001
    11  C   -0.019007   0.017705   0.156543  -0.150080  -0.770547  -1.504297
    12  C    0.002770  -0.000359  -0.058320  -0.097153  -0.015833   0.034721
    13  C    0.005667  -0.017029  -0.092520   0.434561   0.041947  -0.086714
    14  N    0.009234   0.021804  -0.009925  -0.093677   0.046394   0.083122
    15  C   -0.074017  -0.020572   2.492065   2.065994   1.226058   0.174742
    16  O   -0.000210   0.000887   0.036824   0.022120   0.016546  -0.277763
    17  C   -0.006553  -0.000077   0.201545   0.045821   0.044210  -0.046395
    18  C   -0.426884   0.020677   3.126810   0.545604  -0.405460  -0.351751
    19  C    0.013939  -0.113983  -6.520255  -7.844870  -1.373133  -1.521237
    20  C   -0.556739  -0.096570  -5.537485  -4.888787  -0.959965  -0.125716
    21  C    0.618518   0.068117  -4.339300  -0.142860   0.175504   0.041707
    22  N   -0.164354   0.005225  -0.011258   0.002224   0.002847  -0.002692
    23  C   -0.509808  -0.084173  -5.410272  -1.653666   0.054602   0.089437
    24  N    0.015828   0.000099   0.118104   0.020890  -0.002396   0.000332
    25  H    0.312576  -0.053169   0.019026   0.000253   0.000085  -0.000145
    26  H    0.477949  -0.049307   0.093121  -0.006291  -0.001610  -0.002335
    27  H    0.594896  -0.054071  -0.189613  -0.020052  -0.001579   0.000213
    28  H   -0.010911  -0.040846   0.106658   0.143497  -0.048904   0.357835
    29  H   -0.000092   0.000025  -0.014726   0.092433  -0.006473  -0.149876
    30  H   -0.000091  -0.000011  -0.010205   0.008593   0.034309  -0.072194
    31  H    0.008610   0.001588  -0.060984  -0.168371   0.118954   0.233884
    32  H    0.000078  -0.000310   0.011504  -0.000894  -0.010190  -0.012918
    33  H    0.000042  -0.000008  -0.012113   0.022114   0.005811   0.001069
    34  H   -0.000072  -0.000109   0.010216  -0.016405  -0.000950   0.004273
    35  H   -0.000372  -0.000232   0.009985  -0.004849   0.002343   0.004561
    36  H   -0.002910  -0.010998   0.046835  -0.075472  -0.015800   0.023070
    37  H   -0.001583   0.000562   0.016888  -0.025895  -0.000581  -0.005291
    38  H    0.000625  -0.000741   0.017746  -0.124574  -0.015561   0.100579
    39  H   -0.000058  -0.000000  -0.001750   0.006969  -0.004566   0.024892
    40  H    0.000069   0.000015  -0.002086  -0.005696   0.005700  -0.024022
    41  H    0.000394   0.000010   0.015968  -0.013587   0.006806  -0.021549
    42  H    0.002597  -0.000939  -0.081982  -0.051478  -0.024667   0.002646
               7          8          9         10         11         12
     1  C    0.055193  -0.000306   0.009713  -0.074030  -0.019007   0.002770
     2  O   -0.018274   0.000043   0.028152   0.031616   0.017705  -0.000359
     3  C    0.453000  -0.015701  -1.070262   1.082962   0.156543  -0.058320
     4  C   -5.639511   0.209364   1.582976  -2.759731  -0.150080  -0.097153
     5  C   -3.146289   0.127542  -0.594441  -1.076314  -0.770547  -0.015833
     6  C   -9.723024   1.052229  -4.952506   2.213001  -1.504297   0.034721
     7  C   29.950161  -1.272859  -0.663937  -0.789130  -1.183619  -0.001935
     8  N   -1.272859   7.586869  -0.105308  -0.003190   0.009010  -0.000320
     9  C   -0.663937  -0.105308  17.504395  -6.214208   1.637548  -0.293142
    10  C   -0.789130  -0.003190  -6.214208  20.989016  -3.794054   1.006548
    11  C   -1.183619   0.009010   1.637548  -3.794054  12.030266  -0.339823
    12  C   -0.001935  -0.000320  -0.293142   1.006548  -0.339823   5.876074
    13  C   -0.023857   0.000166   0.222518  -0.926133   0.214492  -0.067576
    14  N    0.158114  -0.001693   0.253089  -0.366390  -0.203604  -0.316779
    15  C    0.355943  -0.044937  -2.080742  -0.422747  -0.333403   0.002556
    16  O   -0.228745   0.028468  -0.116949  -0.000788  -0.001269   0.000116
    17  C    0.138685  -0.000240  -0.023061   0.013596   0.001220  -0.000191
    18  C    0.214017  -0.003945   0.251185  -0.619297  -0.115661  -0.004087
    19  C   -2.694125   0.068781   0.457152  -1.994253   0.150636  -0.014025
    20  C   -0.421725   0.005262  -0.133909  -0.006477   0.102276  -0.014272
    21  C   -0.015422  -0.000196   0.009764   0.169945   0.025646  -0.000331
    22  N   -0.001730   0.000006   0.000800   0.001337   0.000471   0.000019
    23  C   -0.049286   0.001352  -0.019278  -0.135601   0.007574  -0.000478
    24  N   -0.000621   0.000006   0.000492   0.001577   0.000126  -0.000027
    25  H   -0.000062   0.000000   0.000041   0.001040   0.000663  -0.000476
    26  H   -0.000154  -0.000000   0.000320  -0.007054  -0.000333  -0.000395
    27  H    0.000213   0.000000  -0.000305   0.004985  -0.000373   0.000474
    28  H    0.158288  -0.000418  -0.385938  -0.284771  -0.324248   0.019614
    29  H   -0.139556   0.000609   0.627980  -0.129121   0.032679   0.002759
    30  H    0.056468   0.000313   0.477113  -0.050885  -0.146526  -0.003380
    31  H    0.172854  -0.000247   0.095820   0.230696  -0.361085  -0.043952
    32  H   -0.001981  -0.000013   0.006504  -0.186970   0.530997  -0.047748
    33  H    0.021622   0.000019   0.040566  -0.002939   0.277804  -0.070197
    34  H   -0.000903  -0.000001  -0.046675   0.106515  -0.135852   0.478685
    35  H    0.000154   0.000000   0.019997   0.005163  -0.067971   0.397275
    36  H    0.002712  -0.000004  -0.036910   0.026994   0.014272  -0.102715
    37  H   -0.001676  -0.000000  -0.005102   0.010357   0.045341  -0.059968
    38  H    0.049032  -0.000082  -0.108214   0.078963  -0.029684  -0.024596
    39  H   -0.013495   0.003835   0.002752   0.000080   0.000016  -0.000000
    40  H    0.009725  -0.000953  -0.004081   0.000475  -0.000017  -0.000001
    41  H    0.010059  -0.000876  -0.002158  -0.001182  -0.000026   0.000001
    42  H    0.000520  -0.000032   0.001801  -0.003750  -0.000105   0.000005
              13         14         15         16         17         18
     1  C    0.005667   0.009234  -0.074017  -0.000210  -0.006553  -0.426884
     2  O   -0.017029   0.021804  -0.020572   0.000887  -0.000077   0.020677
     3  C   -0.092520  -0.009925   2.492065   0.036824   0.201545   3.126810
     4  C    0.434561  -0.093677   2.065994   0.022120   0.045821   0.545604
     5  C    0.041947   0.046394   1.226058   0.016546   0.044210  -0.405460
     6  C   -0.086714   0.083122   0.174742  -0.277763  -0.046395  -0.351751
     7  C   -0.023857   0.158114   0.355943  -0.228745   0.138685   0.214017
     8  N    0.000166  -0.001693  -0.044937   0.028468  -0.000240  -0.003945
     9  C    0.222518   0.253089  -2.080742  -0.116949  -0.023061   0.251185
    10  C   -0.926133  -0.366390  -0.422747  -0.000788   0.013596  -0.619297
    11  C    0.214492  -0.203604  -0.333403  -0.001269   0.001220  -0.115661
    12  C   -0.067576  -0.316779   0.002556   0.000116  -0.000191  -0.004087
    13  C    5.761869   0.085512   0.013182  -0.000103   0.001185   0.025572
    14  N    0.085512   7.684120   0.003790   0.000456  -0.000067  -0.002516
    15  C    0.013182   0.003790  10.183217   0.397161   0.176577  -0.328585
    16  O   -0.000103   0.000456   0.397161   8.654188  -0.008364  -0.068187
    17  C    0.001185  -0.000067   0.176577  -0.008364   5.148397  -0.179909
    18  C    0.025572  -0.002516  -0.328585  -0.068187  -0.179909   9.815794
    19  C   -0.147355  -0.097739  -4.321878   0.084447  -0.304012   0.127638
    20  C   -0.045623  -0.061591  -3.189136  -0.016367  -0.197702  -2.411514
    21  C   -0.010176   0.007761   0.305976  -0.004682  -0.057504  -2.465003
    22  N   -0.000012   0.000067   0.007642  -0.000131  -0.000155   0.072802
    23  C    0.002287  -0.016968  -0.164111  -0.028038  -0.053860  -0.624058
    24  N   -0.000002  -0.000021  -0.021184  -0.000031  -0.002166  -0.037031
    25  H    0.000240   0.000231   0.001608  -0.000000   0.000003   0.008761
    26  H    0.001090  -0.001058  -0.003679   0.000009   0.000351   0.002304
    27  H   -0.001171   0.000522  -0.014489   0.000017  -0.000561  -0.075001
    28  H   -0.063806  -0.045893   0.057315  -0.000944   0.000035   0.014961
    29  H    0.002477   0.004600  -0.013380  -0.000184  -0.000025   0.000838
    30  H    0.002730   0.000772   0.004967   0.000025  -0.000164   0.003501
    31  H    0.056945   0.016403  -0.001692   0.000426  -0.000852   0.013365
    32  H    0.015065   0.024247   0.000419  -0.000004   0.000009  -0.000492
    33  H    0.027606   0.006947   0.000988   0.000004  -0.000001   0.000388
    34  H   -0.069317  -0.000580   0.000007  -0.000000  -0.000000  -0.000075
    35  H   -0.065895   0.024893   0.000080   0.000000  -0.000001  -0.000145
    36  H    0.472469  -0.057398  -0.000304  -0.000003  -0.000005  -0.002031
    37  H    0.391142  -0.028741  -0.000369   0.000000  -0.000003  -0.000199
    38  H    0.003549   0.369950  -0.000413  -0.000015   0.000020   0.000273
    39  H   -0.000000  -0.000003   0.055334  -0.068876   0.409563  -0.045564
    40  H   -0.000011   0.000001  -0.047711  -0.043838   0.423379   0.022670
    41  H    0.000029   0.000010  -0.035212  -0.042769   0.425230   0.028253
    42  H   -0.000110   0.000029  -0.134665  -0.023449  -0.009199   0.329539
              19         20         21         22         23         24
     1  C    0.013939  -0.556739   0.618518  -0.164354  -0.509808   0.015828
     2  O   -0.113983  -0.096570   0.068117   0.005225  -0.084173   0.000099
     3  C   -6.520255  -5.537485  -4.339300  -0.011258  -5.410272   0.118104
     4  C   -7.844870  -4.888787  -0.142860   0.002224  -1.653666   0.020890
     5  C   -1.373133  -0.959965   0.175504   0.002847   0.054602  -0.002396
     6  C   -1.521237  -0.125716   0.041707  -0.002692   0.089437   0.000332
     7  C   -2.694125  -0.421725  -0.015422  -0.001730  -0.049286  -0.000621
     8  N    0.068781   0.005262  -0.000196   0.000006   0.001352   0.000006
     9  C    0.457152  -0.133909   0.009764   0.000800  -0.019278   0.000492
    10  C   -1.994253  -0.006477   0.169945   0.001337  -0.135601   0.001577
    11  C    0.150636   0.102276   0.025646   0.000471   0.007574   0.000126
    12  C   -0.014025  -0.014272  -0.000331   0.000019  -0.000478  -0.000027
    13  C   -0.147355  -0.045623  -0.010176  -0.000012   0.002287  -0.000002
    14  N   -0.097739  -0.061591   0.007761   0.000067  -0.016968  -0.000021
    15  C   -4.321878  -3.189136   0.305976   0.007642  -0.164111  -0.021184
    16  O    0.084447  -0.016367  -0.004682  -0.000131  -0.028038  -0.000031
    17  C   -0.304012  -0.197702  -0.057504  -0.000155  -0.053860  -0.002166
    18  C    0.127638  -2.411514  -2.465003   0.072802  -0.624058  -0.037031
    19  C   24.162116   8.728801  -1.443217  -0.130408  -1.286549   0.129118
    20  C    8.728801  29.299118 -10.364568   0.157329  -3.858006   0.294931
    21  C   -1.443217 -10.364568  23.805759  -0.570919  -0.365748  -0.188097
    22  N   -0.130408   0.157329  -0.570919   7.730887   0.391875  -0.008475
    23  C   -1.286549  -3.858006  -0.365748   0.391875  20.046824  -0.526321
    24  N    0.129118   0.294931  -0.188097  -0.008475  -0.526321   7.823435
    25  H    0.008049   0.045719  -0.025148  -0.007969   0.031561  -0.000191
    26  H    0.033055  -0.009142  -0.105123  -0.005930  -0.104300  -0.000611
    27  H    0.014392  -0.249491   0.368661  -0.042151  -0.051142   0.003283
    28  H    0.146819   0.089701  -0.006021  -0.000109   0.017620  -0.000022
    29  H    0.003113  -0.000560   0.000014   0.000000  -0.000044   0.000000
    30  H   -0.003605  -0.001531  -0.000066  -0.000000  -0.000084  -0.000000
    31  H   -0.150478  -0.023307   0.001515  -0.000044  -0.004730   0.000006
    32  H    0.001992   0.000938   0.000052   0.000000   0.000031   0.000000
    33  H   -0.001731  -0.000373  -0.000004   0.000000  -0.000015   0.000000
    34  H    0.000709   0.000361   0.000007  -0.000000   0.000009   0.000000
    35  H    0.002089   0.000783  -0.000000  -0.000000   0.000028  -0.000000
    36  H   -0.003857   0.023206   0.000605  -0.000071   0.001514   0.000001
    37  H    0.004915   0.001331  -0.000038  -0.000001   0.000058  -0.000000
    38  H   -0.034054  -0.001756  -0.000029  -0.000001  -0.000229   0.000000
    39  H   -0.006685  -0.003758   0.000033   0.000001   0.002254   0.000142
    40  H    0.004515   0.010527   0.002296  -0.000008  -0.004220   0.000011
    41  H   -0.004135  -0.004763  -0.002837   0.000001  -0.008285  -0.000640
    42  H    0.043660   0.080992   0.009529   0.000540   0.147718   0.004080
              25         26         27         28         29         30
     1  C    0.312576   0.477949   0.594896  -0.010911  -0.000092  -0.000091
     2  O   -0.053169  -0.049307  -0.054071  -0.040846   0.000025  -0.000011
     3  C    0.019026   0.093121  -0.189613   0.106658  -0.014726  -0.010205
     4  C    0.000253  -0.006291  -0.020052   0.143497   0.092433   0.008593
     5  C    0.000085  -0.001610  -0.001579  -0.048904  -0.006473   0.034309
     6  C   -0.000145  -0.002335   0.000213   0.357835  -0.149876  -0.072194
     7  C   -0.000062  -0.000154   0.000213   0.158288  -0.139556   0.056468
     8  N    0.000000  -0.000000   0.000000  -0.000418   0.000609   0.000313
     9  C    0.000041   0.000320  -0.000305  -0.385938   0.627980   0.477113
    10  C    0.001040  -0.007054   0.004985  -0.284771  -0.129121  -0.050885
    11  C    0.000663  -0.000333  -0.000373  -0.324248   0.032679  -0.146526
    12  C   -0.000476  -0.000395   0.000474   0.019614   0.002759  -0.003380
    13  C    0.000240   0.001090  -0.001171  -0.063806   0.002477   0.002730
    14  N    0.000231  -0.001058   0.000522  -0.045893   0.004600   0.000772
    15  C    0.001608  -0.003679  -0.014489   0.057315  -0.013380   0.004967
    16  O   -0.000000   0.000009   0.000017  -0.000944  -0.000184   0.000025
    17  C    0.000003   0.000351  -0.000561   0.000035  -0.000025  -0.000164
    18  C    0.008761   0.002304  -0.075001   0.014961   0.000838   0.003501
    19  C    0.008049   0.033055   0.014392   0.146819   0.003113  -0.003605
    20  C    0.045719  -0.009142  -0.249491   0.089701  -0.000560  -0.001531
    21  C   -0.025148  -0.105123   0.368661  -0.006021   0.000014  -0.000066
    22  N   -0.007969  -0.005930  -0.042151  -0.000109   0.000000  -0.000000
    23  C    0.031561  -0.104300  -0.051142   0.017620  -0.000044  -0.000084
    24  N   -0.000191  -0.000611   0.003283  -0.000022   0.000000  -0.000000
    25  H    0.578390  -0.031439  -0.029704  -0.000040   0.000000  -0.000000
    26  H   -0.031439   0.613704  -0.051411   0.000054  -0.000000   0.000000
    27  H   -0.029704  -0.051411   0.643009  -0.000016   0.000000  -0.000000
    28  H   -0.000040   0.000054  -0.000016   1.014847   0.000489  -0.000242
    29  H    0.000000  -0.000000   0.000000   0.000489   0.529346  -0.024069
    30  H   -0.000000   0.000000  -0.000000  -0.000242  -0.024069   0.543641
    31  H    0.000002  -0.000002   0.000009  -0.020079  -0.002812   0.005173
    32  H   -0.000000  -0.000000  -0.000000   0.001153   0.000904  -0.000028
    33  H   -0.000000   0.000000  -0.000000  -0.000040  -0.001243   0.002638
    34  H    0.000000  -0.000000  -0.000000   0.000396   0.000006   0.000007
    35  H   -0.000000   0.000000  -0.000000   0.001057  -0.000010  -0.000004
    36  H   -0.000065   0.000006  -0.000009   0.016352   0.000004  -0.000019
    37  H    0.000000   0.000001   0.000000  -0.000802   0.000003   0.000010
    38  H   -0.000000   0.000000  -0.000000   0.003903   0.000087   0.003508
    39  H    0.000000  -0.000000  -0.000000  -0.000000  -0.000000   0.000000
    40  H    0.000000   0.000000  -0.000000   0.000000  -0.000000   0.000000
    41  H   -0.000000  -0.000000   0.000000   0.000000   0.000000  -0.000000
    42  H   -0.000000   0.000012  -0.000001   0.000032   0.000000  -0.000000
              31         32         33         34         35         36
     1  C    0.008610   0.000078   0.000042  -0.000072  -0.000372  -0.002910
     2  O    0.001588  -0.000310  -0.000008  -0.000109  -0.000232  -0.010998
     3  C   -0.060984   0.011504  -0.012113   0.010216   0.009985   0.046835
     4  C   -0.168371  -0.000894   0.022114  -0.016405  -0.004849  -0.075472
     5  C    0.118954  -0.010190   0.005811  -0.000950   0.002343  -0.015800
     6  C    0.233884  -0.012918   0.001069   0.004273   0.004561   0.023070
     7  C    0.172854  -0.001981   0.021622  -0.000903   0.000154   0.002712
     8  N   -0.000247  -0.000013   0.000019  -0.000001   0.000000  -0.000004
     9  C    0.095820   0.006504   0.040566  -0.046675   0.019997  -0.036910
    10  C    0.230696  -0.186970  -0.002939   0.106515   0.005163   0.026994
    11  C   -0.361085   0.530997   0.277804  -0.135852  -0.067971   0.014272
    12  C   -0.043952  -0.047748  -0.070197   0.478685   0.397275  -0.102715
    13  C    0.056945   0.015065   0.027606  -0.069317  -0.065895   0.472469
    14  N    0.016403   0.024247   0.006947  -0.000580   0.024893  -0.057398
    15  C   -0.001692   0.000419   0.000988   0.000007   0.000080  -0.000304
    16  O    0.000426  -0.000004   0.000004  -0.000000   0.000000  -0.000003
    17  C   -0.000852   0.000009  -0.000001  -0.000000  -0.000001  -0.000005
    18  C    0.013365  -0.000492   0.000388  -0.000075  -0.000145  -0.002031
    19  C   -0.150478   0.001992  -0.001731   0.000709   0.002089  -0.003857
    20  C   -0.023307   0.000938  -0.000373   0.000361   0.000783   0.023206
    21  C    0.001515   0.000052  -0.000004   0.000007  -0.000000   0.000605
    22  N   -0.000044   0.000000   0.000000  -0.000000  -0.000000  -0.000071
    23  C   -0.004730   0.000031  -0.000015   0.000009   0.000028   0.001514
    24  N    0.000006   0.000000   0.000000   0.000000  -0.000000   0.000001
    25  H    0.000002  -0.000000  -0.000000   0.000000  -0.000000  -0.000065
    26  H   -0.000002  -0.000000   0.000000  -0.000000   0.000000   0.000006
    27  H    0.000009  -0.000000  -0.000000  -0.000000  -0.000000  -0.000009
    28  H   -0.020079   0.001153  -0.000040   0.000396   0.001057   0.016352
    29  H   -0.002812   0.000904  -0.001243   0.000006  -0.000010   0.000004
    30  H    0.005173  -0.000028   0.002638   0.000007  -0.000004  -0.000019
    31  H    0.689725  -0.007589   0.004365  -0.000152   0.000457   0.000805
    32  H   -0.007589   0.564983  -0.030018   0.003514  -0.007269   0.000546
    33  H    0.004365  -0.030018   0.571212  -0.010868   0.003141  -0.000207
    34  H   -0.000152   0.003514  -0.010868   0.561187  -0.028166   0.004191
    35  H    0.000457  -0.007269   0.003141  -0.028166   0.559570  -0.004896
    36  H    0.000805   0.000546  -0.000207   0.004191  -0.004896   0.530700
    37  H   -0.000021  -0.000138  -0.000062  -0.008043   0.002429  -0.025931
    38  H    0.004261  -0.000081   0.000111   0.000813  -0.000147   0.003946
    39  H    0.000000  -0.000000   0.000000  -0.000000   0.000000  -0.000000
    40  H   -0.000000  -0.000000  -0.000000   0.000000   0.000000   0.000000
    41  H    0.000000   0.000000  -0.000000  -0.000000  -0.000000  -0.000000
    42  H   -0.000002   0.000000  -0.000000  -0.000000  -0.000000   0.000000
              37         38         39         40         41         42
     1  C   -0.001583   0.000625  -0.000058   0.000069   0.000394   0.002597
     2  O    0.000562  -0.000741  -0.000000   0.000015   0.000010  -0.000939
     3  C    0.016888   0.017746  -0.001750  -0.002086   0.015968  -0.081982
     4  C   -0.025895  -0.124574   0.006969  -0.005696  -0.013587  -0.051478
     5  C   -0.000581  -0.015561  -0.004566   0.005700   0.006806  -0.024667
     6  C   -0.005291   0.100579   0.024892  -0.024022  -0.021549   0.002646
     7  C   -0.001676   0.049032  -0.013495   0.009725   0.010059   0.000520
     8  N   -0.000000  -0.000082   0.003835  -0.000953  -0.000876  -0.000032
     9  C   -0.005102  -0.108214   0.002752  -0.004081  -0.002158   0.001801
    10  C    0.010357   0.078963   0.000080   0.000475  -0.001182  -0.003750
    11  C    0.045341  -0.029684   0.000016  -0.000017  -0.000026  -0.000105
    12  C   -0.059968  -0.024596  -0.000000  -0.000001   0.000001   0.000005
    13  C    0.391142   0.003549  -0.000000  -0.000011   0.000029  -0.000110
    14  N   -0.028741   0.369950  -0.000003   0.000001   0.000010   0.000029
    15  C   -0.000369  -0.000413   0.055334  -0.047711  -0.035212  -0.134665
    16  O    0.000000  -0.000015  -0.068876  -0.043838  -0.042769  -0.023449
    17  C   -0.000003   0.000020   0.409563   0.423379   0.425230  -0.009199
    18  C   -0.000199   0.000273  -0.045564   0.022670   0.028253   0.329539
    19  C    0.004915  -0.034054  -0.006685   0.004515  -0.004135   0.043660
    20  C    0.001331  -0.001756  -0.003758   0.010527  -0.004763   0.080992
    21  C   -0.000038  -0.000029   0.000033   0.002296  -0.002837   0.009529
    22  N   -0.000001  -0.000001   0.000001  -0.000008   0.000001   0.000540
    23  C    0.000058  -0.000229   0.002254  -0.004220  -0.008285   0.147718
    24  N   -0.000000   0.000000   0.000142   0.000011  -0.000640   0.004080
    25  H    0.000000  -0.000000   0.000000   0.000000  -0.000000  -0.000000
    26  H    0.000001   0.000000  -0.000000   0.000000  -0.000000   0.000012
    27  H    0.000000  -0.000000  -0.000000  -0.000000   0.000000  -0.000001
    28  H   -0.000802   0.003903  -0.000000   0.000000   0.000000   0.000032
    29  H    0.000003   0.000087  -0.000000  -0.000000   0.000000   0.000000
    30  H    0.000010   0.003508   0.000000   0.000000  -0.000000  -0.000000
    31  H   -0.000021   0.004261   0.000000  -0.000000   0.000000  -0.000002
    32  H   -0.000138  -0.000081  -0.000000  -0.000000   0.000000   0.000000
    33  H   -0.000062   0.000111   0.000000  -0.000000  -0.000000  -0.000000
    34  H   -0.008043   0.000813  -0.000000   0.000000  -0.000000  -0.000000
    35  H    0.002429  -0.000147   0.000000   0.000000  -0.000000  -0.000000
    36  H   -0.025931   0.003946  -0.000000   0.000000  -0.000000   0.000000
    37  H    0.554677  -0.006204   0.000000   0.000000  -0.000000  -0.000000
    38  H   -0.006204   0.380836  -0.000000   0.000000  -0.000000  -0.000000
    39  H    0.000000  -0.000000   0.536105  -0.027434  -0.027471   0.000641
    40  H    0.000000   0.000000  -0.027434   0.580701  -0.044037  -0.002368
    41  H   -0.000000  -0.000000  -0.027471  -0.044037   0.580156  -0.004088
    42  H   -0.000000  -0.000000   0.000641  -0.002368  -0.004088   0.561960
 Mulliken charges:
               1
     1  C   -0.155244
     2  O   -0.403329
     3  C   -0.557072
     4  C   -0.935046
     5  C    0.393864
     6  C   -0.240879
     7  C    0.225157
     8  N   -0.642553
     9  C   -0.373553
    10  C   -0.125849
    11  C    0.226300
    12  C   -0.243541
    13  C   -0.164886
    14  N   -0.497424
    15  C   -0.272394
    16  O   -0.309984
    17  C   -0.138759
    18  C   -0.457556
    19  C    1.825649
    20  C    0.339558
    21  C    0.495883
    22  N   -0.427653
    23  C    0.164525
    24  N   -0.624625
    25  H    0.140162
    26  H    0.158200
    27  H    0.150468
    28  H    0.083424
    29  H    0.183806
    30  H    0.169335
    31  H    0.190536
    32  H    0.143706
    33  H    0.143375
    34  H    0.147275
    35  H    0.145952
    36  H    0.171380
    37  H    0.142934
    38  H    0.328180
    39  H    0.157044
    40  H    0.146398
    41  H    0.146697
    42  H    0.150535
 Sum of Mulliken charges =  -0.00000
 Mulliken charges with hydrogens summed into heavy atoms:
               1
     1  C    0.293586
     2  O   -0.403329
     3  C   -0.557072
     4  C   -0.851622
     5  C    0.393864
     6  C   -0.240879
     7  C    0.225157
     8  N   -0.642553
     9  C   -0.020411
    10  C    0.064687
    11  C    0.513380
    12  C    0.049687
    13  C    0.149429
    14  N   -0.169243
    15  C   -0.272394
    16  O   -0.309984
    17  C    0.311381
    18  C   -0.307021
    19  C    1.825649
    20  C    0.339558
    21  C    0.495883
    22  N   -0.427653
    23  C    0.164525
    24  N   -0.624625
 Electronic spatial extent (au):  <R**2>=           7580.8583
 Charge=              0.0000 electrons
 Dipole moment (field-independent basis, Debye):
    X=              6.6341    Y=             -1.9038    Z=              0.1186  Tot=              6.9029
 Quadrupole moment (field-independent basis, Debye-Ang):
   XX=           -159.4655   YY=           -160.9486   ZZ=           -136.5786
   XY=            -22.0643   XZ=              2.0484   YZ=             -2.0867
 Traceless Quadrupole moment (field-independent basis, Debye-Ang):
   XX=             -7.1346   YY=             -8.6177   ZZ=             15.7523
   XY=            -22.0643   XZ=              2.0484   YZ=             -2.0867
 Octapole moment (field-independent basis, Debye-Ang**2):
  XXX=            245.8052  YYY=            -71.1524  ZZZ=              5.2198  XYY=            -27.4180
  XXY=             10.1092  XXZ=              9.7135  XZZ=              9.7310  YZZ=             -3.7560
  YYZ=             10.5919  XYZ=              0.0984
 Hexadecapole moment (field-independent basis, Debye-Ang**3):
 XXXX=          -7309.4336 YYYY=          -4273.4255 ZZZZ=           -307.7395 XXXY=           -162.4739
 XXXZ=             93.5234 YYYX=           -494.1200 YYYZ=            -10.4853 ZZZX=             21.8513
 ZZZY=             -7.6463 XXYY=          -1902.0375 XXZZ=          -1061.6663 YYZZ=           -685.9712
 XXYZ=            -48.1234 YYXZ=            -11.6521 ZZXY=            -14.2608
 N-N= 2.111634246214D+03 E-N=-6.700832712017D+03  KE= 1.061632577025D+03
 Unable to Open any file for archive entry.
 1\1\GINC-N1\SP\RB3LYP TD-FC\6-31+G(d,p)\C18H18N4O2\HPCMGAC13\30-Jul-20
 25\0\\# td=(50-50,nstates=3) b3lyp/6-31+g(d,p) geom=connectivity\\Titl
 e Card Required\\0,1\C,0,-1.478,2.5934,-0.4822\O,0,-1.7021,1.2094,-0.4
 822\C,0,-0.5287,0.5319,-0.4822\C,0,-0.5287,-0.8051,-0.4822\C,0,0.6292,
 -1.4736,-0.4822\C,0,0.6292,-2.8106,-0.4822\C,0,1.7663,-3.4671,-0.4822\
 N,0,2.7692,-4.0461,-0.4822\C,0,-0.6672,-3.5591,-0.4822\C,0,-1.8253,-2.
 57,-0.4822\C,0,-3.1369,-3.2732,-0.7857\C,0,-4.1747,-2.5696,0.0809\C,0,
 -3.4011,-1.5056,0.8405\N,0,-2.0311,-2.0105,0.8508\C,0,1.7871,-0.8051,-
 0.4822\O,0,2.9605,-1.4826,-0.4822\C,0,4.047,-0.5965,-0.4822\C,0,1.7871
 ,0.5319,-0.4822\C,0,0.6292,1.2004,-0.4822\C,0,0.6292,2.5374,-0.4822\C,
 0,0.7629,3.785,-0.7917\N,0,-0.24,4.364,-0.7917\C,0,1.7663,3.1939,-0.48
 22\N,0,2.7692,3.7729,-0.4822\H,0,-2.4542,3.1279,-0.4822\H,0,-0.9013,2.
 8753,0.4271\H,0,-0.9007,2.8756,-1.391\H,0,-1.4813,-1.3551,-0.4822\H,0,
 -0.726,-4.1983,-1.3914\H,0,-0.726,-4.1989,0.4266\H,0,-1.5664,-1.796,-1
 .2389\H,0,-3.3944,-3.1707,-1.8636\H,0,-3.0847,-4.364,-0.571\H,0,-4.645
 3,-3.2891,0.7878\H,0,-4.998,-2.1322,-0.5269\H,0,-3.4578,-0.5252,0.3167
 \H,0,-3.8025,-1.3299,1.8636\H,0,-1.9406,-2.7336,1.5645\H,0,4.998,-1.17
 47,-0.4822\H,0,4.0028,0.0439,-1.3914\H,0,4.0028,0.0445,0.4266\H,0,2.73
 97,1.0819,-0.4822\\Version=ES64L-G16RevC.02\State=1-A\HF=-1065.3674277
 \RMSD=1.954e-09\PG=C01 [X(C18H18N4O2)]\\@
 The archive entry for this job was punched.


 ONLY A FOOL KNOWS EVERYTHING.

               -- THE CHEMIST ANALYST, SEPTEMBER 1946
 Job cpu time:       0 days  2 hours 46 minutes 21.7 seconds.
 Elapsed time:       0 days  0 hours 10 minutes 38.2 seconds.
 File lengths (MBytes):  RWF=   1571 Int=      0 D2E=      0 Chk=     77 Scr=      2
 Normal termination of Gaussian 16 at Wed Jul 30 06:44:25 2025.
