 Entering Gaussian System, Link 0=g16
 Input=M2591E.gjf
 Output=M2591E.log
 Initial command:
 /hpc/softwares/Gaussian/g16/l1.exe "/hpc/home/hpcmgac13/pbs.12421.admin1.x8z/Gau-1031162.inp" -scrdir="/hpc/home/hpcmgac13/pbs.12421.admin1.x8z/"
 Default linda workers: n2
 Default is to use  16 SMP processors on each worker.
 Entering Link 1 = /hpc/softwares/Gaussian/g16/l1.exe PID=   1031163.
  
 Copyright (c) 1988-2021, Gaussian, Inc.  All Rights Reserved.
  
 This is part of the Gaussian(R) 16 program.  It is based on
 the Gaussian(R) 09 system (copyright 2009, Gaussian, Inc.),
 the Gaussian(R) 03 system (copyright 2003, Gaussian, Inc.),
 the Gaussian(R) 98 system (copyright 1998, Gaussian, Inc.),
 the Gaussian(R) 94 system (copyright 1995, Gaussian, Inc.),
 the Gaussian 92(TM) system (copyright 1992, Gaussian, Inc.),
 the Gaussian 90(TM) system (copyright 1990, Gaussian, Inc.),
 the Gaussian 88(TM) system (copyright 1988, Gaussian, Inc.),
 the Gaussian 86(TM) system (copyright 1986, Carnegie Mellon
 University), and the Gaussian 82(TM) system (copyright 1983,
 Carnegie Mellon University). Gaussian is a federally registered
 trademark of Gaussian, Inc.
  
 This software contains proprietary and confidential information,
 including trade secrets, belonging to Gaussian, Inc.
  
 This software is provided under written license and may be
 used, copied, transmitted, or stored only in accord with that
 written license.
  
 The following legend is applicable only to US Government
 contracts under FAR:
  
                    RESTRICTED RIGHTS LEGEND
  
 Use, reproduction and disclosure by the US Government is
 subject to restrictions as set forth in subparagraphs (a)
 and (c) of the Commercial Computer Software - Restricted
 Rights clause in FAR 52.227-19.
  
 Gaussian, Inc.
 340 Quinnipiac St., Bldg. 40, Wallingford CT 06492
  
  
 ---------------------------------------------------------------
 Warning -- This program may not be used in any manner that
 competes with the business of Gaussian, Inc. or will provide
 assistance to any competitor of Gaussian, Inc.  The licensee
 of this program is prohibited from giving any competitor of
 Gaussian, Inc. access to this program.  By using this program,
 the user acknowledges that Gaussian, Inc. is engaged in the
 business of creating and licensing software in the field of
 computational chemistry and represents and warrants to the
 licensee that it is not a competitor of Gaussian, Inc. and that
 it will not use this program in any manner prohibited above.
 ---------------------------------------------------------------
  

 Cite this work as:
 Gaussian 16, Revision C.02,
 M. J. Frisch, G. W. Trucks, H. B. Schlegel, G. E. Scuseria, 
 M. A. Robb, J. R. Cheeseman, G. Scalmani, V. Barone, 
 G. A. Petersson, H. Nakatsuji, X. Li, M. Caricato, A. V. Marenich, 
 J. Bloino, B. G. Janesko, R. Gomperts, B. Mennucci, H. P. Hratchian, 
 J. V. Ortiz, A. F. Izmaylov, J. L. Sonnenberg, D. Williams-Young, 
 F. Ding, F. Lipparini, F. Egidi, J. Goings, B. Peng, A. Petrone, 
 T. Henderson, D. Ranasinghe, V. G. Zakrzewski, J. Gao, N. Rega, 
 G. Zheng, W. Liang, M. Hada, M. Ehara, K. Toyota, R. Fukuda, 
 J. Hasegawa, M. Ishida, T. Nakajima, Y. Honda, O. Kitao, H. Nakai, 
 T. Vreven, K. Throssell, J. A. Montgomery, Jr., J. E. Peralta, 
 F. Ogliaro, M. J. Bearpark, J. J. Heyd, E. N. Brothers, K. N. Kudin, 
 V. N. Staroverov, T. A. Keith, R. Kobayashi, J. Normand, 
 K. Raghavachari, A. P. Rendell, J. C. Burant, S. S. Iyengar, 
 J. Tomasi, M. Cossi, J. M. Millam, M. Klene, C. Adamo, R. Cammi, 
 J. W. Ochterski, R. L. Martin, K. Morokuma, O. Farkas, 
 J. B. Foresman, and D. J. Fox, Gaussian, Inc., Wallingford CT, 2019.
 
 ******************************************
 Gaussian 16:  ES64L-G16RevC.02  7-Dec-2021
                29-Jul-2025 
 ******************************************
 SetLPE:    new flags="-opt 'Tsnet.Node.lindarsharg: ssh'  -nodelist 'n2.head.cm.mguif.local' -env GAUSS_MDEF=2147483648 -env GAUSS_EXEDIR="/hpc/softwares/Gaussian/g16/bsd:/hpc/softwares/Gaussian/g16""
 Will use up to    1 processors via Linda.
 ----------------------------------------------------------
 # td=(50-50,nstates=3) b3lyp/6-31+g(d,p) geom=connectivity
 ----------------------------------------------------------
 1/38=1,57=2,172=1/1;
 2/12=2,17=6,18=5,40=1/2;
 3/5=1,6=6,7=111,11=9,25=1,30=1,74=-5/1,2,3,8;
 4//1;
 5/5=2,38=5/2;
 8/6=1,10=2,108=3/1;
 9/41=3,42=1,48=2,70=2/14;
 6/7=2,8=2,9=2,10=2/1;
 99/5=1,9=1/99;
 -------------------
 Title Card Required
 -------------------
 Symbolic Z-matrix:
 Charge =  0 Multiplicity = 1
 C                    -5.40409   0.69929  -1.49625 
 C                    -4.54772  -0.0624   -0.77518 
 C                    -4.64422  -1.49593  -0.83857 
 N                    -4.75545  -2.64995  -0.92314 
 C                    -3.52894   0.55775   0.04613 
 C                    -2.5033    0.32617   0.90582 
 C                    -1.75553  -0.72922   1.65966 
 C                    -2.35347  -2.137     1.53959 
 C                    -0.21854  -0.69175   1.39112 
 C                     0.30043  -1.27766   0.06363 
 C                     0.01734  -0.48226  -1.22503 
 C                     0.6579    0.91617  -1.3386 
 C                     2.20407   0.93303  -1.32337 
 C                     2.81679   1.25007   0.04895 
 C                     4.33509   1.20882   0.08525 
 Br                    5.03846  -0.64432  -0.07702 
 C                    -2.36706   1.81688   0.95445 
 O                    -1.72197   2.67704   1.46474 
 O                    -3.45561   1.9899    0.03169 
 H                    -5.33553   1.77996  -1.45766 
 H                    -6.16614   0.24414  -2.11814 
 H                    -1.85421  -0.42749   2.71462 
 H                    -1.78685  -2.82994   2.17003 
 H                    -3.39484  -2.15706   1.87407 
 H                    -2.32648  -2.51903   0.51695 
 H                     0.12776   0.3407    1.51479 
 H                     0.24179  -1.26128   2.20865 
 H                     1.38458  -1.41169   0.16421 
 H                    -0.09962  -2.29126  -0.06222 
 H                     0.37159  -1.08564  -2.07216 
 H                    -1.06535  -0.38204  -1.36695 
 H                     0.30875   1.35302  -2.28218 
 H                     0.2768    1.58033  -0.55173 
 H                     2.56816   1.68638  -2.03424 
 H                     2.58694  -0.0308   -1.68152 
 H                     2.42194   0.58593   0.82415 
 H                     2.52378   2.27064   0.33961 
 H                     4.79406   1.76374  -0.73459 
 H                     4.73314   1.56495   1.0351 
 
                          Input orientation:                          
 ---------------------------------------------------------------------
 Center     Atomic      Atomic             Coordinates (Angstroms)
 Number     Number       Type             X           Y           Z
 ---------------------------------------------------------------------
      1          6           0       -5.404089    0.699294   -1.496251
      2          6           0       -4.547720   -0.062398   -0.775183
      3          6           0       -4.644224   -1.495928   -0.838572
      4          7           0       -4.755453   -2.649948   -0.923142
      5          6           0       -3.528935    0.557751    0.046132
      6          6           0       -2.503296    0.326167    0.905821
      7          6           0       -1.755530   -0.729217    1.659663
      8          6           0       -2.353470   -2.136995    1.539590
      9          6           0       -0.218535   -0.691749    1.391116
     10          6           0        0.300429   -1.277659    0.063632
     11          6           0        0.017338   -0.482259   -1.225033
     12          6           0        0.657895    0.916172   -1.338600
     13          6           0        2.204070    0.933031   -1.323368
     14          6           0        2.816785    1.250066    0.048952
     15          6           0        4.335091    1.208823    0.085251
     16         35           0        5.038459   -0.644321   -0.077023
     17          6           0       -2.367062    1.816875    0.954447
     18          8           0       -1.721973    2.677037    1.464744
     19          8           0       -3.455609    1.989898    0.031688
     20          1           0       -5.335526    1.779959   -1.457662
     21          1           0       -6.166138    0.244143   -2.118143
     22          1           0       -1.854211   -0.427486    2.714618
     23          1           0       -1.786854   -2.829939    2.170030
     24          1           0       -3.394840   -2.157062    1.874066
     25          1           0       -2.326483   -2.519031    0.516947
     26          1           0        0.127762    0.340703    1.514791
     27          1           0        0.241788   -1.261282    2.208652
     28          1           0        1.384581   -1.411693    0.164213
     29          1           0       -0.099619   -2.291263   -0.062224
     30          1           0        0.371594   -1.085641   -2.072160
     31          1           0       -1.065348   -0.382038   -1.366954
     32          1           0        0.308750    1.353020   -2.282181
     33          1           0        0.276802    1.580334   -0.551728
     34          1           0        2.568159    1.686375   -2.034239
     35          1           0        2.586941   -0.030796   -1.681524
     36          1           0        2.421939    0.585925    0.824151
     37          1           0        2.523775    2.270641    0.339607
     38          1           0        4.794063    1.763737   -0.734590
     39          1           0        4.733143    1.564949    1.035098
 ---------------------------------------------------------------------
                    Distance matrix (angstroms):
                    1          2          3          4          5
     1  C    0.000000
     2  C    1.354061   0.000000
     3  C    2.414319   1.438172   0.000000
     4  N    3.459278   2.600088   1.162448   0.000000
     5  C    2.432115   1.448125   2.498833   3.568357   0.000000
     6  C    3.784676   2.675150   3.308551   4.156270   1.358172
     7  C    5.031145   3.764233   3.895328   4.399958   2.721164
     8  C    5.154332   3.804847   3.363655   3.478174   3.297543
     9  C    6.096053   4.881678   5.020452   5.456552   3.785364
    10  C    6.235632   5.068039   5.031024   5.330933   4.246536
    11  C    5.555313   4.606344   4.786130   5.250671   3.908137
    12  C    6.067911   5.326675   5.846428   6.495703   4.424420
    13  C    7.613712   6.846755   7.282445   7.837913   5.906243
    14  C    8.382945   7.525802   7.999677   8.572856   6.383375
    15  C    9.879899   9.014471   9.423228   9.926981   7.891028
    16  Br  10.623856   9.629169   9.749848  10.032904   8.652190
    17  C    4.059365   3.358356   4.401710   5.402061   1.939169
    18  O    5.122200   4.528424   5.590926   6.578812   3.125531
    19  O    2.792281   2.460826   3.784328   4.912175   1.434096
    20  H    1.083525   2.116765   3.404792   4.499586   2.649332
    21  H    1.083804   2.125273   2.642228   3.434213   3.425971
    22  H    5.621627   4.423459   4.642295   5.156534   3.300941
    23  H    6.243516   4.894481   4.358421   4.291001   4.361448
    24  H    4.853338   3.568651   3.058834   3.149377   3.275597
    25  H    4.886946   3.555072   2.873342   2.826816   3.336787
    26  H    6.308434   5.221743   5.628799   6.223608   3.946581
    27  H    7.031791   5.768880   5.763137   6.058791   4.712083
    28  H    7.300647   6.155912   6.112214   6.357329   5.294836
    29  H    6.255978   5.026107   4.678537   4.748329   4.459689
    30  H    6.072576   5.189299   5.181554   5.482145   4.733078
    31  H    4.473329   3.546728   3.785273   4.353994   2.991534
    32  H    5.803583   5.278234   5.893425   6.596733   4.558653
    33  H    5.825880   5.101423   5.810522   6.584590   3.985818
    34  H    8.051118   7.434996   7.973402   8.583328   6.540359
    35  H    8.026451   7.192068   7.426098   7.832359   6.382407
    36  H    8.163567   7.180135   7.551783   8.064668   6.001584
    37  H    8.287975   7.529400   8.182625   8.876592   6.297255
    38  H   10.281803   9.518683   9.985864  10.521855   8.446077
    39  H   10.484301   9.594779  10.040648  10.565676   8.381792
                    6          7          8          9         10
     6  C    0.000000
     7  C    1.497086   0.000000
     8  C    2.547799   1.534206   0.000000
     9  C    2.547901   1.560729   2.582388   0.000000
    10  C    3.338025   2.659901   3.155961   1.541048   0.000000
    11  C    3.398189   3.394926   4.000253   2.635101   1.540604
    12  C    3.921563   4.185870   5.164700   3.287079   2.628104
    13  C    5.243745   5.228764   6.196189   3.984639   3.230289
    14  C    5.467273   5.236221   6.358122   3.845155   3.566743
    15  C    6.943771   6.582586   7.618822   5.104211   4.739363
    16  Br   7.667196   7.012957   7.712466   5.458358   4.782241
    17  C    1.497710   2.711805   3.996957   3.331673   4.181531
    18  O    2.539577   3.411991   4.855852   3.689779   4.657558
    19  O    2.106896   3.596409   4.529870   4.417909   4.978531
    20  H    3.964983   5.369362   5.763567   6.356766   6.589943
    21  H    4.750526   5.888354   5.795280   6.968843   6.992318
    22  H    2.064231   1.101685   2.133629   2.120596   3.520369
    23  H    3.474553   2.162057   1.094842   2.763727   3.347124
    24  H    2.810476   2.184502   1.093951   3.531189   4.207854
    25  H    2.877088   2.198914   1.092007   2.923453   2.940606
    26  H    2.700652   2.170831   3.506582   1.095981   2.180544
    27  H    3.428243   2.138635   2.819553   1.097556   2.145884
    28  H    4.322699   3.544353   4.048549   2.143266   1.097027
    29  H    3.683166   2.854282   2.769377   2.164436   1.096937
    30  H    4.373393   4.310243   4.645003   3.535206   2.145587
    31  H    2.781143   3.123667   3.631409   2.901717   2.171189
    32  H    4.373258   4.912748   5.820099   4.237006   3.524682
    33  H    3.380285   3.788753   5.011035   3.030241   2.923585
    34  H    6.017788   6.178534   7.184208   5.015396   4.281257
    35  H    5.721214   5.523439   6.262532   4.212917   3.135024
    36  H    4.932756   4.458579   5.543526   2.987642   2.924404
    37  H    5.419688   5.390190   6.682420   4.171533   4.196411
    38  H    7.616364   7.405703   8.454279   5.972786   5.484523
    39  H    7.342843   6.910583   8.011179   5.453306   5.354729
                   11         12         13         14         15
    11  C    0.000000
    12  C    1.542342   0.000000
    13  C    2.606629   1.546342   0.000000
    14  C    3.529999   2.587971   1.535966   0.000000
    15  C    4.818671   3.954082   2.569342   1.519300   0.000000
    16  Br   5.153237   4.818304   3.474935   2.922398   1.988769
    17  C    3.965036   3.901243   5.183133   5.292775   6.785579
    18  O    4.499028   4.077150   5.121420   4.963974   6.383312
    19  O    4.444352   4.466709   5.914821   6.315899   7.829940
    20  H    5.815918   6.056517   7.588203   8.307277   9.809567
    21  H    6.289728   6.901213   8.436031   9.295219  10.773178
    22  H    4.361943   4.954258   5.884385   5.633663   6.920877
    23  H    4.504793   5.685124   6.503172   6.506835   7.624704
    24  H    4.904318   6.015867   7.149829   7.315999   8.618635
    25  H    3.560398   4.914284   5.985767   6.393615   7.645902
    26  H    2.862882   2.958724   3.566098   3.194757   4.527564
    27  H    3.528094   4.182995   4.597904   4.195448   5.231193
    28  H    2.159446   2.864520   2.895201   3.024807   3.947005
    29  H    2.153671   3.534205   4.158550   4.588985   5.651460
    30  H    1.098723   2.151124   2.827312   3.991692   5.062440
    31  H    1.096538   2.157712   3.524259   4.442917   5.814162
    32  H    2.137927   1.096852   2.165168   3.425642   4.673002
    33  H    2.185166   1.097957   2.174578   2.630857   4.124739
    34  H    3.444485   2.173991   1.097919   2.142864   2.800418
    35  H    2.648596   2.176135   1.097191   2.165175   2.777441
    36  H    3.335008   2.810410   2.186272   1.094495   2.143391
    37  H    4.038413   2.851749   2.157985   1.100867   2.114952
    38  H    5.301145   4.265100   2.782947   2.188018   1.091203
    39  H    5.615877   4.760567   3.515379   2.178087   1.089716
                   16         17         18         19         20
    16  Br   0.000000
    17  C    7.871668   0.000000
    18  O    7.688427   1.190135   0.000000
    19  O    8.893825   1.437482   2.351872   0.000000
    20  H   10.742572   3.825103   4.733178   2.407556   0.000000
    21  H   11.423595   5.132960   6.205373   3.875100   1.866784
    22  H    7.439703   2.897995   3.349289   3.950485   5.865176
    23  H    7.510730   4.838095   5.552335   5.530649   6.855974
    24  H    8.787244   4.206448   5.131719   4.538207   5.510609
    25  H    7.622972   4.358111   5.316284   4.673419   5.606669
    26  H    5.255387   2.952493   2.980349   4.214260   6.383921
    27  H    5.349112   4.225421   4.463195   5.383316   7.334674
    28  H    3.741374   5.012280   5.297148   5.917417   7.614260
    29  H    5.395598   4.801220   5.444967   5.440572   6.777671
    30  H    5.094601   5.008511   5.572294   5.341591   6.415644
    31  H    6.244131   3.452330   4.219906   3.646317   4.787158
    32  H    5.587686   4.225032   4.462769   4.464303   5.720136
    33  H    5.277103   3.051972   3.043685   3.799870   5.688479
    34  H    3.919850   5.771107   5.624013   6.375419   7.925240
    35  H    2.993456   5.907993   5.983151   6.597781   8.129848
    36  H    3.028497   4.946387   4.685629   6.094646   8.173778
    37  H    3.872237   4.950174   4.411062   5.993886   8.077101
    38  H    2.508160   7.357811   6.937572   8.288270  10.155376
    39  H    2.492169   7.105131   6.564287   8.260937  10.374882
                   21         22         23         24         25
    21  H    0.000000
    22  H    6.511481   0.000000
    23  H    6.856861   2.464324   0.000000
    24  H    5.420665   2.464041   1.768043   0.000000
    25  H    5.414959   3.070400   1.766507   1.764704   0.000000
    26  H    7.267786   2.440884   3.761391   4.333201   3.898344
    27  H    7.877117   2.311802   2.564676   3.760244   3.322622
    28  H    8.060043   4.238278   4.011574   5.130501   3.888781
    29  H    6.888958   3.776653   2.849542   3.824358   2.312194
    30  H    6.671760   5.319833   5.069285   5.559377   4.004710
    31  H    5.193693   4.157355   4.361542   4.368232   3.115491
    32  H    6.571202   5.728578   6.458396   6.581158   5.456404
    33  H    6.763914   4.386522   5.578275   5.773522   4.972319
    34  H    8.852967   6.824764   7.552424   8.099643   6.939129
    35  H    8.768273   6.261570   6.465273   7.276327   5.930120
    36  H    9.084546   4.783966   5.585110   6.516227   5.681781
    37  H    9.255367   5.664568   6.924441   7.549114   6.818901
    38  H   11.151206   7.803720   8.535054   9.446475   8.403013
    39  H   11.422862   7.084054   7.944399   8.978939   8.172251
                   26         27         28         29         30
    26  H    0.000000
    27  H    1.749514   0.000000
    28  H    2.544513   2.346983   0.000000
    29  H    3.076674   2.516803   1.740048   0.000000
    30  H    3.867833   4.286380   2.476654   2.390692   0.000000
    31  H    3.201612   3.907254   3.067053   2.506011   1.748478
    32  H    3.933769   5.196791   3.845243   4.286697   2.448495
    33  H    2.414415   3.961781   3.269858   3.920532   3.070525
    34  H    4.512426   5.665934   3.978954   5.179526   3.537006
    35  H    4.049939   4.706093   2.599864   3.866452   2.484564
    36  H    2.408395   3.175228   2.345657   3.927101   3.922584
    37  H    3.293417   4.601660   3.858511   5.277749   4.659735
    38  H    5.372067   6.207787   4.745079   6.390870   5.428285
    39  H    4.789407   5.434803   4.564176   6.279337   5.975265
                   31         32         33         34         35
    31  H    0.000000
    32  H    2.395039   0.000000
    33  H    2.513337   1.745612   0.000000
    34  H    4.233908   2.297287   2.731190   0.000000
    35  H    3.682600   2.732378   3.034620   1.753122   0.000000
    36  H    4.230729   3.834488   2.735600   3.066393   2.585726
    37  H    4.778165   3.552765   2.513939   2.445093   3.063588
    38  H    6.271916   4.762537   4.524679   2.578705   2.998069
    39  H    6.571386   5.533941   4.730458   3.758022   3.812167
                   36         37         38         39
    36  H    0.000000
    37  H    1.755967   0.000000
    38  H    3.073091   2.562237   0.000000
    39  H    2.518859   2.421367   1.781860   0.000000
 Stoichiometry    C15H20BrNO2
 Framework group  C1[X(C15H20BrNO2)]
 Deg. of freedom   111
 Full point group                 C1      NOp   1
 Largest Abelian subgroup         C1      NOp   1
 Largest concise Abelian subgroup C1      NOp   1
                         Standard orientation:                         
 ---------------------------------------------------------------------
 Center     Atomic      Atomic             Coordinates (Angstroms)
 Number     Number       Type             X           Y           Z
 ---------------------------------------------------------------------
      1          6           0       -5.404089    0.699294   -1.496251
      2          6           0       -4.547720   -0.062398   -0.775183
      3          6           0       -4.644224   -1.495928   -0.838572
      4          7           0       -4.755453   -2.649948   -0.923142
      5          6           0       -3.528935    0.557751    0.046132
      6          6           0       -2.503296    0.326167    0.905821
      7          6           0       -1.755530   -0.729217    1.659663
      8          6           0       -2.353470   -2.136995    1.539590
      9          6           0       -0.218535   -0.691749    1.391116
     10          6           0        0.300429   -1.277659    0.063632
     11          6           0        0.017338   -0.482259   -1.225033
     12          6           0        0.657895    0.916172   -1.338600
     13          6           0        2.204070    0.933031   -1.323368
     14          6           0        2.816785    1.250066    0.048952
     15          6           0        4.335091    1.208823    0.085251
     16         35           0        5.038459   -0.644321   -0.077023
     17          6           0       -2.367062    1.816875    0.954447
     18          8           0       -1.721973    2.677037    1.464744
     19          8           0       -3.455609    1.989898    0.031688
     20          1           0       -5.335526    1.779959   -1.457662
     21          1           0       -6.166138    0.244143   -2.118143
     22          1           0       -1.854211   -0.427486    2.714618
     23          1           0       -1.786854   -2.829939    2.170030
     24          1           0       -3.394840   -2.157062    1.874066
     25          1           0       -2.326483   -2.519031    0.516947
     26          1           0        0.127762    0.340703    1.514791
     27          1           0        0.241788   -1.261282    2.208652
     28          1           0        1.384581   -1.411693    0.164213
     29          1           0       -0.099619   -2.291263   -0.062224
     30          1           0        0.371594   -1.085641   -2.072160
     31          1           0       -1.065348   -0.382038   -1.366954
     32          1           0        0.308750    1.353020   -2.282181
     33          1           0        0.276802    1.580334   -0.551728
     34          1           0        2.568159    1.686375   -2.034239
     35          1           0        2.586941   -0.030796   -1.681524
     36          1           0        2.421939    0.585925    0.824151
     37          1           0        2.523775    2.270641    0.339607
     38          1           0        4.794063    1.763737   -0.734590
     39          1           0        4.733143    1.564949    1.035098
 ---------------------------------------------------------------------
 Rotational constants (GHZ):           0.5682437           0.1083873           0.1022578
 Standard basis: 6-31+G(d,p) (6D, 7F)
 There are   476 symmetry adapted cartesian basis functions of A   symmetry.
 There are   476 symmetry adapted basis functions of A   symmetry.
   476 basis functions,   803 primitive gaussians,   476 cartesian basis functions
    84 alpha electrons       84 beta electrons
       nuclear repulsion energy      1739.1647919626 Hartrees.
 NAtoms=   39 NActive=   39 NUniq=   39 SFac= 1.00D+00 NAtFMM=   60 NAOKFM=F Big=F
 Integral buffers will be    131072 words long.
 Regular integral format.
 Two-electron integral symmetry is turned on.
 One-electron integrals computed using PRISM.
 NBasis=   476 RedAO= T EigKep=  1.67D-06  NBF=   476
 NBsUse=   475 1.00D-06 EigRej=  7.01D-07 NBFU=   475
 ExpMin= 3.50D-02 ExpMax= 5.74D+05 ExpMxC= 5.74D+03 IAcc=3 IRadAn=         5 AccDes= 0.00D+00
 Harris functional with IExCor=  402 and IRadAn=       5 diagonalized for initial guess.
 HarFok:  IExCor=  402 AccDes= 0.00D+00 IRadAn=         5 IDoV= 1 UseB2=F ITyADJ=14
 ICtDFT=  3500011 ScaDFX=  1.000000  1.000000  1.000000  1.000000
 FoFCou: FMM=F IPFlag=           0 FMFlag=      100000 FMFlg1=           0
         NFxFlg=           0 DoJE=T BraDBF=F KetDBF=T FulRan=T
         wScrn=  0.000000 ICntrl=       500 IOpCl=  0 I1Cent=   200000004 NGrid=           0
         NMat0=    1 NMatS0=      1 NMatT0=    0 NMatD0=    1 NMtDS0=    0 NMtDT0=    0
 Petite list used in FoFCou.
 Requested convergence on RMS density matrix=1.00D-08 within 128 cycles.
 Requested convergence on MAX density matrix=1.00D-06.
 Requested convergence on             energy=1.00D-06.
 No special actions if energy rises.
 SCF Done:  E(RB3LYP) =  -3360.53802440     A.U. after   16 cycles
            NFock= 16  Conv=0.61D-08     -V/T= 2.0071
 DoSCS=F DFT=T ScalE2(SS,OS)=  1.000000  1.000000
 ExpMin= 3.50D-02 ExpMax= 5.74D+05 ExpMxC= 5.74D+03 IAcc=3 IRadAn=         5 AccDes= 0.00D+00
 HarFok:  IExCor=  205 AccDes= 0.00D+00 IRadAn=         5 IDoV=-2 UseB2=F ITyADJ=14
 ICtDFT= 12500011 ScaDFX=  1.000000  1.000000  1.000000  1.000000
 GSVD:  LWork=       -1280 too small for GESVD, short by        5600 words or        5600 for optimal perf.
 Range of M.O.s used for correlation:    33   475
 NBasis=   476 NAE=    84 NBE=    84 NFC=    32 NFV=     0
 NROrb=    443 NOA=    52 NOB=    52 NVA=   391 NVB=   391

 **** Warning!!: The largest alpha MO coefficient is  0.16200844D+03

 Orbital symmetries:
       Occupied  (A) (A) (A) (A) (A) (A) (A) (A) (A) (A) (A) (A)
                 (A) (A) (A) (A) (A) (A) (A) (A) (A) (A) (A) (A)
                 (A) (A) (A) (A) (A) (A) (A) (A) (A) (A) (A) (A)
                 (A) (A) (A) (A) (A) (A) (A) (A) (A) (A) (A) (A)
                 (A) (A) (A) (A) (A) (A) (A) (A) (A) (A) (A) (A)
                 (A) (A) (A) (A) (A) (A) (A) (A) (A) (A) (A) (A)
                 (A) (A) (A) (A) (A) (A) (A) (A) (A) (A) (A) (A)
       Virtual   (A) (A) (A) (A) (A) (A) (A) (A) (A) (A) (A) (A)
                 (A) (A) (A) (A) (A) (A) (A) (A) (A) (A) (A) (A)
                 (A) (A) (A) (A) (A) (A) (A) (A) (A) (A) (A) (A)
                 (A) (A) (A) (A) (A) (A) (A) (A) (A) (A) (A) (A)
                 (A) (A) (A) (A) (A) (A) (A) (A) (A) (A) (A) (A)
                 (A) (A) (A) (A) (A) (A) (A) (A) (A) (A) (A) (A)
                 (A) (A) (A) (A) (A) (A) (A) (A) (A) (A) (A) (A)
                 (A) (A) (A) (A) (A) (A) (A) (A) (A) (A) (A) (A)
                 (A) (A) (A) (A) (A) (A) (A) (A) (A) (A) (A) (A)
                 (A) (A) (A) (A) (A) (A) (A) (A) (A) (A) (A) (A)
                 (A) (A) (A) (A) (A) (A) (A) (A) (A) (A) (A) (A)
                 (A) (A) (A) (A) (A) (A) (A) (A) (A) (A) (A) (A)
                 (A) (A) (A) (A) (A) (A) (A) (A) (A) (A) (A) (A)
                 (A) (A) (A) (A) (A) (A) (A) (A) (A) (A) (A) (A)
                 (A) (A) (A) (A) (A) (A) (A) (A) (A) (A) (A) (A)
                 (A) (A) (A) (A) (A) (A) (A) (A) (A) (A) (A) (A)
                 (A) (A) (A) (A) (A) (A) (A) (A) (A) (A) (A) (A)
                 (A) (A) (A) (A) (A) (A) (A) (A) (A) (A) (A) (A)
                 (A) (A) (A) (A) (A) (A) (A) (A) (A) (A) (A) (A)
                 (A) (A) (A) (A) (A) (A) (A) (A) (A) (A) (A) (A)
                 (A) (A) (A) (A) (A) (A) (A) (A) (A) (A) (A) (A)
                 (A) (A) (A) (A) (A) (A) (A) (A) (A) (A) (A) (A)
                 (A) (A) (A) (A) (A) (A) (A) (A) (A) (A) (A) (A)
                 (A) (A) (A) (A) (A) (A) (A) (A) (A) (A) (A) (A)
                 (A) (A) (A) (A) (A) (A) (A) (A) (A) (A) (A) (A)
                 (A) (A) (A) (A) (A) (A) (A) (A) (A) (A) (A) (A)
                 (A) (A) (A) (A) (A) (A) (A) (A) (A) (A) (A) (A)
                 (A) (A) (A) (A) (A) (A) (A) (A) (A) (A) (A) (A)
                 (A) (A) (A) (A) (A) (A) (A) (A) (A) (A) (A) (A)
                 (A) (A) (A) (A) (A) (A) (A) (A) (A) (A) (A) (A)
                 (A) (A) (A) (A) (A) (A) (A) (A) (A) (A) (A) (A)
                 (A) (A) (A) (A) (A) (A) (A) (A) (A) (A) (A) (A)
                 (A) (A) (A) (A) (A) (A) (A)
    24 initial guesses have been made.
 Convergence on wavefunction:    0.001000000000000
 Iteration     1 Dimension    24 NMult     0 NNew     24
 CISAX will form    24 AO SS matrices at one time.
 New state      1 was old state      2
 New state      2 was old state     10
 New state      3 was old state      1
 New state      5 was old state      3
 New state      7 was old state      5
 New state      9 was old state      7
 New state     10 was old state     18
 New state     11 was old state     14
 New state     12 was old state     13
 Vector   6 SDiff=1.73D+01 TDiff=1.68D+01 assumed to be triplet.
 Vector  12 SDiff=1.73D+01 TDiff=1.66D+01 assumed to be triplet.
 Iteration     2 Dimension    36 NMult    24 NNew     12
 New state      2 was old state      3
 New state      3 was old state      2
 New state      6 was old state      7
 Iteration     3 Dimension    48 NMult    36 NNew     12
 Iteration     4 Dimension    60 NMult    48 NNew     12
 Iteration     5 Dimension    70 NMult    60 NNew     10
 Iteration     6 Dimension    74 NMult    70 NNew      4
 ***********************************************************************
 Excited states from <AA,BB:AA,BB> singles matrix:
 ***********************************************************************
 
 Ground to excited state transition densities written to RWF  633
 Ground to excited state transition electric dipole moments (Au):
       state          X           Y           Z        Dip. S.      Osc.
         1         0.0000     -0.0000     -0.0000      0.0000      0.0000
         2        -1.1679      0.0610     -0.7432      1.9201      0.1601
         3        -0.0000      0.0000     -0.0000      0.0000      0.0000
         4        -0.0000     -0.0000     -0.0000      0.0000      0.0000
         5         0.0036      0.0008      0.0223      0.0005      0.0001
         6         0.0189      0.0075      0.0369      0.0018      0.0002
 Ground to excited state transition velocity dipole moments (Au):
       state          X           Y           Z        Dip. S.      Osc.
         1         0.0000     -0.0000      0.0000      0.0000      0.0000
         2         0.1380     -0.0136      0.0881      0.0270      0.1439
         3         0.0000      0.0000     -0.0000      0.0000      0.0000
         4         0.0000      0.0000      0.0000      0.0000      0.0000
         5        -0.0003     -0.0003     -0.0030      0.0000      0.0000
         6        -0.0024     -0.0009     -0.0052      0.0000      0.0001
 Ground to excited state transition magnetic dipole moments (Au):
       state          X           Y           Z
         1         0.0000      0.0000      0.0000
         2        -0.1280      0.7841      0.2761
         3         0.0000     -0.0000     -0.0000
         4         0.0000      0.0000     -0.0000
         5         0.0077     -0.0138     -0.0072
         6         0.0231     -0.0222     -0.0217
 Ground to excited state transition velocity quadrupole moments (Au):
       state          XX          YY          ZZ          XY          XZ          YZ
         1        -0.0000      0.0000     -0.0000      0.0000     -0.0000      0.0000
         2        -1.5979      0.0363      0.0466      0.1112     -0.6833      0.0251
         3         0.0000      0.0000     -0.0000     -0.0000      0.0000     -0.0000
         4        -0.0000     -0.0000     -0.0000     -0.0000      0.0000      0.0000
         5         0.0627     -0.0032     -0.0061     -0.0017      0.0243     -0.0018
         6         0.0891     -0.0067     -0.0024     -0.0067      0.0431     -0.0045
 <0|del|b> * <b|rxdel|0> + <0|del|b> * <b|delr+rdel|0>
 Rotatory Strengths (R) in cgs (10**-40 erg-esu-cm/Gauss)
       state          XX          YY          ZZ    R(velocity)    E-M Angle
         1         0.0000      0.0000     -0.0000      0.0000       90.00
         2        40.0136      0.9272    -63.6174     -7.5589       91.66
         3         0.0000      0.0000      0.0000      0.0000       90.00
         4        -0.0000      0.0000      0.0000      0.0000       90.00
         5         0.0958      0.0346     -0.0164      0.0380       90.00
         6         0.4802      0.0800     -0.1973      0.1209       90.00
 1/2[<0|r|b>*<b|rxdel|0> + (<0|rxdel|b>*<b|r|0>)*]
 Rotatory Strengths (R) in cgs (10**-40 erg-esu-cm/Gauss)
       state          XX          YY          ZZ     R(length)
         1        -0.0000      0.0000      0.0000      0.0000
         2      -105.7085    -33.8211    145.1312      1.8672
         3         0.0000      0.0000     -0.0000     -0.0000
         4         0.0000      0.0000     -0.0000     -0.0000
         5        -0.0199      0.0074      0.1145      0.0340
         6        -0.3082      0.1173      0.5668      0.1253
  1/2[<0|del|b>*<b|r|0> + (<0|r|b>*<b|del|0>)*] (Au)
       state          X           Y           Z        Dip. S.   Osc.(frdel)
         1         0.0000      0.0000     -0.0000     -0.0000     -0.0000
         2        -0.1612     -0.0008     -0.0655      0.2275      0.1517
         3        -0.0000      0.0000      0.0000     -0.0000     -0.0000
         4        -0.0000     -0.0000     -0.0000      0.0000      0.0000
         5        -0.0000     -0.0000     -0.0001      0.0001      0.0000
         6        -0.0000     -0.0000     -0.0002      0.0002      0.0002

 Excitation energies and oscillator strengths:
 
 Excited State   1:      Triplet-A      1.8728 eV  662.03 nm  f=0.0000  <S**2>=2.000
      80 -> 85         0.13648
      84 -> 85         0.68707
      84 <- 85         0.13496
 This state for optimization and/or second-order correction.
 Total Energy, E(TD-HF/TD-DFT) =  -3360.46920026    
 Copying the excited state density for this state as the 1-particle RhoCI density.
 
 Excited State   2:      Singlet-A      3.4040 eV  364.23 nm  f=0.1601  <S**2>=0.000
      80 -> 85        -0.13875
      84 -> 85         0.68121
 
 Excited State   3:      Triplet-A      3.4628 eV  358.04 nm  f=0.0000  <S**2>=2.000
      63 -> 85        -0.10301
      77 -> 85         0.12437
      78 -> 85         0.17610
      79 -> 85        -0.23364
      80 -> 85         0.51839
      80 -> 86        -0.12685
      84 -> 85        -0.11019
      84 -> 86        -0.27375
 
 Excited State   4:      Triplet-A      3.8571 eV  321.45 nm  f=0.0000  <S**2>=2.000
      81 -> 85         0.65006
      81 -> 86         0.19787
 
 Excited State   5:      Singlet-A      3.9943 eV  310.40 nm  f=0.0001  <S**2>=0.000
      83 -> 85         0.70455
 
 Excited State   6:      Singlet-A      4.0548 eV  305.77 nm  f=0.0002  <S**2>=0.000
      82 -> 85         0.70437
 SavETr:  write IOETrn=   770 NScale= 10 NData=  16 NLR=1 NState=    6 LETran=     118.

 **********************************************************************

            Population analysis using the SCF Density.

 **********************************************************************

 Orbital symmetries:
       Occupied  (A) (A) (A) (A) (A) (A) (A) (A) (A) (A) (A) (A)
                 (A) (A) (A) (A) (A) (A) (A) (A) (A) (A) (A) (A)
                 (A) (A) (A) (A) (A) (A) (A) (A) (A) (A) (A) (A)
                 (A) (A) (A) (A) (A) (A) (A) (A) (A) (A) (A) (A)
                 (A) (A) (A) (A) (A) (A) (A) (A) (A) (A) (A) (A)
                 (A) (A) (A) (A) (A) (A) (A) (A) (A) (A) (A) (A)
                 (A) (A) (A) (A) (A) (A) (A) (A) (A) (A) (A) (A)
       Virtual   (A) (A) (A) (A) (A) (A) (A) (A) (A) (A) (A) (A)
                 (A) (A) (A) (A) (A) (A) (A) (A) (A) (A) (A) (A)
                 (A) (A) (A) (A) (A) (A) (A) (A) (A) (A) (A) (A)
                 (A) (A) (A) (A) (A) (A) (A) (A) (A) (A) (A) (A)
                 (A) (A) (A) (A) (A) (A) (A) (A) (A) (A) (A) (A)
                 (A) (A) (A) (A) (A) (A) (A) (A) (A) (A) (A) (A)
                 (A) (A) (A) (A) (A) (A) (A) (A) (A) (A) (A) (A)
                 (A) (A) (A) (A) (A) (A) (A) (A) (A) (A) (A) (A)
                 (A) (A) (A) (A) (A) (A) (A) (A) (A) (A) (A) (A)
                 (A) (A) (A) (A) (A) (A) (A) (A) (A) (A) (A) (A)
                 (A) (A) (A) (A) (A) (A) (A) (A) (A) (A) (A) (A)
                 (A) (A) (A) (A) (A) (A) (A) (A) (A) (A) (A) (A)
                 (A) (A) (A) (A) (A) (A) (A) (A) (A) (A) (A) (A)
                 (A) (A) (A) (A) (A) (A) (A) (A) (A) (A) (A) (A)
                 (A) (A) (A) (A) (A) (A) (A) (A) (A) (A) (A) (A)
                 (A) (A) (A) (A) (A) (A) (A) (A) (A) (A) (A) (A)
                 (A) (A) (A) (A) (A) (A) (A) (A) (A) (A) (A) (A)
                 (A) (A) (A) (A) (A) (A) (A) (A) (A) (A) (A) (A)
                 (A) (A) (A) (A) (A) (A) (A) (A) (A) (A) (A) (A)
                 (A) (A) (A) (A) (A) (A) (A) (A) (A) (A) (A) (A)
                 (A) (A) (A) (A) (A) (A) (A) (A) (A) (A) (A) (A)
                 (A) (A) (A) (A) (A) (A) (A) (A) (A) (A) (A) (A)
                 (A) (A) (A) (A) (A) (A) (A) (A) (A) (A) (A) (A)
                 (A) (A) (A) (A) (A) (A) (A) (A) (A) (A) (A) (A)
                 (A) (A) (A) (A) (A) (A) (A) (A) (A) (A) (A) (A)
                 (A) (A) (A) (A) (A) (A) (A) (A) (A) (A) (A) (A)
                 (A) (A) (A) (A) (A) (A) (A) (A) (A) (A) (A) (A)
                 (A) (A) (A) (A) (A) (A) (A) (A) (A) (A) (A) (A)
                 (A) (A) (A) (A) (A) (A) (A) (A) (A) (A) (A) (A)
                 (A) (A) (A) (A) (A) (A) (A) (A) (A) (A) (A) (A)
                 (A) (A) (A) (A) (A) (A) (A) (A) (A) (A) (A) (A)
                 (A) (A) (A) (A) (A) (A) (A) (A) (A) (A) (A) (A)
                 (A) (A) (A) (A) (A) (A) (A)
 The electronic state is 1-A.
 Alpha  occ. eigenvalues -- -482.91293 -61.87323 -56.39014 -56.38679 -56.38651
 Alpha  occ. eigenvalues --  -19.21209 -19.19564 -14.37282 -10.35444 -10.31020
 Alpha  occ. eigenvalues --  -10.28750 -10.26476 -10.25851 -10.24945 -10.24296
 Alpha  occ. eigenvalues --  -10.22950 -10.20413 -10.20152 -10.19370 -10.19188
 Alpha  occ. eigenvalues --  -10.19145 -10.19019 -10.18992  -8.57935  -6.53132
 Alpha  occ. eigenvalues --   -6.51935  -6.51914  -2.64686  -2.64356  -2.64338
 Alpha  occ. eigenvalues --   -2.63384  -2.63384  -1.13752  -1.07731  -0.94109
 Alpha  occ. eigenvalues --   -0.86785  -0.84847  -0.83214  -0.80417  -0.78174
 Alpha  occ. eigenvalues --   -0.75561  -0.72404  -0.70794  -0.68625  -0.66321
 Alpha  occ. eigenvalues --   -0.65454  -0.61989  -0.59480  -0.56280  -0.55111
 Alpha  occ. eigenvalues --   -0.53701  -0.51365  -0.50566  -0.49737  -0.48826
 Alpha  occ. eigenvalues --   -0.47413  -0.46991  -0.46193  -0.45855  -0.44566
 Alpha  occ. eigenvalues --   -0.43895  -0.42991  -0.42244  -0.41754  -0.41212
 Alpha  occ. eigenvalues --   -0.39710  -0.39315  -0.38943  -0.38727  -0.38068
 Alpha  occ. eigenvalues --   -0.37829  -0.36727  -0.36037  -0.35428  -0.34867
 Alpha  occ. eigenvalues --   -0.34400  -0.32791  -0.32293  -0.32177  -0.32091
 Alpha  occ. eigenvalues --   -0.31191  -0.27951  -0.27711  -0.26084
 Alpha virt. eigenvalues --   -0.11841  -0.04762  -0.02064  -0.01461  -0.01027
 Alpha virt. eigenvalues --    0.00080   0.00524   0.00988   0.01203   0.02260
 Alpha virt. eigenvalues --    0.02518   0.02953   0.03223   0.03676   0.04376
 Alpha virt. eigenvalues --    0.04774   0.04827   0.05417   0.05737   0.06045
 Alpha virt. eigenvalues --    0.06717   0.06786   0.06918   0.07485   0.07692
 Alpha virt. eigenvalues --    0.07991   0.08222   0.08778   0.09063   0.09432
 Alpha virt. eigenvalues --    0.09543   0.09645   0.10000   0.10341   0.11335
 Alpha virt. eigenvalues --    0.11597   0.11824   0.11918   0.12233   0.12576
 Alpha virt. eigenvalues --    0.12875   0.12990   0.13337   0.14022   0.14259
 Alpha virt. eigenvalues --    0.14509   0.14601   0.15151   0.15452   0.15576
 Alpha virt. eigenvalues --    0.16161   0.16773   0.17041   0.17480   0.18032
 Alpha virt. eigenvalues --    0.18118   0.18438   0.19010   0.19224   0.19609
 Alpha virt. eigenvalues --    0.19701   0.20119   0.20299   0.20663   0.21075
 Alpha virt. eigenvalues --    0.21359   0.21794   0.21874   0.22330   0.22686
 Alpha virt. eigenvalues --    0.23011   0.23541   0.23826   0.24114   0.24490
 Alpha virt. eigenvalues --    0.24535   0.24935   0.25396   0.25685   0.25768
 Alpha virt. eigenvalues --    0.26421   0.26811   0.26826   0.27464   0.27656
 Alpha virt. eigenvalues --    0.28097   0.28629   0.28915   0.29125   0.29567
 Alpha virt. eigenvalues --    0.30191   0.30413   0.31392   0.32050   0.32276
 Alpha virt. eigenvalues --    0.33010   0.33645   0.33845   0.34579   0.35141
 Alpha virt. eigenvalues --    0.35979   0.36540   0.37150   0.37514   0.38213
 Alpha virt. eigenvalues --    0.39113   0.39705   0.40960   0.41460   0.42032
 Alpha virt. eigenvalues --    0.42696   0.43620   0.45682   0.46541   0.47217
 Alpha virt. eigenvalues --    0.47973   0.49174   0.50044   0.51488   0.51959
 Alpha virt. eigenvalues --    0.52419   0.53368   0.55648   0.56102   0.60921
 Alpha virt. eigenvalues --    0.62571   0.62774   0.63175   0.64039   0.65352
 Alpha virt. eigenvalues --    0.65549   0.65892   0.66376   0.66959   0.67786
 Alpha virt. eigenvalues --    0.68281   0.68757   0.69650   0.70345   0.70788
 Alpha virt. eigenvalues --    0.71765   0.73064   0.73114   0.73710   0.74261
 Alpha virt. eigenvalues --    0.75723   0.77289   0.78310   0.78695   0.78964
 Alpha virt. eigenvalues --    0.79139   0.80171   0.81656   0.82864   0.84416
 Alpha virt. eigenvalues --    0.85453   0.85575   0.86921   0.88621   0.89061
 Alpha virt. eigenvalues --    0.89861   0.90242   0.91368   0.93062   0.93651
 Alpha virt. eigenvalues --    0.94449   0.95966   0.96971   0.97650   0.98035
 Alpha virt. eigenvalues --    0.98570   0.99399   1.00106   1.00828   1.01626
 Alpha virt. eigenvalues --    1.03042   1.03366   1.04022   1.05242   1.06122
 Alpha virt. eigenvalues --    1.07108   1.07377   1.07934   1.08464   1.09687
 Alpha virt. eigenvalues --    1.11191   1.11874   1.13209   1.13860   1.14616
 Alpha virt. eigenvalues --    1.15039   1.16397   1.16681   1.17990   1.18707
 Alpha virt. eigenvalues --    1.20603   1.21062   1.22498   1.23519   1.25156
 Alpha virt. eigenvalues --    1.26299   1.27145   1.27511   1.28630   1.29687
 Alpha virt. eigenvalues --    1.30706   1.31176   1.32301   1.34588   1.35748
 Alpha virt. eigenvalues --    1.37506   1.38079   1.39522   1.39669   1.42076
 Alpha virt. eigenvalues --    1.43064   1.44604   1.45253   1.46163   1.47502
 Alpha virt. eigenvalues --    1.49901   1.51241   1.51647   1.53420   1.54405
 Alpha virt. eigenvalues --    1.54860   1.56723   1.57815   1.60940   1.63006
 Alpha virt. eigenvalues --    1.65035   1.66407   1.67403   1.69734   1.71405
 Alpha virt. eigenvalues --    1.71967   1.73392   1.74502   1.74849   1.76722
 Alpha virt. eigenvalues --    1.77378   1.79136   1.80693   1.80746   1.82540
 Alpha virt. eigenvalues --    1.83936   1.85558   1.86164   1.86994   1.87680
 Alpha virt. eigenvalues --    1.88365   1.89103   1.90264   1.91426   1.92635
 Alpha virt. eigenvalues --    1.92951   1.94368   1.95305   1.96285   1.98287
 Alpha virt. eigenvalues --    1.98991   1.99515   2.00309   2.01338   2.02216
 Alpha virt. eigenvalues --    2.03076   2.04778   2.06128   2.07378   2.08308
 Alpha virt. eigenvalues --    2.08820   2.09350   2.10816   2.11199   2.13165
 Alpha virt. eigenvalues --    2.13833   2.14112   2.15165   2.16165   2.17125
 Alpha virt. eigenvalues --    2.18820   2.19752   2.21447   2.23635   2.24672
 Alpha virt. eigenvalues --    2.26722   2.26896   2.27830   2.28964   2.29650
 Alpha virt. eigenvalues --    2.31115   2.31474   2.32204   2.35419   2.36124
 Alpha virt. eigenvalues --    2.37007   2.38683   2.39650   2.41531   2.41752
 Alpha virt. eigenvalues --    2.44513   2.46725   2.47503   2.47623   2.48549
 Alpha virt. eigenvalues --    2.49475   2.50985   2.52537   2.53164   2.54703
 Alpha virt. eigenvalues --    2.55347   2.58063   2.59651   2.62366   2.63111
 Alpha virt. eigenvalues --    2.64283   2.65447   2.67501   2.68378   2.70384
 Alpha virt. eigenvalues --    2.71747   2.71806   2.74241   2.74652   2.75278
 Alpha virt. eigenvalues --    2.76773   2.77262   2.79304   2.80240   2.81513
 Alpha virt. eigenvalues --    2.82682   2.83832   2.84660   2.85272   2.87171
 Alpha virt. eigenvalues --    2.88637   2.88860   2.89849   2.90585   2.91359
 Alpha virt. eigenvalues --    2.92151   2.94176   2.95143   2.96471   2.99584
 Alpha virt. eigenvalues --    3.05755   3.10211   3.16039   3.26523   3.27554
 Alpha virt. eigenvalues --    3.28082   3.28465   3.30424   3.31151   3.34846
 Alpha virt. eigenvalues --    3.36373   3.37121   3.38484   3.39722   3.40199
 Alpha virt. eigenvalues --    3.42210   3.44664   3.47303   3.48712   3.49810
 Alpha virt. eigenvalues --    3.52519   3.54660   3.56335   3.58722   3.60141
 Alpha virt. eigenvalues --    3.62464   4.25083   4.29104   4.30590   4.35620
 Alpha virt. eigenvalues --    4.38123   4.39536   4.44206   4.46761   4.51706
 Alpha virt. eigenvalues --    4.54680   4.57096   4.66194   4.71001   4.72832
 Alpha virt. eigenvalues --    4.73936   4.77203   4.86864   4.95354   8.89467
 Alpha virt. eigenvalues --   78.45393
          Condensed to atoms (all electrons):
               1          2          3          4          5          6
     1  C    7.341795   0.867293  -1.928959   0.016436  -0.704236   0.033069
     2  C    0.867293  14.345642  -4.402259   0.104988  -5.831172   1.840015
     3  C   -1.928959  -4.402259  12.186987  -0.054559   1.297248  -0.760669
     4  N    0.016436   0.104988  -0.054559   7.243043   0.153892   0.019220
     5  C   -0.704236  -5.831172   1.297248   0.153892  11.341438  -0.697621
     6  C    0.033069   1.840015  -0.760669   0.019220  -0.697621  10.720407
     7  C   -0.176603  -2.368223   1.068602  -0.037530   1.367763  -4.227929
     8  C    0.031060   0.508860  -0.285166  -0.016469  -0.369489   0.515351
     9  C   -0.010287  -0.104048   0.035515  -0.000380   0.047960  -0.466557
    10  C    0.003396  -0.005786  -0.012062   0.002597   0.027402   0.113217
    11  C   -0.008521  -0.000619  -0.009298  -0.001039  -0.003745   0.003574
    12  C    0.017076   0.018042  -0.008324  -0.000102   0.058741  -0.015850
    13  C    0.001687   0.019587  -0.017618   0.000804  -0.041764   0.009801
    14  C    0.000718  -0.010359   0.002315  -0.000065   0.008084  -0.017197
    15  C    0.000102  -0.000792  -0.000452   0.000009  -0.002940  -0.002738
    16  Br   0.000031   0.000228  -0.000147   0.000006  -0.000329  -0.002824
    17  C   -0.379838  -0.312422  -0.221721   0.014400  -0.783142  -0.701566
    18  O   -0.000591   0.044447   0.005747  -0.000144  -0.011199   0.081814
    19  O    0.078630   0.048319  -0.039538   0.001423   0.038106  -0.214039
    20  H    0.473373  -0.150531  -0.007431   0.000237   0.050977   0.002067
    21  H    0.401818  -0.125687   0.017890   0.000995   0.060980  -0.003945
    22  H   -0.000987   0.006480   0.000382   0.000058  -0.003143  -0.015518
    23  H    0.000648   0.006496   0.004267  -0.000166   0.000849  -0.015946
    24  H    0.003629   0.027995  -0.037246   0.003445   0.004997   0.039444
    25  H   -0.006379  -0.020255   0.013631  -0.001364  -0.003877   0.070119
    26  H   -0.000028  -0.005470   0.003011  -0.000071   0.004533  -0.065663
    27  H   -0.000267  -0.006275   0.001844  -0.000022   0.001809  -0.001423
    28  H    0.000134   0.002309  -0.001223   0.000033  -0.000575   0.008444
    29  H    0.000296  -0.018894   0.009249  -0.000859   0.020954  -0.087101
    30  H    0.000994  -0.002739  -0.000499  -0.000018   0.003703  -0.013862
    31  H    0.000576   0.114080  -0.033412   0.001628  -0.088680   0.060431
    32  H   -0.000447  -0.002244   0.000173   0.000006  -0.005099  -0.003375
    33  H    0.001309   0.005408  -0.000815   0.000004   0.000073   0.025674
    34  H    0.000005  -0.000284   0.000016  -0.000000  -0.000038   0.001875
    35  H   -0.000007   0.000343   0.000006  -0.000000  -0.000107   0.000573
    36  H   -0.000005  -0.000137   0.000030  -0.000000  -0.000095   0.001314
    37  H   -0.000011   0.000054   0.000011  -0.000000   0.000369  -0.002158
    38  H   -0.000000  -0.000001   0.000000  -0.000000  -0.000002   0.000030
    39  H    0.000000   0.000001  -0.000000   0.000000   0.000006  -0.000107
               7          8          9         10         11         12
     1  C   -0.176603   0.031060  -0.010287   0.003396  -0.008521   0.017076
     2  C   -2.368223   0.508860  -0.104048  -0.005786  -0.000619   0.018042
     3  C    1.068602  -0.285166   0.035515  -0.012062  -0.009298  -0.008324
     4  N   -0.037530  -0.016469  -0.000380   0.002597  -0.001039  -0.000102
     5  C    1.367763  -0.369489   0.047960   0.027402  -0.003745   0.058741
     6  C   -4.227929   0.515351  -0.466557   0.113217   0.003574  -0.015850
     7  C   11.458713  -0.870530   0.363903  -0.318587   0.086307   0.071974
     8  C   -0.870530   5.938995  -0.137009  -0.105539  -0.012354   0.019609
     9  C    0.363903  -0.137009   6.181428   0.016571  -0.137566   0.055702
    10  C   -0.318587  -0.105539   0.016571   6.153068  -0.154039  -0.250302
    11  C    0.086307  -0.012354  -0.137566  -0.154039   5.837674   0.430683
    12  C    0.071974   0.019609   0.055702  -0.250302   0.430683   6.049055
    13  C   -0.067294  -0.010459  -0.050385   0.217814  -0.506878  -0.498814
    14  C    0.036292  -0.003847  -0.069654  -0.014372   0.167644   0.038938
    15  C   -0.015867  -0.001393  -0.039474   0.081564  -0.082133  -0.258934
    16  Br  -0.006316  -0.000232  -0.024557   0.034842  -0.010024  -0.011369
    17  C   -0.171574   0.022562   0.012200  -0.067285   0.021947  -0.156412
    18  O   -0.057737  -0.005224  -0.006045  -0.000518  -0.003451  -0.004590
    19  O   -0.052925   0.011207  -0.021944  -0.006342   0.002071   0.006612
    20  H    0.003268  -0.000532  -0.000023   0.000248  -0.000134   0.000031
    21  H    0.001271  -0.000559   0.000053   0.000073  -0.000002  -0.000066
    22  H    0.279787  -0.016935  -0.004292   0.024225  -0.007504  -0.001738
    23  H   -0.063033   0.425346  -0.003762   0.014456  -0.001187  -0.000400
    24  H   -0.128365   0.444170   0.007323  -0.005039   0.000502   0.000706
    25  H   -0.192481   0.476958   0.001908   0.008619  -0.005268  -0.003157
    26  H    0.009760   0.014675   0.436822  -0.073631  -0.007199   0.028157
    27  H   -0.039318  -0.018234   0.393378  -0.044359   0.025525  -0.010215
    28  H    0.012805  -0.002075  -0.068330   0.405602  -0.034348  -0.024420
    29  H    0.067159   0.005924  -0.039484   0.394785  -0.036697   0.021409
    30  H    0.014356   0.001020   0.016685  -0.073249   0.421936  -0.054675
    31  H   -0.042188  -0.001274  -0.014152  -0.053241   0.395513  -0.084183
    32  H    0.007628  -0.000689  -0.006258   0.040560  -0.085220   0.368530
    33  H   -0.018473   0.000146   0.016107  -0.025944  -0.037124   0.393498
    34  H   -0.001807  -0.000020   0.002592  -0.007144   0.024977  -0.009616
    35  H    0.000374   0.000206   0.009553  -0.017599   0.013525  -0.086958
    36  H   -0.002202   0.000499   0.001846  -0.006844   0.005446  -0.006157
    37  H    0.002793   0.000142   0.003860  -0.005122   0.004637  -0.007786
    38  H   -0.000016  -0.000001  -0.001645   0.000490   0.002055  -0.005571
    39  H    0.000012   0.000009   0.000385   0.000826  -0.002377  -0.000293
              13         14         15         16         17         18
     1  C    0.001687   0.000718   0.000102   0.000031  -0.379838  -0.000591
     2  C    0.019587  -0.010359  -0.000792   0.000228  -0.312422   0.044447
     3  C   -0.017618   0.002315  -0.000452  -0.000147  -0.221721   0.005747
     4  N    0.000804  -0.000065   0.000009   0.000006   0.014400  -0.000144
     5  C   -0.041764   0.008084  -0.002940  -0.000329  -0.783142  -0.011199
     6  C    0.009801  -0.017197  -0.002738  -0.002824  -0.701566   0.081814
     7  C   -0.067294   0.036292  -0.015867  -0.006316  -0.171574  -0.057737
     8  C   -0.010459  -0.003847  -0.001393  -0.000232   0.022562  -0.005224
     9  C   -0.050385  -0.069654  -0.039474  -0.024557   0.012200  -0.006045
    10  C    0.217814  -0.014372   0.081564   0.034842  -0.067285  -0.000518
    11  C   -0.506878   0.167644  -0.082133  -0.010024   0.021947  -0.003451
    12  C   -0.498814   0.038938  -0.258934  -0.011369  -0.156412  -0.004590
    13  C    6.682212  -0.390455   0.268145  -0.034756   0.107232   0.004706
    14  C   -0.390455   6.198856  -0.268261  -0.113469  -0.042200  -0.002358
    15  C    0.268145  -0.268261   5.672572   0.316107   0.007661   0.000090
    16  Br  -0.034756  -0.113469   0.316107  35.096279  -0.000543  -0.000014
    17  C    0.107232  -0.042200   0.007661  -0.000543   7.895328   0.238593
    18  O    0.004706  -0.002358   0.000090  -0.000014   0.238593   8.175045
    19  O    0.002388  -0.000812  -0.000129  -0.000028   0.069365  -0.059836
    20  H    0.000023   0.000001   0.000000   0.000000  -0.019095   0.000045
    21  H   -0.000003  -0.000000  -0.000000   0.000000  -0.000078  -0.000004
    22  H   -0.000493   0.000060   0.000006   0.000014   0.006003  -0.000274
    23  H    0.000052   0.000117   0.000011   0.000005  -0.012834   0.000014
    24  H    0.000020  -0.000026   0.000000  -0.000001  -0.003348  -0.000012
    25  H    0.000167   0.000040  -0.000000   0.000010   0.016315  -0.000067
    26  H   -0.023022  -0.002716   0.000982  -0.000687  -0.013215   0.002136
    27  H    0.001245   0.004300   0.002068   0.000203   0.007858  -0.000121
    28  H    0.025188  -0.011463   0.001890   0.000699  -0.003350   0.000059
    29  H   -0.016441   0.002988   0.000031  -0.000376  -0.009713  -0.000005
    30  H   -0.006475   0.003127   0.000001   0.000050  -0.000372  -0.000004
    31  H    0.037709  -0.004271   0.000867  -0.000034   0.010268   0.000391
    32  H   -0.000450   0.005940   0.005351   0.000335   0.005584   0.000081
    33  H   -0.056799   0.021626  -0.004914  -0.000752  -0.017707   0.000643
    34  H    0.339919   0.002310  -0.033493   0.000606  -0.000208  -0.000030
    35  H    0.437098  -0.041587  -0.007008   0.002224   0.000043   0.000003
    36  H   -0.064875   0.392678  -0.003084  -0.005218   0.000132  -0.000119
    37  H   -0.045748   0.382933  -0.032539   0.008666   0.000583   0.000209
    38  H   -0.041594  -0.034809   0.410016  -0.030949  -0.000049  -0.000000
    39  H    0.048095  -0.106356   0.409508  -0.040180  -0.000014  -0.000000
              19         20         21         22         23         24
     1  C    0.078630   0.473373   0.401818  -0.000987   0.000648   0.003629
     2  C    0.048319  -0.150531  -0.125687   0.006480   0.006496   0.027995
     3  C   -0.039538  -0.007431   0.017890   0.000382   0.004267  -0.037246
     4  N    0.001423   0.000237   0.000995   0.000058  -0.000166   0.003445
     5  C    0.038106   0.050977   0.060980  -0.003143   0.000849   0.004997
     6  C   -0.214039   0.002067  -0.003945  -0.015518  -0.015946   0.039444
     7  C   -0.052925   0.003268   0.001271   0.279787  -0.063033  -0.128365
     8  C    0.011207  -0.000532  -0.000559  -0.016935   0.425346   0.444170
     9  C   -0.021944  -0.000023   0.000053  -0.004292  -0.003762   0.007323
    10  C   -0.006342   0.000248   0.000073   0.024225   0.014456  -0.005039
    11  C    0.002071  -0.000134  -0.000002  -0.007504  -0.001187   0.000502
    12  C    0.006612   0.000031  -0.000066  -0.001738  -0.000400   0.000706
    13  C    0.002388   0.000023  -0.000003  -0.000493   0.000052   0.000020
    14  C   -0.000812   0.000001  -0.000000   0.000060   0.000117  -0.000026
    15  C   -0.000129   0.000000  -0.000000   0.000006   0.000011   0.000000
    16  Br  -0.000028   0.000000   0.000000   0.000014   0.000005  -0.000001
    17  C    0.069365  -0.019095  -0.000078   0.006003  -0.012834  -0.003348
    18  O   -0.059836   0.000045  -0.000004  -0.000274   0.000014  -0.000012
    19  O    8.481814  -0.000262   0.000155  -0.000664   0.000012   0.000120
    20  H   -0.000262   0.482464  -0.027570   0.000000  -0.000000   0.000000
    21  H    0.000155  -0.027570   0.497286  -0.000000  -0.000000   0.000000
    22  H   -0.000664   0.000000  -0.000000   0.594040  -0.004318  -0.004024
    23  H    0.000012  -0.000000  -0.000000  -0.004318   0.547242  -0.025673
    24  H    0.000120   0.000000   0.000000  -0.004024  -0.025673   0.543937
    25  H    0.000004   0.000000   0.000000   0.004927  -0.026923  -0.028937
    26  H    0.000080  -0.000000  -0.000000  -0.003300   0.000076  -0.000133
    27  H    0.000013  -0.000000  -0.000000  -0.007165   0.003172   0.000062
    28  H    0.000012   0.000000  -0.000000  -0.000135  -0.000029  -0.000000
    29  H   -0.000056  -0.000000  -0.000000  -0.000009  -0.000294   0.000038
    30  H   -0.000016   0.000000  -0.000000   0.000003  -0.000001  -0.000000
    31  H    0.001328  -0.000000  -0.000001  -0.000029   0.000009  -0.000002
    32  H   -0.000367  -0.000000   0.000000   0.000000   0.000000  -0.000000
    33  H    0.000134   0.000000  -0.000000   0.000006   0.000000   0.000000
    34  H   -0.000004  -0.000000  -0.000000  -0.000000   0.000000   0.000000
    35  H    0.000003  -0.000000   0.000000   0.000000  -0.000000   0.000000
    36  H   -0.000003  -0.000000   0.000000  -0.000000  -0.000000   0.000000
    37  H    0.000009  -0.000000   0.000000  -0.000000  -0.000000  -0.000000
    38  H    0.000000  -0.000000   0.000000   0.000000  -0.000000   0.000000
    39  H   -0.000000   0.000000  -0.000000  -0.000000   0.000000  -0.000000
              25         26         27         28         29         30
     1  C   -0.006379  -0.000028  -0.000267   0.000134   0.000296   0.000994
     2  C   -0.020255  -0.005470  -0.006275   0.002309  -0.018894  -0.002739
     3  C    0.013631   0.003011   0.001844  -0.001223   0.009249  -0.000499
     4  N   -0.001364  -0.000071  -0.000022   0.000033  -0.000859  -0.000018
     5  C   -0.003877   0.004533   0.001809  -0.000575   0.020954   0.003703
     6  C    0.070119  -0.065663  -0.001423   0.008444  -0.087101  -0.013862
     7  C   -0.192481   0.009760  -0.039318   0.012805   0.067159   0.014356
     8  C    0.476958   0.014675  -0.018234  -0.002075   0.005924   0.001020
     9  C    0.001908   0.436822   0.393378  -0.068330  -0.039484   0.016685
    10  C    0.008619  -0.073631  -0.044359   0.405602   0.394785  -0.073249
    11  C   -0.005268  -0.007199   0.025525  -0.034348  -0.036697   0.421936
    12  C   -0.003157   0.028157  -0.010215  -0.024420   0.021409  -0.054675
    13  C    0.000167  -0.023022   0.001245   0.025188  -0.016441  -0.006475
    14  C    0.000040  -0.002716   0.004300  -0.011463   0.002988   0.003127
    15  C   -0.000000   0.000982   0.002068   0.001890   0.000031   0.000001
    16  Br   0.000010  -0.000687   0.000203   0.000699  -0.000376   0.000050
    17  C    0.016315  -0.013215   0.007858  -0.003350  -0.009713  -0.000372
    18  O   -0.000067   0.002136  -0.000121   0.000059  -0.000005  -0.000004
    19  O    0.000004   0.000080   0.000013   0.000012  -0.000056  -0.000016
    20  H    0.000000  -0.000000  -0.000000   0.000000  -0.000000   0.000000
    21  H    0.000000  -0.000000  -0.000000  -0.000000  -0.000000  -0.000000
    22  H    0.004927  -0.003300  -0.007165  -0.000135  -0.000009   0.000003
    23  H   -0.026923   0.000076   0.003172  -0.000029  -0.000294  -0.000001
    24  H   -0.028937  -0.000133   0.000062  -0.000000   0.000038  -0.000000
    25  H    0.527609  -0.000043  -0.000111   0.000003  -0.000241   0.000005
    26  H   -0.000043   0.574528  -0.030904  -0.002799   0.005217   0.000042
    27  H   -0.000111  -0.030904   0.582668  -0.005317  -0.002605  -0.000117
    28  H    0.000003  -0.002799  -0.005317   0.576811  -0.031591  -0.003709
    29  H   -0.000241   0.005217  -0.002605  -0.031591   0.589795  -0.004147
    30  H    0.000005   0.000042  -0.000117  -0.003709  -0.004147   0.589263
    31  H    0.000114  -0.000118  -0.000035   0.005656  -0.003920  -0.031794
    32  H    0.000000  -0.000055   0.000001  -0.000008  -0.000136  -0.004155
    33  H    0.000000   0.000452  -0.000016   0.000058   0.000005   0.005419
    34  H   -0.000000  -0.000005   0.000000  -0.000005   0.000003   0.000176
    35  H   -0.000000   0.000016   0.000001   0.001218  -0.000062   0.003029
    36  H   -0.000000  -0.000013   0.000044   0.000460   0.000071   0.000041
    37  H   -0.000000   0.000114   0.000002   0.000130  -0.000002  -0.000004
    38  H   -0.000000  -0.000000   0.000000   0.000001   0.000000  -0.000000
    39  H    0.000000   0.000001  -0.000000  -0.000012   0.000000   0.000000
              31         32         33         34         35         36
     1  C    0.000576  -0.000447   0.001309   0.000005  -0.000007  -0.000005
     2  C    0.114080  -0.002244   0.005408  -0.000284   0.000343  -0.000137
     3  C   -0.033412   0.000173  -0.000815   0.000016   0.000006   0.000030
     4  N    0.001628   0.000006   0.000004  -0.000000  -0.000000  -0.000000
     5  C   -0.088680  -0.005099   0.000073  -0.000038  -0.000107  -0.000095
     6  C    0.060431  -0.003375   0.025674   0.001875   0.000573   0.001314
     7  C   -0.042188   0.007628  -0.018473  -0.001807   0.000374  -0.002202
     8  C   -0.001274  -0.000689   0.000146  -0.000020   0.000206   0.000499
     9  C   -0.014152  -0.006258   0.016107   0.002592   0.009553   0.001846
    10  C   -0.053241   0.040560  -0.025944  -0.007144  -0.017599  -0.006844
    11  C    0.395513  -0.085220  -0.037124   0.024977   0.013525   0.005446
    12  C   -0.084183   0.368530   0.393498  -0.009616  -0.086958  -0.006157
    13  C    0.037709  -0.000450  -0.056799   0.339919   0.437098  -0.064875
    14  C   -0.004271   0.005940   0.021626   0.002310  -0.041587   0.392678
    15  C    0.000867   0.005351  -0.004914  -0.033493  -0.007008  -0.003084
    16  Br  -0.000034   0.000335  -0.000752   0.000606   0.002224  -0.005218
    17  C    0.010268   0.005584  -0.017707  -0.000208   0.000043   0.000132
    18  O    0.000391   0.000081   0.000643  -0.000030   0.000003  -0.000119
    19  O    0.001328  -0.000367   0.000134  -0.000004   0.000003  -0.000003
    20  H   -0.000000  -0.000000   0.000000  -0.000000  -0.000000  -0.000000
    21  H   -0.000001   0.000000  -0.000000  -0.000000   0.000000   0.000000
    22  H   -0.000029   0.000000   0.000006  -0.000000   0.000000  -0.000000
    23  H    0.000009   0.000000   0.000000   0.000000  -0.000000  -0.000000
    24  H   -0.000002  -0.000000   0.000000   0.000000   0.000000   0.000000
    25  H    0.000114   0.000000   0.000000  -0.000000  -0.000000  -0.000000
    26  H   -0.000118  -0.000055   0.000452  -0.000005   0.000016  -0.000013
    27  H   -0.000035   0.000001  -0.000016   0.000000   0.000001   0.000044
    28  H    0.005656  -0.000008   0.000058  -0.000005   0.001218   0.000460
    29  H   -0.003920  -0.000136   0.000005   0.000003  -0.000062   0.000071
    30  H   -0.031794  -0.004155   0.005419   0.000176   0.003029   0.000041
    31  H    0.610553  -0.003929  -0.003004  -0.000167   0.000269  -0.000058
    32  H   -0.003929   0.586285  -0.033030  -0.008837   0.000843  -0.000005
    33  H   -0.003004  -0.033030   0.587778   0.001014   0.004414  -0.000558
    34  H   -0.000167  -0.008837   0.001014   0.584651  -0.032158   0.005102
    35  H    0.000269   0.000843   0.004414  -0.032158   0.557041  -0.003702
    36  H   -0.000058  -0.000005  -0.000558   0.005102  -0.003702   0.562668
    37  H    0.000013   0.000153   0.002561  -0.006804   0.004976  -0.032969
    38  H   -0.000000  -0.000003  -0.000004   0.003825  -0.000273   0.004671
    39  H   -0.000000   0.000002  -0.000008  -0.000044   0.000022  -0.003969
              37         38         39
     1  C   -0.000011  -0.000000   0.000000
     2  C    0.000054  -0.000001   0.000001
     3  C    0.000011   0.000000  -0.000000
     4  N   -0.000000  -0.000000   0.000000
     5  C    0.000369  -0.000002   0.000006
     6  C   -0.002158   0.000030  -0.000107
     7  C    0.002793  -0.000016   0.000012
     8  C    0.000142  -0.000001   0.000009
     9  C    0.003860  -0.001645   0.000385
    10  C   -0.005122   0.000490   0.000826
    11  C    0.004637   0.002055  -0.002377
    12  C   -0.007786  -0.005571  -0.000293
    13  C   -0.045748  -0.041594   0.048095
    14  C    0.382933  -0.034809  -0.106356
    15  C   -0.032539   0.410016   0.409508
    16  Br   0.008666  -0.030949  -0.040180
    17  C    0.000583  -0.000049  -0.000014
    18  O    0.000209  -0.000000  -0.000000
    19  O    0.000009   0.000000  -0.000000
    20  H   -0.000000  -0.000000   0.000000
    21  H    0.000000   0.000000  -0.000000
    22  H   -0.000000   0.000000  -0.000000
    23  H   -0.000000  -0.000000   0.000000
    24  H   -0.000000   0.000000  -0.000000
    25  H   -0.000000  -0.000000   0.000000
    26  H    0.000114  -0.000000   0.000001
    27  H    0.000002   0.000000  -0.000000
    28  H    0.000130   0.000001  -0.000012
    29  H   -0.000002   0.000000   0.000000
    30  H   -0.000004  -0.000000   0.000000
    31  H    0.000013  -0.000000  -0.000000
    32  H    0.000153  -0.000003   0.000002
    33  H    0.002561  -0.000004  -0.000008
    34  H   -0.006804   0.003825  -0.000044
    35  H    0.004976  -0.000273   0.000022
    36  H   -0.032969   0.004671  -0.003969
    37  H    0.572630  -0.002159  -0.003180
    38  H   -0.002159   0.555047  -0.033707
    39  H   -0.003180  -0.033707   0.555081
 Mulliken charges:
               1
     1  C   -0.056909
     2  C    1.407612
     3  C   -0.825527
     4  N   -0.450438
     5  C    0.057371
     6  C   -0.230348
     7  C    0.006228
     8  C   -0.558709
     9  C   -0.397938
    10  C   -0.293353
    11  C   -0.297288
    12  C   -0.078830
    13  C   -0.329570
    14  C   -0.134687
    15  C   -0.422833
    16  Br  -0.177499
    17  C    0.480610
    18  O   -0.401679
    19  O   -0.344841
    20  H    0.192845
    21  H    0.177392
    22  H    0.154539
    23  H    0.151795
    24  H    0.156419
    25  H    0.168675
    26  H    0.148469
    27  H    0.142309
    28  H    0.147875
    29  H    0.134708
    30  H    0.135985
    31  H    0.125093
    32  H    0.132836
    33  H    0.132817
    34  H    0.133593
    35  H    0.153678
    36  H    0.155013
    37  H    0.153639
    38  H    0.174650
    39  H    0.176300
 Sum of Mulliken charges =  -0.00000
 Mulliken charges with hydrogens summed into heavy atoms:
               1
     1  C    0.313328
     2  C    1.407612
     3  C   -0.825527
     4  N   -0.450438
     5  C    0.057371
     6  C   -0.230348
     7  C    0.160766
     8  C   -0.081820
     9  C   -0.107160
    10  C   -0.010770
    11  C   -0.036210
    12  C    0.186823
    13  C   -0.042300
    14  C    0.173964
    15  C   -0.071884
    16  Br  -0.177499
    17  C    0.480610
    18  O   -0.401679
    19  O   -0.344841
 Electronic spatial extent (au):  <R**2>=           9738.5640
 Charge=             -0.0000 electrons
 Dipole moment (field-independent basis, Debye):
    X=             -1.6012    Y=              1.4933    Z=             -0.4239  Tot=              2.2301
 Quadrupole moment (field-independent basis, Debye-Ang):
   XX=           -130.4125   YY=           -144.6658   ZZ=           -125.8587
   XY=             -0.6450   XZ=              4.6636   YZ=             -8.6776
 Traceless Quadrupole moment (field-independent basis, Debye-Ang):
   XX=              3.2332   YY=            -11.0202   ZZ=              7.7869
   XY=             -0.6450   XZ=              4.6636   YZ=             -8.6776
 Octapole moment (field-independent basis, Debye-Ang**2):
  XXX=             25.0566  YYY=             -1.2493  ZZZ=              2.8930  XYY=            131.3914
  XXY=            103.5396  XXZ=            -28.2086  XZZ=             36.0108  YZZ=             -3.1549
  YYZ=             -0.8125  XYZ=             27.4358
 Hexadecapole moment (field-independent basis, Debye-Ang**3):
 XXXX=          -9237.7542 YYYY=          -1801.5175 ZZZZ=          -1002.7748 XXXY=           -362.6638
 XXXZ=            236.8033 YYYX=           -241.3827 YYYZ=            -65.4066 ZZZX=             -1.8671
 ZZZY=            -10.1239 XXYY=          -2021.7518 XXZZ=          -1624.8750 YYZZ=           -459.0131
 XXYZ=           -103.5690 YYXZ=            -36.3796 ZZXY=            -51.8379
 N-N= 1.739164791963D+03 E-N=-1.144141042420D+04  KE= 3.336868068796D+03
 Unable to Open any file for archive entry.
 1\1\GINC-N2\SP\RB3LYP TD-FC\6-31+G(d,p)\C15H20Br1N1O2\HPCMGAC13\29-Jul
 -2025\0\\# td=(50-50,nstates=3) b3lyp/6-31+g(d,p) geom=connectivity\\T
 itle Card Required\\0,1\C,0,-5.404089,0.699294,-1.496251\C,0,-4.54772,
 -0.062398,-0.775183\C,0,-4.644224,-1.495928,-0.838572\N,0,-4.755453,-2
 .649948,-0.923142\C,0,-3.528935,0.557751,0.046132\C,0,-2.503296,0.3261
 67,0.905821\C,0,-1.75553,-0.729217,1.659663\C,0,-2.35347,-2.136995,1.5
 3959\C,0,-0.218535,-0.691749,1.391116\C,0,0.300429,-1.277659,0.063632\
 C,0,0.017338,-0.482259,-1.225033\C,0,0.657895,0.916172,-1.3386\C,0,2.2
 0407,0.933031,-1.323368\C,0,2.816785,1.250066,0.048952\C,0,4.335091,1.
 208823,0.085251\Br,0,5.038459,-0.644321,-0.077023\C,0,-2.367062,1.8168
 75,0.954447\O,0,-1.721973,2.677037,1.464744\O,0,-3.455609,1.989898,0.0
 31688\H,0,-5.335526,1.779959,-1.457662\H,0,-6.166138,0.244143,-2.11814
 3\H,0,-1.854211,-0.427486,2.714618\H,0,-1.786854,-2.829939,2.17003\H,0
 ,-3.39484,-2.157062,1.874066\H,0,-2.326483,-2.519031,0.516947\H,0,0.12
 7762,0.340703,1.514791\H,0,0.241788,-1.261282,2.208652\H,0,1.384581,-1
 .411693,0.164213\H,0,-0.099619,-2.291263,-0.062224\H,0,0.371594,-1.085
 641,-2.07216\H,0,-1.065348,-0.382038,-1.366954\H,0,0.30875,1.35302,-2.
 282181\H,0,0.276802,1.580334,-0.551728\H,0,2.568159,1.686375,-2.034239
 \H,0,2.586941,-0.030796,-1.681524\H,0,2.421939,0.585925,0.824151\H,0,2
 .523775,2.270641,0.339607\H,0,4.794063,1.763737,-0.73459\H,0,4.733143,
 1.564949,1.035098\\Version=ES64L-G16RevC.02\State=1-A\HF=-3360.5380244
 \RMSD=6.067e-09\PG=C01 [X(C15H20Br1N1O2)]\\@
 The archive entry for this job was punched.


 ABOVE ALL I AM AN OPTIMIST FOR NUMBER THEORY,
 AND I HOLD THE HOPE THAT WE MAY NOT BE FAR FROM
 A TIME WHEN IRREFUTABLE ARITHMETIC WILL CELEBRATE
 ITS TRIUMPHS IN PHYSICS AND CHEMISTRY.
   -- HERMANN MINKOWSKI, 1905
 Job cpu time:       0 days  1 hours  8 minutes 51.5 seconds.
 Elapsed time:       0 days  0 hours  4 minutes 26.0 seconds.
 File lengths (MBytes):  RWF=   1236 Int=      0 D2E=      0 Chk=     58 Scr=      2
 Normal termination of Gaussian 16 at Tue Jul 29 22:39:50 2025.
