 Entering Gaussian System, Link 0=g16
 Input=M2628E.gjf
 Output=M2628E.log
 Initial command:
 /hpc/softwares/Gaussian/g16/l1.exe "/hpc/home/hpcmgac13/pbs.12413.admin1.x8z/Gau-1030475.inp" -scrdir="/hpc/home/hpcmgac13/pbs.12413.admin1.x8z/"
 Default linda workers: n2
 Default is to use  16 SMP processors on each worker.
 Entering Link 1 = /hpc/softwares/Gaussian/g16/l1.exe PID=   1030476.
  
 Copyright (c) 1988-2021, Gaussian, Inc.  All Rights Reserved.
  
 This is part of the Gaussian(R) 16 program.  It is based on
 the Gaussian(R) 09 system (copyright 2009, Gaussian, Inc.),
 the Gaussian(R) 03 system (copyright 2003, Gaussian, Inc.),
 the Gaussian(R) 98 system (copyright 1998, Gaussian, Inc.),
 the Gaussian(R) 94 system (copyright 1995, Gaussian, Inc.),
 the Gaussian 92(TM) system (copyright 1992, Gaussian, Inc.),
 the Gaussian 90(TM) system (copyright 1990, Gaussian, Inc.),
 the Gaussian 88(TM) system (copyright 1988, Gaussian, Inc.),
 the Gaussian 86(TM) system (copyright 1986, Carnegie Mellon
 University), and the Gaussian 82(TM) system (copyright 1983,
 Carnegie Mellon University). Gaussian is a federally registered
 trademark of Gaussian, Inc.
  
 This software contains proprietary and confidential information,
 including trade secrets, belonging to Gaussian, Inc.
  
 This software is provided under written license and may be
 used, copied, transmitted, or stored only in accord with that
 written license.
  
 The following legend is applicable only to US Government
 contracts under FAR:
  
                    RESTRICTED RIGHTS LEGEND
  
 Use, reproduction and disclosure by the US Government is
 subject to restrictions as set forth in subparagraphs (a)
 and (c) of the Commercial Computer Software - Restricted
 Rights clause in FAR 52.227-19.
  
 Gaussian, Inc.
 340 Quinnipiac St., Bldg. 40, Wallingford CT 06492
  
  
 ---------------------------------------------------------------
 Warning -- This program may not be used in any manner that
 competes with the business of Gaussian, Inc. or will provide
 assistance to any competitor of Gaussian, Inc.  The licensee
 of this program is prohibited from giving any competitor of
 Gaussian, Inc. access to this program.  By using this program,
 the user acknowledges that Gaussian, Inc. is engaged in the
 business of creating and licensing software in the field of
 computational chemistry and represents and warrants to the
 licensee that it is not a competitor of Gaussian, Inc. and that
 it will not use this program in any manner prohibited above.
 ---------------------------------------------------------------
  

 Cite this work as:
 Gaussian 16, Revision C.02,
 M. J. Frisch, G. W. Trucks, H. B. Schlegel, G. E. Scuseria, 
 M. A. Robb, J. R. Cheeseman, G. Scalmani, V. Barone, 
 G. A. Petersson, H. Nakatsuji, X. Li, M. Caricato, A. V. Marenich, 
 J. Bloino, B. G. Janesko, R. Gomperts, B. Mennucci, H. P. Hratchian, 
 J. V. Ortiz, A. F. Izmaylov, J. L. Sonnenberg, D. Williams-Young, 
 F. Ding, F. Lipparini, F. Egidi, J. Goings, B. Peng, A. Petrone, 
 T. Henderson, D. Ranasinghe, V. G. Zakrzewski, J. Gao, N. Rega, 
 G. Zheng, W. Liang, M. Hada, M. Ehara, K. Toyota, R. Fukuda, 
 J. Hasegawa, M. Ishida, T. Nakajima, Y. Honda, O. Kitao, H. Nakai, 
 T. Vreven, K. Throssell, J. A. Montgomery, Jr., J. E. Peralta, 
 F. Ogliaro, M. J. Bearpark, J. J. Heyd, E. N. Brothers, K. N. Kudin, 
 V. N. Staroverov, T. A. Keith, R. Kobayashi, J. Normand, 
 K. Raghavachari, A. P. Rendell, J. C. Burant, S. S. Iyengar, 
 J. Tomasi, M. Cossi, J. M. Millam, M. Klene, C. Adamo, R. Cammi, 
 J. W. Ochterski, R. L. Martin, K. Morokuma, O. Farkas, 
 J. B. Foresman, and D. J. Fox, Gaussian, Inc., Wallingford CT, 2019.
 
 ******************************************
 Gaussian 16:  ES64L-G16RevC.02  7-Dec-2021
                29-Jul-2025 
 ******************************************
 SetLPE:    new flags="-opt 'Tsnet.Node.lindarsharg: ssh'  -nodelist 'n2.head.cm.mguif.local' -env GAUSS_MDEF=2147483648 -env GAUSS_EXEDIR="/hpc/softwares/Gaussian/g16/bsd:/hpc/softwares/Gaussian/g16""
 Will use up to    1 processors via Linda.
 ----------------------------------------------------------
 # td=(50-50,nstates=3) b3lyp/6-31+g(d,p) geom=connectivity
 ----------------------------------------------------------
 1/38=1,57=2,172=1/1;
 2/12=2,17=6,18=5,40=1/2;
 3/5=1,6=6,7=111,11=9,25=1,30=1,74=-5/1,2,3,8;
 4//1;
 5/5=2,38=5/2;
 8/6=1,10=2,108=3/1;
 9/41=3,42=1,48=2,70=2/14;
 6/7=2,8=2,9=2,10=2/1;
 99/5=1,9=1/99;
 -------------------
 Title Card Required
 -------------------
 Symbolic Z-matrix:
 Charge =  0 Multiplicity = 1
 C                     4.24257   0.25201   0.02817 
 C                     2.73306   0.15375   0.02709 
 C                     1.94126   1.308    -0.04603 
 C                     0.51816   1.32533  -0.04772 
 C                    -0.26871   2.60998  -0.12526 
 C                    -0.02628   0.06027   0.0239 
 C                     0.73481  -1.11417   0.08889 
 C                     2.11052  -1.11951   0.10093 
 C                    -0.56072  -1.89107   0.09733 
 O                    -0.9646   -3.01907   0.01155 
 N                    -1.29487  -0.6401    0.16004 
 C                    -2.52841  -0.4313   -0.57745 
 C                    -3.39246   0.58479   0.04583 
 N                    -4.06881   1.40299   0.51494 
 H                     4.66952  -0.18723   0.93725 
 H                     4.67674  -0.28268  -0.8248 
 H                     4.57476   1.29222  -0.02695 
 H                     2.44932   2.26905  -0.09388 
 H                     0.32642   3.4509    0.24193 
 H                    -0.5598    2.84186  -1.15714 
 H                    -1.18483   2.55785   0.46993 
 H                     2.69778  -2.03139   0.15328 
 H                    -2.34889  -0.13778  -1.62372 
 H                    -3.06131  -1.38887  -0.5873 
 
                          Input orientation:                          
 ---------------------------------------------------------------------
 Center     Atomic      Atomic             Coordinates (Angstroms)
 Number     Number       Type             X           Y           Z
 ---------------------------------------------------------------------
      1          6           0        4.242573    0.252005    0.028174
      2          6           0        2.733060    0.153746    0.027093
      3          6           0        1.941259    1.307996   -0.046029
      4          6           0        0.518157    1.325328   -0.047721
      5          6           0       -0.268712    2.609981   -0.125259
      6          6           0       -0.026278    0.060265    0.023904
      7          6           0        0.734811   -1.114167    0.088889
      8          6           0        2.110521   -1.119509    0.100927
      9          6           0       -0.560718   -1.891067    0.097326
     10          8           0       -0.964597   -3.019072    0.011554
     11          7           0       -1.294870   -0.640100    0.160040
     12          6           0       -2.528408   -0.431295   -0.577450
     13          6           0       -3.392456    0.584786    0.045832
     14          7           0       -4.068812    1.402991    0.514942
     15          1           0        4.669515   -0.187230    0.937248
     16          1           0        4.676741   -0.282681   -0.824800
     17          1           0        4.574761    1.292217   -0.026948
     18          1           0        2.449321    2.269049   -0.093880
     19          1           0        0.326420    3.450896    0.241925
     20          1           0       -0.559802    2.841859   -1.157143
     21          1           0       -1.184831    2.557845    0.469925
     22          1           0        2.697778   -2.031392    0.153281
     23          1           0       -2.348891   -0.137784   -1.623720
     24          1           0       -3.061314   -1.388868   -0.587300
 ---------------------------------------------------------------------
                    Distance matrix (angstroms):
                    1          2          3          4          5
     1  C    0.000000
     2  C    1.512708   0.000000
     3  C    2.533115   1.401638   0.000000
     4  C    3.876733   2.506790   1.423209   0.000000
     5  C    5.092670   3.881615   2.566206   1.508479   0.000000
     6  C    4.273157   2.760923   2.330864   1.379103   2.565556
     7  C    3.764905   2.367366   2.709353   2.452904   3.862926
     8  C    2.536137   1.419220   2.437832   2.921463   4.429560
     9  C    5.260147   3.877521   4.063797   3.395616   4.515999
    10  O    6.149377   4.872339   5.212565   4.590848   5.673554
    11  N    5.610393   4.107565   3.782866   2.682003   3.420149
    12  C    6.832266   5.328301   4.825501   3.556388   3.815765
    13  C    7.642298   6.140692   5.383306   3.981212   3.726723
    14  N    8.404810   6.932826   6.036942   4.622002   4.038247
    15  H    1.096185   2.166681   3.262808   4.526784   5.774028
    16  H    1.096337   2.166584   3.258773   4.525855   5.771859
    17  H    1.093356   2.165848   2.633618   4.056792   5.020498
    18  H    2.701688   2.137674   1.088136   2.149915   2.739511
    19  H    5.061111   4.087697   2.698637   2.153763   1.093684
    20  H    5.583469   4.412630   3.137294   2.166259   1.096944
    21  H    5.913439   4.617972   3.405990   2.165000   1.093726
    22  H    2.759700   2.189063   3.429804   4.007333   5.515432
    23  H    6.806474   5.351299   4.794244   3.583913   3.758024
    24  H    7.511194   6.027595   5.708922   4.524447   4.899276
                    6          7          8          9         10
     6  C    0.000000
     7  C    1.400989   0.000000
     8  C    2.442071   1.375773   0.000000
     9  C    2.024528   1.510642   2.780437   0.000000
    10  O    3.219148   2.553944   3.615616   1.201195   0.000000
    11  N    1.455462   2.085523   3.439479   1.451837   2.406374
    12  C    2.619907   3.399841   4.738512   2.541272   3.080425
    13  C    3.406869   4.463477   5.761112   3.761813   4.345511
    14  N    4.287903   5.439890   6.687195   4.830315   5.426250
    15  H    4.790190   4.130475   2.849040   5.564519   6.373340
    16  H    4.791273   4.130982   2.853548   5.555916   6.325505
    17  H    4.763387   4.533136   3.450399   6.043334   7.019486
    18  H    3.319818   3.797249   3.411020   5.138430   6.295250
    19  H    3.415890   4.585848   4.908309   5.417056   6.601536
    20  H    3.068678   4.344970   4.940223   4.896354   5.990010
    21  H    2.789101   4.160996   4.951610   4.507900   5.600054
    22  H    3.436895   2.167646   1.085883   3.261996   3.795865
    23  H    2.854544   3.659996   4.881040   3.038678   3.590573
    24  H    3.418333   3.865651   5.224374   2.640814   2.722575
                   11         12         13         14         15
    11  N    0.000000
    12  C    1.452276   0.000000
    13  C    2.431719   1.472236   0.000000
    14  N    3.463370   2.632636   1.160595   0.000000
    15  H    6.031835   7.359618   8.147761   8.891879   0.000000
    16  H    6.062821   7.210925   8.162257   9.006725   1.764646
    17  H    6.182344   7.329977   7.998894   8.661251   1.768450
    18  H    4.748325   5.683615   6.081334   6.603543   3.467822
    19  H    4.401311   4.888029   4.699264   4.856595   5.708057
    20  H    3.794646   3.863288   3.816472   4.144799   6.395906
    21  H    3.214808   3.440516   2.991057   3.106938   6.482838
    22  H    4.228117   5.514281   6.629245   7.596876   2.811278
    23  H    2.131920   1.101388   2.097269   3.147378   7.471213
    24  H    2.059003   1.095916   2.099005   3.166144   7.970815
                   16         17         18         19         20
    16  H    0.000000
    17  H    1.768409   0.000000
    18  H    3.465107   2.340123   0.000000
    19  H    5.831191   4.772902   2.452802   0.000000
    20  H    6.106929   5.481101   3.242447   1.764570   0.000000
    21  H    6.641003   5.917905   3.688948   1.770142   1.765977
    22  H    2.816190   3.821246   4.314697   5.973833   6.006464
    23  H    7.072395   7.247865   5.581764   4.849386   3.506680
    24  H    7.820329   8.112450   6.632565   5.965540   4.947862
                   21         22         23         24
    21  H    0.000000
    22  H    6.019636   0.000000
    23  H    3.606217   5.675593   0.000000
    24  H    4.496160   5.841955   1.773957   0.000000
 Stoichiometry    C11H10N2O
 Framework group  C1[X(C11H10N2O)]
 Deg. of freedom    66
 Full point group                 C1      NOp   1
 Largest Abelian subgroup         C1      NOp   1
 Largest concise Abelian subgroup C1      NOp   1
                         Standard orientation:                         
 ---------------------------------------------------------------------
 Center     Atomic      Atomic             Coordinates (Angstroms)
 Number     Number       Type             X           Y           Z
 ---------------------------------------------------------------------
      1          6           0        4.242573   -0.252005   -0.028174
      2          6           0        2.733060   -0.153746   -0.027093
      3          6           0        1.941259   -1.307996    0.046029
      4          6           0        0.518157   -1.325328    0.047721
      5          6           0       -0.268712   -2.609981    0.125259
      6          6           0       -0.026278   -0.060265   -0.023904
      7          6           0        0.734811    1.114167   -0.088889
      8          6           0        2.110521    1.119509   -0.100927
      9          6           0       -0.560718    1.891067   -0.097326
     10          8           0       -0.964597    3.019072   -0.011554
     11          7           0       -1.294870    0.640100   -0.160040
     12          6           0       -2.528408    0.431295    0.577450
     13          6           0       -3.392456   -0.584786   -0.045832
     14          7           0       -4.068812   -1.402991   -0.514942
     15          1           0        4.669515    0.187230   -0.937248
     16          1           0        4.676741    0.282681    0.824800
     17          1           0        4.574761   -1.292217    0.026948
     18          1           0        2.449321   -2.269049    0.093880
     19          1           0        0.326420   -3.450896   -0.241925
     20          1           0       -0.559802   -2.841859    1.157143
     21          1           0       -1.184831   -2.557845   -0.469925
     22          1           0        2.697778    2.031392   -0.153281
     23          1           0       -2.348891    0.137784    1.623720
     24          1           0       -3.061314    1.388868    0.587300
 ---------------------------------------------------------------------
 Rotational constants (GHZ):           1.1564546           0.4988198           0.3557933
 Standard basis: 6-31+G(d,p) (6D, 7F)
 There are   316 symmetry adapted cartesian basis functions of A   symmetry.
 There are   316 symmetry adapted basis functions of A   symmetry.
   316 basis functions,   518 primitive gaussians,   316 cartesian basis functions
    49 alpha electrons       49 beta electrons
       nuclear repulsion energy       805.8824680107 Hartrees.
 NAtoms=   24 NActive=   24 NUniq=   24 SFac= 1.00D+00 NAtFMM=   60 NAOKFM=F Big=F
 Integral buffers will be    131072 words long.
 Regular integral format.
 Two-electron integral symmetry is turned on.
 One-electron integrals computed using PRISM.
 NBasis=   316 RedAO= T EigKep=  1.08D-06  NBF=   316
 NBsUse=   315 1.00D-06 EigRej=  5.22D-07 NBFU=   315
 ExpMin= 4.38D-02 ExpMax= 5.48D+03 ExpMxC= 8.25D+02 IAcc=3 IRadAn=         5 AccDes= 0.00D+00
 Harris functional with IExCor=  402 and IRadAn=       5 diagonalized for initial guess.
 HarFok:  IExCor=  402 AccDes= 0.00D+00 IRadAn=         5 IDoV= 1 UseB2=F ITyADJ=14
 ICtDFT=  3500011 ScaDFX=  1.000000  1.000000  1.000000  1.000000
 FoFCou: FMM=F IPFlag=           0 FMFlag=      100000 FMFlg1=           0
         NFxFlg=           0 DoJE=T BraDBF=F KetDBF=T FulRan=T
         wScrn=  0.000000 ICntrl=       500 IOpCl=  0 I1Cent=   200000004 NGrid=           0
         NMat0=    1 NMatS0=      1 NMatT0=    0 NMatD0=    1 NMtDS0=    0 NMtDT0=    0
 Petite list used in FoFCou.
 Requested convergence on RMS density matrix=1.00D-08 within 128 cycles.
 Requested convergence on MAX density matrix=1.00D-06.
 Requested convergence on             energy=1.00D-06.
 No special actions if energy rises.
 SCF Done:  E(RB3LYP) =  -609.900590873     A.U. after   17 cycles
            NFock= 17  Conv=0.32D-08     -V/T= 2.0096
 DoSCS=F DFT=T ScalE2(SS,OS)=  1.000000  1.000000
 ExpMin= 4.38D-02 ExpMax= 5.48D+03 ExpMxC= 8.25D+02 IAcc=3 IRadAn=         5 AccDes= 0.00D+00
 HarFok:  IExCor=  205 AccDes= 0.00D+00 IRadAn=         5 IDoV=-2 UseB2=F ITyADJ=14
 ICtDFT= 12500011 ScaDFX=  1.000000  1.000000  1.000000  1.000000
 Range of M.O.s used for correlation:    15   315
 NBasis=   316 NAE=    49 NBE=    49 NFC=    14 NFV=     0
 NROrb=    301 NOA=    35 NOB=    35 NVA=   266 NVB=   266

 **** Warning!!: The largest alpha MO coefficient is  0.22889551D+03

 Orbital symmetries:
       Occupied  (A) (A) (A) (A) (A) (A) (A) (A) (A) (A) (A) (A)
                 (A) (A) (A) (A) (A) (A) (A) (A) (A) (A) (A) (A)
                 (A) (A) (A) (A) (A) (A) (A) (A) (A) (A) (A) (A)
                 (A) (A) (A) (A) (A) (A) (A) (A) (A) (A) (A) (A)
                 (A)
       Virtual   (A) (A) (A) (A) (A) (A) (A) (A) (A) (A) (A) (A)
                 (A) (A) (A) (A) (A) (A) (A) (A) (A) (A) (A) (A)
                 (A) (A) (A) (A) (A) (A) (A) (A) (A) (A) (A) (A)
                 (A) (A) (A) (A) (A) (A) (A) (A) (A) (A) (A) (A)
                 (A) (A) (A) (A) (A) (A) (A) (A) (A) (A) (A) (A)
                 (A) (A) (A) (A) (A) (A) (A) (A) (A) (A) (A) (A)
                 (A) (A) (A) (A) (A) (A) (A) (A) (A) (A) (A) (A)
                 (A) (A) (A) (A) (A) (A) (A) (A) (A) (A) (A) (A)
                 (A) (A) (A) (A) (A) (A) (A) (A) (A) (A) (A) (A)
                 (A) (A) (A) (A) (A) (A) (A) (A) (A) (A) (A) (A)
                 (A) (A) (A) (A) (A) (A) (A) (A) (A) (A) (A) (A)
                 (A) (A) (A) (A) (A) (A) (A) (A) (A) (A) (A) (A)
                 (A) (A) (A) (A) (A) (A) (A) (A) (A) (A) (A) (A)
                 (A) (A) (A) (A) (A) (A) (A) (A) (A) (A) (A) (A)
                 (A) (A) (A) (A) (A) (A) (A) (A) (A) (A) (A) (A)
                 (A) (A) (A) (A) (A) (A) (A) (A) (A) (A) (A) (A)
                 (A) (A) (A) (A) (A) (A) (A) (A) (A) (A) (A) (A)
                 (A) (A) (A) (A) (A) (A) (A) (A) (A) (A) (A) (A)
                 (A) (A) (A) (A) (A) (A) (A) (A) (A) (A) (A) (A)
                 (A) (A) (A) (A) (A) (A) (A) (A) (A) (A) (A) (A)
                 (A) (A) (A) (A) (A) (A) (A) (A) (A) (A) (A) (A)
                 (A) (A) (A) (A) (A) (A) (A) (A) (A) (A) (A) (A)
                 (A) (A)
    24 initial guesses have been made.
 Convergence on wavefunction:    0.001000000000000
 Iteration     1 Dimension    24 NMult     0 NNew     24
 CISAX will form    24 AO SS matrices at one time.
 New state      1 was old state      2
 New state      2 was old state      1
 New state      3 was old state      4
 New state      4 was old state      6
 New state      5 was old state      8
 New state      6 was old state      7
 New state      7 was old state      5
 New state      8 was old state     16
 New state      9 was old state     10
 New state     10 was old state     18
 New state     11 was old state      9
 Vector   5 SDiff=3.84D+00 TDiff=4.18D+00 assumed to be singlet.
 Vector  11 SDiff=4.00D+00 TDiff=3.73D+00 assumed to be triplet.
 Iteration     2 Dimension    36 NMult    24 NNew     12
 New state      2 was old state      3
 New state      3 was old state      2
 New state      5 was old state      6
 New state      6 was old state      7
 Iteration     3 Dimension    48 NMult    36 NNew     12
 Iteration     4 Dimension    60 NMult    48 NNew     12
 Iteration     5 Dimension    72 NMult    60 NNew     12
 Iteration     6 Dimension    76 NMult    72 NNew      4
 ***********************************************************************
 Excited states from <AA,BB:AA,BB> singles matrix:
 ***********************************************************************
 
 Ground to excited state transition densities written to RWF  633
 Ground to excited state transition electric dipole moments (Au):
       state          X           Y           Z        Dip. S.      Osc.
         1         0.0000     -0.0000      0.0000      0.0000      0.0000
         2        -0.0000      0.0000      0.0000      0.0000      0.0000
         3         0.0760     -0.2929      0.0162      0.0918      0.0078
         4        -0.0000     -0.0000     -0.0000      0.0000      0.0000
         5        -0.0210      0.0823     -0.0210      0.0077      0.0009
         6         0.0175     -0.0494      0.0504      0.0053      0.0006
 Ground to excited state transition velocity dipole moments (Au):
       state          X           Y           Z        Dip. S.      Osc.
         1         0.0000      0.0000     -0.0000      0.0000      0.0000
         2         0.0000     -0.0000     -0.0000      0.0000      0.0000
         3        -0.0072      0.0386     -0.0002      0.0015      0.0081
         4         0.0000      0.0000      0.0000      0.0000      0.0000
         5         0.0050     -0.0138      0.0065      0.0003      0.0010
         6        -0.0015      0.0047     -0.0109      0.0001      0.0006
 Ground to excited state transition magnetic dipole moments (Au):
       state          X           Y           Z
         1        -0.0000      0.0000     -0.0000
         2        -0.0000      0.0000     -0.0000
         3        -0.0273     -0.0038      1.0567
         4         0.0000     -0.0000     -0.0000
         5         0.3593     -0.6364      0.0129
         6        -0.2527      0.2440      0.4705
 Ground to excited state transition velocity quadrupole moments (Au):
       state          XX          YY          ZZ          XY          XZ          YZ
         1         0.0000      0.0000      0.0000     -0.0000     -0.0000     -0.0000
         2        -0.0000      0.0000      0.0000     -0.0000     -0.0000     -0.0000
         3         0.2260     -0.1785      0.0176      0.1668     -0.0118      0.0212
         4        -0.0000     -0.0000     -0.0000     -0.0000     -0.0000     -0.0000
         5        -0.0490      0.0730     -0.0213     -0.0439      0.0568      0.0298
         6         0.0194      0.1834     -0.0526     -0.0155      0.0075     -0.0285
 <0|del|b> * <b|rxdel|0> + <0|del|b> * <b|delr+rdel|0>
 Rotatory Strengths (R) in cgs (10**-40 erg-esu-cm/Gauss)
       state          XX          YY          ZZ    R(velocity)    E-M Angle
         1         0.0000     -0.0000     -0.0000      0.0000       90.00
         2         0.0000      0.0000      0.0000      0.0000       90.00
         3         0.2531     -0.3202     -0.6951     -0.2541       90.19
         4        -0.0000      0.0000      0.0000     -0.0000       90.00
         5        19.3817      4.8056     19.9795     14.7223       24.51
         6        -7.8795     -9.9461      3.0881     -4.9125      120.95
 1/2[<0|r|b>*<b|rxdel|0> + (<0|rxdel|b>*<b|r|0>)*]
 Rotatory Strengths (R) in cgs (10**-40 erg-esu-cm/Gauss)
       state          XX          YY          ZZ     R(length)
         1         0.0000      0.0000      0.0000      0.0000
         2        -0.0000     -0.0000      0.0000     -0.0000
         3         1.4697     -0.7803    -12.0888     -3.7998
         4         0.0000     -0.0000     -0.0000     -0.0000
         5         5.3355     37.0275      0.1920     14.1850
         6         3.1185      8.5329    -16.7662     -1.7050
  1/2[<0|del|b>*<b|r|0> + (<0|r|b>*<b|del|0>)*] (Au)
       state          X           Y           Z        Dip. S.   Osc.(frdel)
         1         0.0000     -0.0000     -0.0000      0.0000      0.0000
         2        -0.0000     -0.0000     -0.0000      0.0000      0.0000
         3        -0.0005     -0.0113     -0.0000      0.0119      0.0079
         4        -0.0000     -0.0000     -0.0000      0.0000      0.0000
         5        -0.0001     -0.0011     -0.0001      0.0014      0.0009
         6        -0.0000     -0.0002     -0.0006      0.0008      0.0005

 Excitation energies and oscillator strengths:
 
 Excited State   1:      Triplet-A      2.7971 eV  443.26 nm  f=0.0000  <S**2>=2.000
      48 -> 50         0.15542
      49 -> 50         0.67046
      49 -> 51         0.13225
 This state for optimization and/or second-order correction.
 Total Energy, E(TD-HF/TD-DFT) =  -609.797798866    
 Copying the excited state density for this state as the 1-particle RhoCI density.
 
 Excited State   2:      Triplet-A      3.4358 eV  360.86 nm  f=0.0000  <S**2>=2.000
      48 -> 50         0.52467
      48 -> 51        -0.10776
      49 -> 50        -0.21580
      49 -> 51         0.35858
 
 Excited State   3:      Singlet-A      3.4676 eV  357.55 nm  f=0.0078  <S**2>=0.000
      49 -> 50         0.69735
 
 Excited State   4:      Triplet-A      3.9195 eV  316.32 nm  f=0.0000  <S**2>=2.000
      48 -> 50        -0.41888
      49 -> 51         0.54309
      49 -> 52        -0.11223
 
 Excited State   5:      Singlet-A      4.6447 eV  266.94 nm  f=0.0009  <S**2>=0.000
      47 -> 50         0.63626
      48 -> 50         0.19776
      49 -> 51         0.16890
 
 Excited State   6:      Singlet-A      4.7266 eV  262.31 nm  f=0.0006  <S**2>=0.000
      46 -> 50        -0.13557
      47 -> 50        -0.25169
      48 -> 50         0.46082
      49 -> 51         0.43025
 SavETr:  write IOETrn=   770 NScale= 10 NData=  16 NLR=1 NState=    6 LETran=     118.

 **********************************************************************

            Population analysis using the SCF Density.

 **********************************************************************

 Orbital symmetries:
       Occupied  (A) (A) (A) (A) (A) (A) (A) (A) (A) (A) (A) (A)
                 (A) (A) (A) (A) (A) (A) (A) (A) (A) (A) (A) (A)
                 (A) (A) (A) (A) (A) (A) (A) (A) (A) (A) (A) (A)
                 (A) (A) (A) (A) (A) (A) (A) (A) (A) (A) (A) (A)
                 (A)
       Virtual   (A) (A) (A) (A) (A) (A) (A) (A) (A) (A) (A) (A)
                 (A) (A) (A) (A) (A) (A) (A) (A) (A) (A) (A) (A)
                 (A) (A) (A) (A) (A) (A) (A) (A) (A) (A) (A) (A)
                 (A) (A) (A) (A) (A) (A) (A) (A) (A) (A) (A) (A)
                 (A) (A) (A) (A) (A) (A) (A) (A) (A) (A) (A) (A)
                 (A) (A) (A) (A) (A) (A) (A) (A) (A) (A) (A) (A)
                 (A) (A) (A) (A) (A) (A) (A) (A) (A) (A) (A) (A)
                 (A) (A) (A) (A) (A) (A) (A) (A) (A) (A) (A) (A)
                 (A) (A) (A) (A) (A) (A) (A) (A) (A) (A) (A) (A)
                 (A) (A) (A) (A) (A) (A) (A) (A) (A) (A) (A) (A)
                 (A) (A) (A) (A) (A) (A) (A) (A) (A) (A) (A) (A)
                 (A) (A) (A) (A) (A) (A) (A) (A) (A) (A) (A) (A)
                 (A) (A) (A) (A) (A) (A) (A) (A) (A) (A) (A) (A)
                 (A) (A) (A) (A) (A) (A) (A) (A) (A) (A) (A) (A)
                 (A) (A) (A) (A) (A) (A) (A) (A) (A) (A) (A) (A)
                 (A) (A) (A) (A) (A) (A) (A) (A) (A) (A) (A) (A)
                 (A) (A) (A) (A) (A) (A) (A) (A) (A) (A) (A) (A)
                 (A) (A) (A) (A) (A) (A) (A) (A) (A) (A) (A) (A)
                 (A) (A) (A) (A) (A) (A) (A) (A) (A) (A) (A) (A)
                 (A) (A) (A) (A) (A) (A) (A) (A) (A) (A) (A) (A)
                 (A) (A) (A) (A) (A) (A) (A) (A) (A) (A) (A) (A)
                 (A) (A) (A) (A) (A) (A) (A) (A) (A) (A) (A) (A)
                 (A) (A)
 The electronic state is 1-A.
 Alpha  occ. eigenvalues --  -19.18009 -14.39557 -14.35899 -10.33411 -10.29148
 Alpha  occ. eigenvalues --  -10.25329 -10.25031 -10.23081 -10.22544 -10.22495
 Alpha  occ. eigenvalues --  -10.22154 -10.21954 -10.20487 -10.20295  -1.08888
 Alpha  occ. eigenvalues --   -1.00146  -0.92564  -0.88163  -0.82713  -0.80747
 Alpha  occ. eigenvalues --   -0.75402  -0.71472  -0.68836  -0.66693  -0.60021
 Alpha  occ. eigenvalues --   -0.56709  -0.55518  -0.53367  -0.51642  -0.49304
 Alpha  occ. eigenvalues --   -0.48212  -0.46109  -0.45441  -0.44411  -0.43824
 Alpha  occ. eigenvalues --   -0.43232  -0.43151  -0.41717  -0.39704  -0.38200
 Alpha  occ. eigenvalues --   -0.37724  -0.37240  -0.36846  -0.35376  -0.34799
 Alpha  occ. eigenvalues --   -0.32051  -0.29985  -0.27723  -0.23699
 Alpha virt. eigenvalues --   -0.07827  -0.03107  -0.01067  -0.00190   0.00299
 Alpha virt. eigenvalues --    0.01085   0.01220   0.01835   0.02369   0.02984
 Alpha virt. eigenvalues --    0.03202   0.03815   0.04964   0.05097   0.05669
 Alpha virt. eigenvalues --    0.06198   0.06883   0.07459   0.07875   0.08145
 Alpha virt. eigenvalues --    0.08735   0.09084   0.09545   0.10253   0.10845
 Alpha virt. eigenvalues --    0.11843   0.12074   0.12302   0.12694   0.13571
 Alpha virt. eigenvalues --    0.13830   0.14372   0.14752   0.15011   0.15440
 Alpha virt. eigenvalues --    0.16458   0.16729   0.17366   0.17771   0.18065
 Alpha virt. eigenvalues --    0.18541   0.19443   0.19562   0.20124   0.20616
 Alpha virt. eigenvalues --    0.21152   0.21414   0.22672   0.23220   0.23282
 Alpha virt. eigenvalues --    0.23811   0.24031   0.24491   0.24714   0.24819
 Alpha virt. eigenvalues --    0.25494   0.25913   0.26633   0.27130   0.27234
 Alpha virt. eigenvalues --    0.27808   0.28488   0.28781   0.29232   0.29617
 Alpha virt. eigenvalues --    0.30499   0.31237   0.32163   0.32414   0.32614
 Alpha virt. eigenvalues --    0.33790   0.33853   0.34786   0.35382   0.35761
 Alpha virt. eigenvalues --    0.37026   0.38037   0.39096   0.40336   0.41476
 Alpha virt. eigenvalues --    0.42531   0.45024   0.53193   0.55891   0.57867
 Alpha virt. eigenvalues --    0.59678   0.64222   0.64866   0.66837   0.67994
 Alpha virt. eigenvalues --    0.68461   0.69047   0.69967   0.71116   0.71536
 Alpha virt. eigenvalues --    0.72247   0.72445   0.73324   0.74447   0.75766
 Alpha virt. eigenvalues --    0.76957   0.78417   0.78693   0.79330   0.79460
 Alpha virt. eigenvalues --    0.80512   0.82957   0.83636   0.84755   0.85504
 Alpha virt. eigenvalues --    0.87612   0.89084   0.89311   0.91978   0.92706
 Alpha virt. eigenvalues --    0.93646   0.94058   0.97455   0.97585   0.99607
 Alpha virt. eigenvalues --    1.01126   1.01656   1.02241   1.04287   1.07226
 Alpha virt. eigenvalues --    1.08146   1.09056   1.11263   1.13033   1.13542
 Alpha virt. eigenvalues --    1.14550   1.15051   1.16698   1.17709   1.19799
 Alpha virt. eigenvalues --    1.21553   1.23754   1.23997   1.25702   1.26315
 Alpha virt. eigenvalues --    1.27134   1.27459   1.28627   1.29306   1.30935
 Alpha virt. eigenvalues --    1.33063   1.34000   1.36401   1.37649   1.39834
 Alpha virt. eigenvalues --    1.41312   1.46641   1.49634   1.52457   1.53177
 Alpha virt. eigenvalues --    1.54013   1.55991   1.57327   1.60731   1.65801
 Alpha virt. eigenvalues --    1.67537   1.68889   1.68935   1.71148   1.72249
 Alpha virt. eigenvalues --    1.73045   1.75201   1.78389   1.79024   1.80296
 Alpha virt. eigenvalues --    1.81734   1.83775   1.85610   1.88007   1.89868
 Alpha virt. eigenvalues --    1.91027   1.93073   1.94442   1.98142   1.99549
 Alpha virt. eigenvalues --    1.99949   2.01896   2.02280   2.03161   2.04034
 Alpha virt. eigenvalues --    2.04301   2.05914   2.07881   2.10009   2.10285
 Alpha virt. eigenvalues --    2.12168   2.12764   2.13629   2.15636   2.16373
 Alpha virt. eigenvalues --    2.17393   2.20205   2.23119   2.24467   2.26438
 Alpha virt. eigenvalues --    2.27043   2.28290   2.31520   2.34448   2.36238
 Alpha virt. eigenvalues --    2.38466   2.41237   2.44830   2.45976   2.47644
 Alpha virt. eigenvalues --    2.50068   2.54186   2.55874   2.56299   2.58742
 Alpha virt. eigenvalues --    2.59761   2.61965   2.62804   2.65050   2.67490
 Alpha virt. eigenvalues --    2.69367   2.70936   2.73495   2.75355   2.80114
 Alpha virt. eigenvalues --    2.80947   2.82274   2.83499   2.84658   2.86610
 Alpha virt. eigenvalues --    2.87377   2.90993   2.95451   2.97066   2.98386
 Alpha virt. eigenvalues --    3.04434   3.13968   3.14223   3.19687   3.22730
 Alpha virt. eigenvalues --    3.23710   3.24929   3.28244   3.35344   3.39475
 Alpha virt. eigenvalues --    3.41572   3.41897   3.44511   3.45592   3.46926
 Alpha virt. eigenvalues --    3.48934   3.67685   4.20322   4.27142   4.27902
 Alpha virt. eigenvalues --    4.33984   4.35508   4.40562   4.42428   4.46892
 Alpha virt. eigenvalues --    4.51237   4.59730   4.60794   4.74602   4.81443
 Alpha virt. eigenvalues --    4.99551
          Condensed to atoms (all electrons):
               1          2          3          4          5          6
     1  C    6.938613  -0.982067  -1.299171   0.532902   0.011228  -0.456841
     2  C   -0.982067   8.203654  -0.378120   0.742729  -0.216421  -1.098099
     3  C   -1.299171  -0.378120  14.913896   1.382000  -1.073523  -2.665634
     4  C    0.532902   0.742729   1.382000  18.255856  -2.055738  -3.570526
     5  C    0.011228  -0.216421  -1.073523  -2.055738   7.156805   0.309716
     6  C   -0.456841  -1.098099  -2.665634  -3.570526   0.309716  17.204583
     7  C   -1.029029  -0.101963  -1.318982  -9.791466   0.734142  -1.619845
     8  C    1.691578   0.620384  -4.471413   1.830078   0.584336  -4.344161
     9  C   -0.375674  -0.652230   1.151635  -0.896993  -0.155171   2.228999
    10  O    0.003450  -0.002066  -0.018194  -0.003471  -0.001596  -0.237939
    11  N    0.004619  -0.010084  -0.091097  -0.491769  -0.003703   0.074599
    12  C   -0.005384  -0.052507   0.262547   0.856164  -0.141728  -0.132282
    13  C    0.000818   0.015013  -0.178441  -0.826096   0.088606   0.228637
    14  N    0.000025  -0.001760  -0.000275  -0.038219   0.019098  -0.000290
    15  H    0.468760  -0.144044   0.027037   0.001904   0.000577  -0.005789
    16  H    0.457230  -0.124066   0.029603  -0.014405  -0.000125  -0.000069
    17  H    0.532283  -0.094392  -0.101741   0.003713   0.000052  -0.015742
    18  H   -0.030055   0.016407   0.159622   0.029128  -0.004066   0.087932
    19  H   -0.003631  -0.004855  -0.053922  -0.159864   0.515297   0.055333
    20  H   -0.000272  -0.013736  -0.107012  -0.237898   0.503810   0.146219
    21  H   -0.000249  -0.015868   0.036933  -0.114715   0.499581  -0.059957
    22  H   -0.012420  -0.002129   0.093932  -0.002574  -0.000342   0.044741
    23  H   -0.000581  -0.007484   0.023175   0.080867  -0.026432  -0.028774
    24  H    0.000090   0.000889   0.000364  -0.011280   0.003393  -0.000203
               7          8          9         10         11         12
     1  C   -1.029029   1.691578  -0.375674   0.003450   0.004619  -0.005384
     2  C   -0.101963   0.620384  -0.652230  -0.002066  -0.010084  -0.052507
     3  C   -1.318982  -4.471413   1.151635  -0.018194  -0.091097   0.262547
     4  C   -9.791466   1.830078  -0.896993  -0.003471  -0.491769   0.856164
     5  C    0.734142   0.584336  -0.155171  -0.001596  -0.003703  -0.141728
     6  C   -1.619845  -4.344161   2.228999  -0.237939   0.074599  -0.132282
     7  C   23.638626  -1.886283  -2.581793   0.352331  -0.264652  -1.039624
     8  C   -1.886283  16.516522  -4.478865   0.182199  -0.158084  -0.136881
     9  C   -2.581793  -4.478865  10.847428  -0.002458   0.508067   0.230949
    10  O    0.352331   0.182199  -0.002458   8.303357  -0.076799  -0.041071
    11  N   -0.264652  -0.158084   0.508067  -0.076799   7.876599  -0.011657
    12  C   -1.039624  -0.136881   0.230949  -0.041071  -0.011657   5.804975
    13  C    0.701790   0.082606  -0.134653   0.013378  -0.017474  -0.373631
    14  N    0.007082   0.000419   0.002743  -0.000054  -0.005103   0.020621
    15  H   -0.004905   0.005206  -0.000647  -0.000001   0.000098   0.000101
    16  H    0.020792  -0.020636   0.000271  -0.000001  -0.000068  -0.000132
    17  H   -0.037333   0.069181  -0.001908   0.000001  -0.000033   0.000014
    18  H    0.025812  -0.002648   0.006290  -0.000000  -0.000604   0.000432
    19  H    0.004185   0.000045   0.001013  -0.000002  -0.000443  -0.001241
    20  H    0.051119   0.007743  -0.000336  -0.000018  -0.001130   0.005137
    21  H    0.003382   0.005520  -0.001758   0.000028   0.005795  -0.005248
    22  H   -0.040636   0.236950  -0.013616   0.002093  -0.004307   0.000333
    23  H   -0.027333  -0.002080  -0.010774   0.003381  -0.077016   0.465381
    24  H    0.005882  -0.001858   0.018240   0.002103  -0.054645   0.453431
              13         14         15         16         17         18
     1  C    0.000818   0.000025   0.468760   0.457230   0.532283  -0.030055
     2  C    0.015013  -0.001760  -0.144044  -0.124066  -0.094392   0.016407
     3  C   -0.178441  -0.000275   0.027037   0.029603  -0.101741   0.159622
     4  C   -0.826096  -0.038219   0.001904  -0.014405   0.003713   0.029128
     5  C    0.088606   0.019098   0.000577  -0.000125   0.000052  -0.004066
     6  C    0.228637  -0.000290  -0.005789  -0.000069  -0.015742   0.087932
     7  C    0.701790   0.007082  -0.004905   0.020792  -0.037333   0.025812
     8  C    0.082606   0.000419   0.005206  -0.020636   0.069181  -0.002648
     9  C   -0.134653   0.002743  -0.000647   0.000271  -0.001908   0.006290
    10  O    0.013378  -0.000054  -0.000001  -0.000001   0.000001  -0.000000
    11  N   -0.017474  -0.005103   0.000098  -0.000068  -0.000033  -0.000604
    12  C   -0.373631   0.020621   0.000101  -0.000132   0.000014   0.000432
    13  C    5.847150   0.376713  -0.000006  -0.000006  -0.000002  -0.000117
    14  N    0.376713   7.113673   0.000000  -0.000000  -0.000000   0.000000
    15  H   -0.000006   0.000000   0.539977  -0.031336  -0.025706   0.000175
    16  H   -0.000006  -0.000000  -0.031336   0.540707  -0.025866   0.000136
    17  H   -0.000002  -0.000000  -0.025706  -0.025866   0.542353   0.004039
    18  H   -0.000117   0.000000   0.000175   0.000136   0.004039   0.582083
    19  H    0.000498  -0.000074  -0.000000   0.000000  -0.000000   0.003093
    20  H   -0.006884   0.000756   0.000000  -0.000000  -0.000000   0.000291
    21  H    0.007334  -0.000980  -0.000000  -0.000000   0.000000   0.000090
    22  H   -0.000086   0.000000   0.000823   0.000839   0.000068  -0.000144
    23  H   -0.092641  -0.001852  -0.000000   0.000000   0.000000   0.000000
    24  H   -0.085121   0.000829  -0.000000   0.000000   0.000000  -0.000000
              19         20         21         22         23         24
     1  C   -0.003631  -0.000272  -0.000249  -0.012420  -0.000581   0.000090
     2  C   -0.004855  -0.013736  -0.015868  -0.002129  -0.007484   0.000889
     3  C   -0.053922  -0.107012   0.036933   0.093932   0.023175   0.000364
     4  C   -0.159864  -0.237898  -0.114715  -0.002574   0.080867  -0.011280
     5  C    0.515297   0.503810   0.499581  -0.000342  -0.026432   0.003393
     6  C    0.055333   0.146219  -0.059957   0.044741  -0.028774  -0.000203
     7  C    0.004185   0.051119   0.003382  -0.040636  -0.027333   0.005882
     8  C    0.000045   0.007743   0.005520   0.236950  -0.002080  -0.001858
     9  C    0.001013  -0.000336  -0.001758  -0.013616  -0.010774   0.018240
    10  O   -0.000002  -0.000018   0.000028   0.002093   0.003381   0.002103
    11  N   -0.000443  -0.001130   0.005795  -0.004307  -0.077016  -0.054645
    12  C   -0.001241   0.005137  -0.005248   0.000333   0.465381   0.453431
    13  C    0.000498  -0.006884   0.007334  -0.000086  -0.092641  -0.085121
    14  N   -0.000074   0.000756  -0.000980   0.000000  -0.001852   0.000829
    15  H   -0.000000   0.000000  -0.000000   0.000823  -0.000000  -0.000000
    16  H    0.000000  -0.000000  -0.000000   0.000839   0.000000   0.000000
    17  H   -0.000000  -0.000000   0.000000   0.000068   0.000000   0.000000
    18  H    0.003093   0.000291   0.000090  -0.000144   0.000000  -0.000000
    19  H    0.536797  -0.027284  -0.022621  -0.000000   0.000008   0.000000
    20  H   -0.027284   0.539678  -0.028197  -0.000000  -0.000257  -0.000001
    21  H   -0.022621  -0.028197   0.509523  -0.000000   0.000046   0.000017
    22  H   -0.000000  -0.000000  -0.000000   0.548417   0.000000  -0.000000
    23  H    0.000008  -0.000257   0.000046   0.000000   0.547463  -0.026482
    24  H    0.000000  -0.000001   0.000017  -0.000000  -0.026482   0.480646
 Mulliken charges:
               1
     1  C   -0.446222
     2  C    0.302816
     3  C   -0.323217
     4  C    0.499672
     5  C   -0.747795
     6  C   -0.144608
     7  C    0.198702
     8  C   -0.329858
     9  C    0.311243
    10  O   -0.478650
    11  N   -0.201110
    12  C   -0.158699
    13  C    0.352615
    14  N   -0.493353
    15  H    0.167775
    16  H    0.167132
    17  H    0.151021
    18  H    0.122103
    19  H    0.157668
    20  H    0.168272
    21  H    0.181344
    22  H    0.148058
    23  H    0.181385
    24  H    0.213708
 Sum of Mulliken charges =  -0.00000
 Mulliken charges with hydrogens summed into heavy atoms:
               1
     1  C    0.039706
     2  C    0.302816
     3  C   -0.201115
     4  C    0.499672
     5  C   -0.240511
     6  C   -0.144608
     7  C    0.198702
     8  C   -0.181800
     9  C    0.311243
    10  O   -0.478650
    11  N   -0.201110
    12  C    0.236394
    13  C    0.352615
    14  N   -0.493353
 Electronic spatial extent (au):  <R**2>=           3006.7095
 Charge=              0.0000 electrons
 Dipole moment (field-independent basis, Debye):
    X=              4.1714    Y=             -1.2013    Z=              2.1289  Tot=              4.8349
 Quadrupole moment (field-independent basis, Debye-Ang):
   XX=            -86.7738   YY=            -90.2545   ZZ=            -82.8929
   XY=             -6.3136   XZ=             -7.4108   YZ=             -1.4328
 Traceless Quadrupole moment (field-independent basis, Debye-Ang):
   XX=             -0.1335   YY=             -3.6141   ZZ=              3.7475
   XY=             -6.3136   XZ=             -7.4108   YZ=             -1.4328
 Octapole moment (field-independent basis, Debye-Ang**2):
  XXX=             93.2191  YYY=            -33.6890  ZZZ=              4.0003  XYY=             32.3203
  XXY=             47.4061  XXZ=             23.5595  XZZ=             -5.2415  YZZ=              5.7955
  YYZ=              2.0938  XYZ=              3.9761
 Hexadecapole moment (field-independent basis, Debye-Ang**3):
 XXXX=          -3059.7729 YYYY=          -1302.4379 ZZZZ=           -139.4690 XXXY=           -201.0007
 XXXZ=            -94.3453 YYYX=             -4.7207 YYYZ=             -5.7624 ZZZX=            -11.1473
 ZZZY=             -2.8019 XXYY=           -714.9067 XXZZ=           -504.6541 YYZZ=           -222.7964
 XXYZ=            -22.2139 YYXZ=            -13.4905 ZZXY=             -5.8428
 N-N= 8.058824680107D+02 E-N=-3.026825378920D+03  KE= 6.041162364668D+02
 Unable to Open any file for archive entry.
 1\1\GINC-N2\SP\RB3LYP TD-FC\6-31+G(d,p)\C11H10N2O1\HPCMGAC13\29-Jul-20
 25\0\\# td=(50-50,nstates=3) b3lyp/6-31+g(d,p) geom=connectivity\\Titl
 e Card Required\\0,1\C,0,4.242573,0.252005,0.028174\C,0,2.73306,0.1537
 46,0.027093\C,0,1.941259,1.307996,-0.046029\C,0,0.518157,1.325328,-0.0
 47721\C,0,-0.268712,2.609981,-0.125259\C,0,-0.026278,0.060265,0.023904
 \C,0,0.734811,-1.114167,0.088889\C,0,2.110521,-1.119509,0.100927\C,0,-
 0.560718,-1.891067,0.097326\O,0,-0.964597,-3.019072,0.011554\N,0,-1.29
 487,-0.6401,0.16004\C,0,-2.528408,-0.431295,-0.57745\C,0,-3.392456,0.5
 84786,0.045832\N,0,-4.068812,1.402991,0.514942\H,0,4.669515,-0.18723,0
 .937248\H,0,4.676741,-0.282681,-0.8248\H,0,4.574761,1.292217,-0.026948
 \H,0,2.449321,2.269049,-0.09388\H,0,0.32642,3.450896,0.241925\H,0,-0.5
 59802,2.841859,-1.157143\H,0,-1.184831,2.557845,0.469925\H,0,2.697778,
 -2.031392,0.153281\H,0,-2.348891,-0.137784,-1.62372\H,0,-3.061314,-1.3
 88868,-0.5873\\Version=ES64L-G16RevC.02\State=1-A\HF=-609.9005909\RMSD
 =3.218e-09\PG=C01 [X(C11H10N2O1)]\\@
 The archive entry for this job was punched.


 THERE IS NO CURE FOR BIRTH AND DEATH SAVE TO ENJOY THE INTERVAL.

                               -- GEORGE SANTAYANA
 Job cpu time:       0 days  0 hours 23 minutes 34.6 seconds.
 Elapsed time:       0 days  0 hours  1 minutes 31.3 seconds.
 File lengths (MBytes):  RWF=    628 Int=      0 D2E=      0 Chk=     27 Scr=      2
 Normal termination of Gaussian 16 at Tue Jul 29 21:39:30 2025.
