 Entering Gaussian System, Link 0=g16
 Input=M2677E.gjf
 Output=M2677E.log
 Initial command:
 /hpc/softwares/Gaussian/g16/l1.exe "/hpc/home/hpcmgac13/pbs.12414.admin1.x8z/Gau-1775278.inp" -scrdir="/hpc/home/hpcmgac13/pbs.12414.admin1.x8z/"
 Default linda workers: n1
 Default is to use  16 SMP processors on each worker.
 Entering Link 1 = /hpc/softwares/Gaussian/g16/l1.exe PID=   1775279.
  
 Copyright (c) 1988-2021, Gaussian, Inc.  All Rights Reserved.
  
 This is part of the Gaussian(R) 16 program.  It is based on
 the Gaussian(R) 09 system (copyright 2009, Gaussian, Inc.),
 the Gaussian(R) 03 system (copyright 2003, Gaussian, Inc.),
 the Gaussian(R) 98 system (copyright 1998, Gaussian, Inc.),
 the Gaussian(R) 94 system (copyright 1995, Gaussian, Inc.),
 the Gaussian 92(TM) system (copyright 1992, Gaussian, Inc.),
 the Gaussian 90(TM) system (copyright 1990, Gaussian, Inc.),
 the Gaussian 88(TM) system (copyright 1988, Gaussian, Inc.),
 the Gaussian 86(TM) system (copyright 1986, Carnegie Mellon
 University), and the Gaussian 82(TM) system (copyright 1983,
 Carnegie Mellon University). Gaussian is a federally registered
 trademark of Gaussian, Inc.
  
 This software contains proprietary and confidential information,
 including trade secrets, belonging to Gaussian, Inc.
  
 This software is provided under written license and may be
 used, copied, transmitted, or stored only in accord with that
 written license.
  
 The following legend is applicable only to US Government
 contracts under FAR:
  
                    RESTRICTED RIGHTS LEGEND
  
 Use, reproduction and disclosure by the US Government is
 subject to restrictions as set forth in subparagraphs (a)
 and (c) of the Commercial Computer Software - Restricted
 Rights clause in FAR 52.227-19.
  
 Gaussian, Inc.
 340 Quinnipiac St., Bldg. 40, Wallingford CT 06492
  
  
 ---------------------------------------------------------------
 Warning -- This program may not be used in any manner that
 competes with the business of Gaussian, Inc. or will provide
 assistance to any competitor of Gaussian, Inc.  The licensee
 of this program is prohibited from giving any competitor of
 Gaussian, Inc. access to this program.  By using this program,
 the user acknowledges that Gaussian, Inc. is engaged in the
 business of creating and licensing software in the field of
 computational chemistry and represents and warrants to the
 licensee that it is not a competitor of Gaussian, Inc. and that
 it will not use this program in any manner prohibited above.
 ---------------------------------------------------------------
  

 Cite this work as:
 Gaussian 16, Revision C.02,
 M. J. Frisch, G. W. Trucks, H. B. Schlegel, G. E. Scuseria, 
 M. A. Robb, J. R. Cheeseman, G. Scalmani, V. Barone, 
 G. A. Petersson, H. Nakatsuji, X. Li, M. Caricato, A. V. Marenich, 
 J. Bloino, B. G. Janesko, R. Gomperts, B. Mennucci, H. P. Hratchian, 
 J. V. Ortiz, A. F. Izmaylov, J. L. Sonnenberg, D. Williams-Young, 
 F. Ding, F. Lipparini, F. Egidi, J. Goings, B. Peng, A. Petrone, 
 T. Henderson, D. Ranasinghe, V. G. Zakrzewski, J. Gao, N. Rega, 
 G. Zheng, W. Liang, M. Hada, M. Ehara, K. Toyota, R. Fukuda, 
 J. Hasegawa, M. Ishida, T. Nakajima, Y. Honda, O. Kitao, H. Nakai, 
 T. Vreven, K. Throssell, J. A. Montgomery, Jr., J. E. Peralta, 
 F. Ogliaro, M. J. Bearpark, J. J. Heyd, E. N. Brothers, K. N. Kudin, 
 V. N. Staroverov, T. A. Keith, R. Kobayashi, J. Normand, 
 K. Raghavachari, A. P. Rendell, J. C. Burant, S. S. Iyengar, 
 J. Tomasi, M. Cossi, J. M. Millam, M. Klene, C. Adamo, R. Cammi, 
 J. W. Ochterski, R. L. Martin, K. Morokuma, O. Farkas, 
 J. B. Foresman, and D. J. Fox, Gaussian, Inc., Wallingford CT, 2019.
 
 ******************************************
 Gaussian 16:  ES64L-G16RevC.02  7-Dec-2021
                29-Jul-2025 
 ******************************************
 SetLPE:    new flags="-opt 'Tsnet.Node.lindarsharg: ssh'  -nodelist 'n1' -env GAUSS_MDEF=2147483648 -env GAUSS_EXEDIR="/hpc/softwares/Gaussian/g16/bsd:/hpc/softwares/Gaussian/g16""
 Will use up to    1 processors via Linda.
 ----------------------------------------------------------
 # td=(50-50,nstates=3) b3lyp/6-31+g(d,p) geom=connectivity
 ----------------------------------------------------------
 1/38=1,57=2,172=1/1;
 2/12=2,17=6,18=5,40=1/2;
 3/5=1,6=6,7=111,11=9,25=1,30=1,74=-5/1,2,3,8;
 4//1;
 5/5=2,38=5/2;
 8/6=1,10=2,108=3/1;
 9/41=3,42=1,48=2,70=2/14;
 6/7=2,8=2,9=2,10=2/1;
 99/5=1,9=1/99;
 -------------------
 Title Card Required
 -------------------
 Symbolic Z-matrix:
 Charge =  0 Multiplicity = 1
 C                     4.35564   0.52411  -1.06698 
 C                     3.63078  -0.23978  -0.22995 
 C                     4.28156  -0.99117   0.81413 
 N                     4.79464  -1.5887    1.66998 
 C                     2.16157  -0.37175  -0.31017 
 C                     1.16336   0.52846  -0.27485 
 C                     1.29603   2.03124  -0.14652 
 C                     0.45629   2.77221  -1.2055 
 C                     0.98822   2.54803   1.2774 
 C                    -0.1326   -0.24911  -0.44202 
 C                    -1.22425  -0.0472    0.64946 
 C                    -2.47753  -0.82164   0.3757 
 C                    -3.70524  -0.26706   0.22805 
 C                    -4.86727  -1.07688  -0.0195 
 N                    -5.80883  -1.72917  -0.21897 
 C                    -3.91839   1.15414   0.30718 
 N                    -4.06954   2.3058    0.36787 
 C                     0.35553  -1.70001  -0.49732 
 O                    -0.28599  -2.71497  -0.58057 
 O                     1.72513  -1.70224  -0.42225 
 H                     3.88008   1.0654   -1.87729 
 H                     5.431     0.61144  -0.95729 
 H                     2.34777   2.2686   -0.33695 
 H                     0.6392    3.84954  -1.1444 
 H                     0.70726   2.44485  -2.22017 
 H                    -0.61799   2.61809  -1.055 
 H                     1.22986   3.61427   1.34063 
 H                     1.58524   2.02121   2.02807 
 H                    -0.06737   2.44055   1.54256 
 H                    -0.58416  -0.01866  -1.41774 
 H                    -1.45166   1.01681   0.7311 
 H                    -0.81721  -0.37076   1.6169 
 H                    -2.39117  -1.9006    0.28529 
 
                          Input orientation:                          
 ---------------------------------------------------------------------
 Center     Atomic      Atomic             Coordinates (Angstroms)
 Number     Number       Type             X           Y           Z
 ---------------------------------------------------------------------
      1          6           0        4.355637    0.524108   -1.066981
      2          6           0        3.630779   -0.239780   -0.229946
      3          6           0        4.281564   -0.991171    0.814130
      4          7           0        4.794637   -1.588697    1.669977
      5          6           0        2.161570   -0.371748   -0.310169
      6          6           0        1.163355    0.528461   -0.274852
      7          6           0        1.296028    2.031236   -0.146520
      8          6           0        0.456292    2.772205   -1.205499
      9          6           0        0.988222    2.548034    1.277403
     10          6           0       -0.132598   -0.249108   -0.442018
     11          6           0       -1.224254   -0.047198    0.649464
     12          6           0       -2.477531   -0.821643    0.375698
     13          6           0       -3.705240   -0.267064    0.228045
     14          6           0       -4.867269   -1.076882   -0.019495
     15          7           0       -5.808832   -1.729173   -0.218971
     16          6           0       -3.918385    1.154144    0.307176
     17          7           0       -4.069544    2.305799    0.367874
     18          6           0        0.355527   -1.700013   -0.497320
     19          8           0       -0.285994   -2.714974   -0.580566
     20          8           0        1.725133   -1.702241   -0.422253
     21          1           0        3.880079    1.065396   -1.877293
     22          1           0        5.431004    0.611439   -0.957288
     23          1           0        2.347769    2.268605   -0.336949
     24          1           0        0.639201    3.849539   -1.144399
     25          1           0        0.707262    2.444852   -2.220174
     26          1           0       -0.617985    2.618092   -1.054996
     27          1           0        1.229864    3.614266    1.340626
     28          1           0        1.585241    2.021209    2.028068
     29          1           0       -0.067369    2.440545    1.542560
     30          1           0       -0.584156   -0.018663   -1.417743
     31          1           0       -1.451658    1.016806    0.731095
     32          1           0       -0.817210   -0.370760    1.616903
     33          1           0       -2.391167   -1.900602    0.285287
 ---------------------------------------------------------------------
                    Distance matrix (angstroms):
                    1          2          3          4          5
     1  C    0.000000
     2  C    1.345203   0.000000
     3  C    2.416637   1.441598   0.000000
     4  N    3.485341   2.604582   1.163080   0.000000
     5  C    2.487821   1.477304   2.478328   3.512120   0.000000
     6  C    3.289096   2.584645   3.635710   4.631515   1.344640
     7  C    3.532689   3.258149   4.355596   5.351994   2.559351
     8  C    4.503112   4.483428   5.733638   6.790218   3.687008
     9  C    4.575139   4.126393   4.856614   5.635198   3.524522
    10  C    4.597031   3.769359   4.649020   5.525637   2.301224
    11  C    5.865813   4.937793   5.588580   6.296405   3.534124
    12  C    7.112282   6.165778   6.775421   7.426167   4.711059
    13  C    8.202486   7.350352   8.040949   8.722029   5.892376
    14  C    9.419256   8.541771   9.187134   9.821848   7.070098
    15  N   10.445709   9.556394  10.169958  10.771324   8.085680
    16  C    8.410986   7.695544   8.491086   9.235646   6.298834
    17  N    8.730229   8.132179   8.989447   9.769149   6.815848
    18  C    4.612170   3.595976   4.199539   4.941181   2.249690
    19  O    5.680932   4.646572   5.077328   5.669767   3.399175
    20  O    3.505974   2.409826   2.927388   3.716473   1.404725
    21  H    1.084322   2.116456   3.410926   4.523688   2.733959
    22  H    1.084469   2.120002   2.650942   3.485410   3.474855
    23  H    2.758215   2.819496   3.961147   4.989358   2.647046
    24  H    4.987623   5.148621   6.366720   7.400187   4.564297
    25  H    4.281326   4.440181   5.812821   6.936096   3.700860
    26  H    5.396464   5.186534   6.366003   7.376925   4.149679
    27  H    5.011597   4.804660   5.549786   6.315608   4.413786
    28  H    4.415397   3.794064   4.221165   4.843539   3.394960
    29  H    5.481370   4.899206   5.587531   6.315863   4.038535
    30  H    4.981886   4.384681   5.440796   6.397690   2.981677
    31  H    6.099222   5.322948   6.075253   6.832741   4.008457
    32  H    5.895962   4.817947   5.198735   5.742736   3.547779
    33  H    7.295698   6.267984   6.755152   7.324645   4.839357
                    6          7          8          9         10
     6  C    0.000000
     7  C    1.514069   0.000000
     8  C    2.529907   1.541307   0.000000
     9  C    2.553202   1.545762   2.549118   0.000000
    10  C    1.520543   2.707076   3.171439   3.469387   0.000000
    11  C    2.624199   3.362335   3.770167   3.467649   1.556860
    12  C    3.937264   4.759346   4.901351   4.917239   2.548562
    13  C    4.958728   5.516807   5.348883   5.572658   3.634980
    14  C    6.245859   6.903822   6.675506   7.007763   4.825023
    15  N    7.328808   8.038965   7.777366   8.169062   5.870262
    16  C    5.153088   5.307093   4.903479   5.192212   4.106409
    17  N    5.563745   5.397161   4.814170   5.144601   4.762669
    18  C    2.380793   3.863913   4.529062   4.647133   1.531813
    19  O    3.565662   5.021723   5.572312   5.724939   2.474514
    20  O    2.305071   3.768157   4.716365   4.636454   2.358633
    21  H    3.199485   3.256646   3.884176   4.529146   4.459766
    22  H    4.322665   4.446481   5.429390   5.336905   5.653292
    23  H    2.105895   1.094882   2.141419   2.128986   3.535836
    24  H    3.472810   2.175640   1.094458   2.771436   4.229411
    25  H    2.768547   2.194941   1.095313   3.510360   3.335360
    26  H    2.854532   2.198448   1.095661   2.832824   2.971898
    27  H    3.483731   2.173008   2.791099   1.095098   4.467637
    28  H    2.776639   2.193759   3.506348   1.094292   3.769169
    29  H    2.910968   2.208931   2.817099   1.093679   3.343208
    30  H    2.158550   3.058298   2.986055   4.040312   1.099568
    31  H    2.844065   3.057622   3.236062   2.931915   2.172246
    32  H    2.882702   3.653084   4.412028   3.448797   2.173166
    33  H    4.341512   5.407515   5.671472   5.674057   2.890941
                   11         12         13         14         15
    11  C    0.000000
    12  C    1.498471   0.000000
    13  C    2.526109   1.355223   0.000000
    14  C    3.844387   2.435605   1.437843   0.000000
    15  N    4.959997   3.503542   2.600516   1.162676   0.000000
    16  C    2.969634   2.446322   1.439279   2.446338   3.487712
    17  N    3.702913   3.509339   2.602286   3.496992   4.432889
    18  C    2.557854   3.091911   4.366844   5.281497   6.170709
    19  O    3.083883   3.049914   4.282214   4.897574   5.621770
    20  O    3.547764   4.367444   5.654341   6.634233   7.536755
    21  H    5.803153   7.004005   7.984044   9.195481  10.219327
    22  H    6.878075   8.147116   9.254606  10.477801  11.504673
    23  H    4.369817   5.774168   6.586938   7.959261   9.084398
    24  H    4.677068   5.817616   6.140374   7.473704   8.576455
    25  H    4.263319   5.248947   5.728738   6.951330   7.992921
    26  H    3.221260   4.163721   4.416046   5.725514   6.822210
    27  H    4.461695   5.861156   6.376348   7.812287   8.973735
    28  H    3.751282   5.226686   6.038664   7.444835   8.589928
    29  H    2.885285   4.220464   4.721568   6.152345   7.311220
    30  H    2.164228   2.728750   3.537158   4.628173   5.626734
    31  H    1.091092   2.135092   2.641971   4.075943   5.237174
    32  H    1.098324   2.121450   3.206306   4.424860   5.489263
    33  H    2.220229   1.086179   2.097263   2.627259   3.458916
                   16         17         18         19         20
    16  C    0.000000
    17  N    1.163118   0.000000
    18  C    5.201899   6.031280   0.000000
    19  O    5.380746   6.357905   1.203588   0.000000
    20  O    6.367126   7.089920   1.371663   2.257282   0.000000
    21  H    8.099125   8.353196   4.687673   5.773115   3.797466
    22  H    9.450104   9.741012   5.595967   6.625029   4.401461
    23  H    6.397000   6.456010   4.443498   5.641996   4.020270
    24  H    5.490338   5.180963   5.594346   6.653324   5.702894
    25  H    5.426789   5.434630   4.502427   5.504423   4.633245
    26  H    3.858924   3.746378   4.461475   5.364410   4.955385
    27  H    5.798680   5.544552   5.690700   6.785874   5.623013
    28  H    5.831224   5.900324   4.662325   5.721706   4.459565
    29  H    4.243975   4.173182   4.635102   5.579860   4.923031
    30  H    3.932926   4.554062   2.134741   2.838989   3.026260
    31  H    2.506653   2.940537   3.486549   4.123762   4.337676
    32  H    3.695674   4.393372   2.759015   3.256747   3.520583
    33  H    3.415311   4.529633   2.863047   2.417572   4.181374
                   21         22         23         24         25
    21  H    0.000000
    22  H    1.859531   0.000000
    23  H    2.483615   3.554906   0.000000
    24  H    4.334960   5.786335   2.463845   0.000000
    25  H    3.476670   5.222071   2.503770   1.770613   0.000000
    26  H    4.829039   6.373890   3.071389   1.762093   1.773113
    27  H    4.886244   5.652164   2.423793   2.565070   3.784169
    28  H    4.629439   5.068500   2.497190   3.781842   4.358656
    29  H    5.400812   6.310862   3.065128   3.115165   3.841645
    30  H    4.616900   6.065575   3.872453   4.066240   2.894920
    31  H    5.935779   7.098309   4.140455   3.989179   3.925588
    32  H    6.027974   6.828715   4.560798   5.249461   4.997484
    33  H    7.266528   8.309073   6.342474   6.655167   5.895809
                   26         27         28         29         30
    26  H    0.000000
    27  H    3.185265   0.000000
    28  H    3.836112   1.771073   0.000000
    29  H    2.661202   1.761026   1.772761   0.000000
    30  H    2.661805   4.908914   4.554226   3.883062   0.000000
    31  H    2.539537   3.782709   3.451626   2.145172   2.538161
    32  H    4.013972   4.488571   3.415017   2.910537   3.063880
    33  H    5.035785   6.681270   5.850616   5.081961   3.115653
                   31         32         33
    31  H    0.000000
    32  H    1.764233   0.000000
    33  H    3.097207   2.567286   0.000000
 Stoichiometry    C15H13N3O2
 Framework group  C1[X(C15H13N3O2)]
 Deg. of freedom    93
 Full point group                 C1      NOp   1
 Largest Abelian subgroup         C1      NOp   1
 Largest concise Abelian subgroup C1      NOp   1
                         Standard orientation:                         
 ---------------------------------------------------------------------
 Center     Atomic      Atomic             Coordinates (Angstroms)
 Number     Number       Type             X           Y           Z
 ---------------------------------------------------------------------
      1          6           0        4.355637    0.524108   -1.066981
      2          6           0        3.630779   -0.239780   -0.229946
      3          6           0        4.281564   -0.991171    0.814130
      4          7           0        4.794637   -1.588697    1.669977
      5          6           0        2.161570   -0.371748   -0.310169
      6          6           0        1.163355    0.528461   -0.274852
      7          6           0        1.296028    2.031236   -0.146520
      8          6           0        0.456292    2.772205   -1.205499
      9          6           0        0.988222    2.548034    1.277403
     10          6           0       -0.132598   -0.249108   -0.442018
     11          6           0       -1.224254   -0.047198    0.649464
     12          6           0       -2.477531   -0.821643    0.375698
     13          6           0       -3.705240   -0.267064    0.228045
     14          6           0       -4.867269   -1.076882   -0.019495
     15          7           0       -5.808832   -1.729173   -0.218971
     16          6           0       -3.918385    1.154144    0.307176
     17          7           0       -4.069544    2.305799    0.367874
     18          6           0        0.355527   -1.700013   -0.497320
     19          8           0       -0.285994   -2.714974   -0.580566
     20          8           0        1.725133   -1.702241   -0.422253
     21          1           0        3.880079    1.065396   -1.877293
     22          1           0        5.431004    0.611439   -0.957288
     23          1           0        2.347769    2.268605   -0.336949
     24          1           0        0.639201    3.849539   -1.144399
     25          1           0        0.707262    2.444852   -2.220174
     26          1           0       -0.617985    2.618092   -1.054996
     27          1           0        1.229864    3.614266    1.340626
     28          1           0        1.585241    2.021209    2.028068
     29          1           0       -0.067369    2.440545    1.542560
     30          1           0       -0.584156   -0.018663   -1.417743
     31          1           0       -1.451658    1.016806    0.731095
     32          1           0       -0.817210   -0.370760    1.616903
     33          1           0       -2.391167   -1.900602    0.285287
 ---------------------------------------------------------------------
 Rotational constants (GHZ):           0.5999486           0.1851204           0.1545151
 Standard basis: 6-31+G(d,p) (6D, 7F)
 There are   445 symmetry adapted cartesian basis functions of A   symmetry.
 There are   445 symmetry adapted basis functions of A   symmetry.
   445 basis functions,   731 primitive gaussians,   445 cartesian basis functions
    70 alpha electrons       70 beta electrons
       nuclear repulsion energy      1392.9665890119 Hartrees.
 NAtoms=   33 NActive=   33 NUniq=   33 SFac= 1.00D+00 NAtFMM=   60 NAOKFM=F Big=F
 Integral buffers will be    131072 words long.
 Regular integral format.
 Two-electron integral symmetry is turned on.
 One-electron integrals computed using PRISM.
 NBasis=   445 RedAO= T EigKep=  1.95D-06  NBF=   445
 NBsUse=   444 1.00D-06 EigRej=  6.92D-07 NBFU=   444
 ExpMin= 4.38D-02 ExpMax= 5.48D+03 ExpMxC= 8.25D+02 IAcc=3 IRadAn=         5 AccDes= 0.00D+00
 Harris functional with IExCor=  402 and IRadAn=       5 diagonalized for initial guess.
 HarFok:  IExCor=  402 AccDes= 0.00D+00 IRadAn=         5 IDoV= 1 UseB2=F ITyADJ=14
 ICtDFT=  3500011 ScaDFX=  1.000000  1.000000  1.000000  1.000000
 FoFCou: FMM=F IPFlag=           0 FMFlag=      100000 FMFlg1=           0
         NFxFlg=           0 DoJE=T BraDBF=F KetDBF=T FulRan=T
         wScrn=  0.000000 ICntrl=       500 IOpCl=  0 I1Cent=   200000004 NGrid=           0
         NMat0=    1 NMatS0=      1 NMatT0=    0 NMatD0=    1 NMtDS0=    0 NMtDT0=    0
 Petite list used in FoFCou.
 Requested convergence on RMS density matrix=1.00D-08 within 128 cycles.
 Requested convergence on MAX density matrix=1.00D-06.
 Requested convergence on             energy=1.00D-06.
 No special actions if energy rises.
 SCF Done:  E(RB3LYP) =  -894.072451702     A.U. after   16 cycles
            NFock= 16  Conv=0.72D-08     -V/T= 2.0095
 DoSCS=F DFT=T ScalE2(SS,OS)=  1.000000  1.000000
 ExpMin= 4.38D-02 ExpMax= 5.48D+03 ExpMxC= 8.25D+02 IAcc=3 IRadAn=         5 AccDes= 0.00D+00
 HarFok:  IExCor=  205 AccDes= 0.00D+00 IRadAn=         5 IDoV=-2 UseB2=F ITyADJ=14
 ICtDFT= 12500011 ScaDFX=  1.000000  1.000000  1.000000  1.000000
 Range of M.O.s used for correlation:    21   444
 NBasis=   445 NAE=    70 NBE=    70 NFC=    20 NFV=     0
 NROrb=    424 NOA=    50 NOB=    50 NVA=   374 NVB=   374

 **** Warning!!: The largest alpha MO coefficient is  0.12159093D+03

 Orbital symmetries:
       Occupied  (A) (A) (A) (A) (A) (A) (A) (A) (A) (A) (A) (A)
                 (A) (A) (A) (A) (A) (A) (A) (A) (A) (A) (A) (A)
                 (A) (A) (A) (A) (A) (A) (A) (A) (A) (A) (A) (A)
                 (A) (A) (A) (A) (A) (A) (A) (A) (A) (A) (A) (A)
                 (A) (A) (A) (A) (A) (A) (A) (A) (A) (A) (A) (A)
                 (A) (A) (A) (A) (A) (A) (A) (A) (A) (A)
       Virtual   (A) (A) (A) (A) (A) (A) (A) (A) (A) (A) (A) (A)
                 (A) (A) (A) (A) (A) (A) (A) (A) (A) (A) (A) (A)
                 (A) (A) (A) (A) (A) (A) (A) (A) (A) (A) (A) (A)
                 (A) (A) (A) (A) (A) (A) (A) (A) (A) (A) (A) (A)
                 (A) (A) (A) (A) (A) (A) (A) (A) (A) (A) (A) (A)
                 (A) (A) (A) (A) (A) (A) (A) (A) (A) (A) (A) (A)
                 (A) (A) (A) (A) (A) (A) (A) (A) (A) (A) (A) (A)
                 (A) (A) (A) (A) (A) (A) (A) (A) (A) (A) (A) (A)
                 (A) (A) (A) (A) (A) (A) (A) (A) (A) (A) (A) (A)
                 (A) (A) (A) (A) (A) (A) (A) (A) (A) (A) (A) (A)
                 (A) (A) (A) (A) (A) (A) (A) (A) (A) (A) (A) (A)
                 (A) (A) (A) (A) (A) (A) (A) (A) (A) (A) (A) (A)
                 (A) (A) (A) (A) (A) (A) (A) (A) (A) (A) (A) (A)
                 (A) (A) (A) (A) (A) (A) (A) (A) (A) (A) (A) (A)
                 (A) (A) (A) (A) (A) (A) (A) (A) (A) (A) (A) (A)
                 (A) (A) (A) (A) (A) (A) (A) (A) (A) (A) (A) (A)
                 (A) (A) (A) (A) (A) (A) (A) (A) (A) (A) (A) (A)
                 (A) (A) (A) (A) (A) (A) (A) (A) (A) (A) (A) (A)
                 (A) (A) (A) (A) (A) (A) (A) (A) (A) (A) (A) (A)
                 (A) (A) (A) (A) (A) (A) (A) (A) (A) (A) (A) (A)
                 (A) (A) (A) (A) (A) (A) (A) (A) (A) (A) (A) (A)
                 (A) (A) (A) (A) (A) (A) (A) (A) (A) (A) (A) (A)
                 (A) (A) (A) (A) (A) (A) (A) (A) (A) (A) (A) (A)
                 (A) (A) (A) (A) (A) (A) (A) (A) (A) (A) (A) (A)
                 (A) (A) (A) (A) (A) (A) (A) (A) (A) (A) (A) (A)
                 (A) (A) (A) (A) (A) (A) (A) (A) (A) (A) (A) (A)
                 (A) (A) (A) (A) (A) (A) (A) (A) (A) (A) (A) (A)
                 (A) (A) (A) (A) (A) (A) (A) (A) (A) (A) (A) (A)
                 (A) (A) (A) (A) (A) (A) (A) (A) (A) (A) (A) (A)
                 (A) (A) (A) (A) (A) (A) (A) (A) (A) (A) (A) (A)
                 (A) (A) (A) (A) (A) (A) (A) (A) (A) (A) (A) (A)
                 (A) (A)
    24 initial guesses have been made.
 Convergence on wavefunction:    0.001000000000000
 Iteration     1 Dimension    24 NMult     0 NNew     24
 CISAX will form    24 AO SS matrices at one time.
 New state      1 was old state      4
 New state      2 was old state      6
 New state      3 was old state      2
 New state      4 was old state      1
 New state      5 was old state     18
 New state      6 was old state      3
 New state      7 was old state     14
 New state      9 was old state      7
 New state     10 was old state     16
 New state     11 was old state     15
 New state     12 was old state     10
 Vector   5 SDiff=2.52D+00 TDiff=8.77D+00 assumed to be singlet.
 Vector  11 SDiff=2.39D+00 TDiff=7.32D+00 assumed to be singlet.
 Iteration     2 Dimension    36 NMult    24 NNew     12
 New state      3 was old state      5
 New state      5 was old state      6
 New state      6 was old state      9
 Iteration     3 Dimension    48 NMult    36 NNew     12
 Iteration     4 Dimension    60 NMult    48 NNew     12
 Iteration     5 Dimension    72 NMult    60 NNew     12
 Iteration     6 Dimension    80 NMult    72 NNew      8
 Iteration     7 Dimension    82 NMult    80 NNew      2
 ***********************************************************************
 Excited states from <AA,BB:AA,BB> singles matrix:
 ***********************************************************************
 
 Ground to excited state transition densities written to RWF  633
 Ground to excited state transition electric dipole moments (Au):
       state          X           Y           Z        Dip. S.      Osc.
         1        -0.0000      0.0000     -0.0000      0.0000      0.0000
         2        -0.0000     -0.0000     -0.0000      0.0000      0.0000
         3        -0.0000     -0.0000     -0.0000      0.0000      0.0000
         4         0.3027     -0.0699      0.0055      0.0965      0.0093
         5        -0.8952      0.1827      0.1719      0.8644      0.0881
         6         0.3030     -0.0212     -0.0345      0.0935      0.0110
 Ground to excited state transition velocity dipole moments (Au):
       state          X           Y           Z        Dip. S.      Osc.
         1         0.0000      0.0000      0.0000      0.0000      0.0000
         2         0.0000      0.0000      0.0000      0.0000      0.0000
         3        -0.0000     -0.0000     -0.0000      0.0000      0.0000
         4        -0.0422      0.0093     -0.0004      0.0019      0.0086
         5         0.1337     -0.0320     -0.0249      0.0195      0.0852
         6        -0.0514      0.0025      0.0075      0.0027      0.0102
 Ground to excited state transition magnetic dipole moments (Au):
       state          X           Y           Z
         1         0.0000     -0.0000     -0.0000
         2         0.0000     -0.0000     -0.0000
         3         0.0000      0.0000      0.0000
         4         0.0225     -0.0067      0.0141
         5         0.0648      0.1750      0.0544
         6        -0.0387      0.2010     -0.4621
 Ground to excited state transition velocity quadrupole moments (Au):
       state          XX          YY          ZZ          XY          XZ          YZ
         1         0.0000     -0.0000      0.0000     -0.0000      0.0000     -0.0000
         2        -0.0000     -0.0000     -0.0000     -0.0000      0.0000      0.0000
         3        -0.0000     -0.0000     -0.0000      0.0000     -0.0000      0.0000
         4         0.3333     -0.0186     -0.0181      0.0166     -0.0463     -0.0112
         5         0.8909     -0.1486      0.0279      0.0299     -0.2750     -0.0356
         6         0.4117     -0.0084     -0.0148      0.0308     -0.0131      0.0034
 <0|del|b> * <b|rxdel|0> + <0|del|b> * <b|delr+rdel|0>
 Rotatory Strengths (R) in cgs (10**-40 erg-esu-cm/Gauss)
       state          XX          YY          ZZ    R(velocity)    E-M Angle
         1        -0.0000      0.0000      0.0000     -0.0000       90.00
         2        -0.0000      0.0000     -0.0000     -0.0000       90.00
         3        -0.0000      0.0000     -0.0000     -0.0000       90.00
         4         0.8716     -1.1553     -4.6716     -1.6517      149.23
         5       -38.1736      7.6239     38.4542      2.6348       86.39
         6        -5.4647     -3.8308      5.2747     -1.3403       92.19
 1/2[<0|r|b>*<b|rxdel|0> + (<0|rxdel|b>*<b|r|0>)*]
 Rotatory Strengths (R) in cgs (10**-40 erg-esu-cm/Gauss)
       state          XX          YY          ZZ     R(length)
         1         0.0000      0.0000     -0.0000      0.0000
         2         0.0000     -0.0000     -0.0000      0.0000
         3         0.0000      0.0000      0.0000      0.0000
         4        -4.8080     -0.3291     -0.0548     -1.7307
         5        41.0170    -22.6177     -6.6122      3.9290
         6         8.2866      3.0075    -11.2807      0.0045
  1/2[<0|del|b>*<b|r|0> + (<0|r|b>*<b|del|0>)*] (Au)
       state          X           Y           Z        Dip. S.   Osc.(frdel)
         1        -0.0000      0.0000     -0.0000      0.0000      0.0000
         2        -0.0000     -0.0000     -0.0000      0.0000      0.0000
         3         0.0000      0.0000      0.0000     -0.0000     -0.0000
         4        -0.0128     -0.0006     -0.0000      0.0134      0.0089
         5        -0.1197     -0.0058     -0.0043      0.1298      0.0866
         6        -0.0156     -0.0001     -0.0003      0.0159      0.0106

 Excitation energies and oscillator strengths:
 
 Excited State   1:      Triplet-A      2.9086 eV  426.27 nm  f=0.0000  <S**2>=2.000
      67 -> 72         0.29263
      68 -> 72        -0.12895
      69 -> 72         0.12355
      70 -> 72         0.57898
      70 -> 73         0.10269
 This state for optimization and/or second-order correction.
 Total Energy, E(TD-HF/TD-DFT) =  -893.965563067    
 Copying the excited state density for this state as the 1-particle RhoCI density.
 
 Excited State   2:      Triplet-A      2.9419 eV  421.45 nm  f=0.0000  <S**2>=2.000
      68 -> 71         0.28907
      69 -> 71         0.62817
      70 -> 71        -0.11016
      69 <- 71         0.11269
 
 Excited State   3:      Triplet-A      3.5804 eV  346.29 nm  f=0.0000  <S**2>=2.000
      67 -> 72         0.40576
      68 -> 72        -0.23299
      69 -> 72         0.13820
      70 -> 71         0.16890
      70 -> 72        -0.18051
      70 -> 73        -0.35864
      70 -> 76         0.16395
 
 Excited State   4:      Singlet-A      3.9372 eV  314.91 nm  f=0.0093  <S**2>=0.000
      70 -> 71         0.70498
 
 Excited State   5:      Singlet-A      4.1587 eV  298.13 nm  f=0.0881  <S**2>=0.000
      70 -> 72         0.68969
 
 Excited State   6:      Singlet-A      4.7939 eV  258.63 nm  f=0.0110  <S**2>=0.000
      67 -> 71         0.20132
      68 -> 71         0.57065
      69 -> 71        -0.33898
 SavETr:  write IOETrn=   770 NScale= 10 NData=  16 NLR=1 NState=    6 LETran=     118.

 **********************************************************************

            Population analysis using the SCF Density.

 **********************************************************************

 Orbital symmetries:
       Occupied  (A) (A) (A) (A) (A) (A) (A) (A) (A) (A) (A) (A)
                 (A) (A) (A) (A) (A) (A) (A) (A) (A) (A) (A) (A)
                 (A) (A) (A) (A) (A) (A) (A) (A) (A) (A) (A) (A)
                 (A) (A) (A) (A) (A) (A) (A) (A) (A) (A) (A) (A)
                 (A) (A) (A) (A) (A) (A) (A) (A) (A) (A) (A) (A)
                 (A) (A) (A) (A) (A) (A) (A) (A) (A) (A)
       Virtual   (A) (A) (A) (A) (A) (A) (A) (A) (A) (A) (A) (A)
                 (A) (A) (A) (A) (A) (A) (A) (A) (A) (A) (A) (A)
                 (A) (A) (A) (A) (A) (A) (A) (A) (A) (A) (A) (A)
                 (A) (A) (A) (A) (A) (A) (A) (A) (A) (A) (A) (A)
                 (A) (A) (A) (A) (A) (A) (A) (A) (A) (A) (A) (A)
                 (A) (A) (A) (A) (A) (A) (A) (A) (A) (A) (A) (A)
                 (A) (A) (A) (A) (A) (A) (A) (A) (A) (A) (A) (A)
                 (A) (A) (A) (A) (A) (A) (A) (A) (A) (A) (A) (A)
                 (A) (A) (A) (A) (A) (A) (A) (A) (A) (A) (A) (A)
                 (A) (A) (A) (A) (A) (A) (A) (A) (A) (A) (A) (A)
                 (A) (A) (A) (A) (A) (A) (A) (A) (A) (A) (A) (A)
                 (A) (A) (A) (A) (A) (A) (A) (A) (A) (A) (A) (A)
                 (A) (A) (A) (A) (A) (A) (A) (A) (A) (A) (A) (A)
                 (A) (A) (A) (A) (A) (A) (A) (A) (A) (A) (A) (A)
                 (A) (A) (A) (A) (A) (A) (A) (A) (A) (A) (A) (A)
                 (A) (A) (A) (A) (A) (A) (A) (A) (A) (A) (A) (A)
                 (A) (A) (A) (A) (A) (A) (A) (A) (A) (A) (A) (A)
                 (A) (A) (A) (A) (A) (A) (A) (A) (A) (A) (A) (A)
                 (A) (A) (A) (A) (A) (A) (A) (A) (A) (A) (A) (A)
                 (A) (A) (A) (A) (A) (A) (A) (A) (A) (A) (A) (A)
                 (A) (A) (A) (A) (A) (A) (A) (A) (A) (A) (A) (A)
                 (A) (A) (A) (A) (A) (A) (A) (A) (A) (A) (A) (A)
                 (A) (A) (A) (A) (A) (A) (A) (A) (A) (A) (A) (A)
                 (A) (A) (A) (A) (A) (A) (A) (A) (A) (A) (A) (A)
                 (A) (A) (A) (A) (A) (A) (A) (A) (A) (A) (A) (A)
                 (A) (A) (A) (A) (A) (A) (A) (A) (A) (A) (A) (A)
                 (A) (A) (A) (A) (A) (A) (A) (A) (A) (A) (A) (A)
                 (A) (A) (A) (A) (A) (A) (A) (A) (A) (A) (A) (A)
                 (A) (A) (A) (A) (A) (A) (A) (A) (A) (A) (A) (A)
                 (A) (A) (A) (A) (A) (A) (A) (A) (A) (A) (A) (A)
                 (A) (A) (A) (A) (A) (A) (A) (A) (A) (A) (A) (A)
                 (A) (A)
 The electronic state is 1-A.
 Alpha  occ. eigenvalues --  -19.24915 -19.18929 -14.38288 -14.37525 -14.37060
 Alpha  occ. eigenvalues --  -10.36338 -10.30641 -10.30374 -10.28897 -10.27989
 Alpha  occ. eigenvalues --  -10.27521 -10.26922 -10.26751 -10.26133 -10.25977
 Alpha  occ. eigenvalues --  -10.25964 -10.24927 -10.24258 -10.21403 -10.21148
 Alpha  occ. eigenvalues --   -1.15952  -1.07878  -0.95462  -0.93832  -0.93772
 Alpha  occ. eigenvalues --   -0.89752  -0.87971  -0.86196  -0.82646  -0.78605
 Alpha  occ. eigenvalues --   -0.75272  -0.72082  -0.69747  -0.67319  -0.65744
 Alpha  occ. eigenvalues --   -0.62863  -0.61542  -0.59919  -0.57610  -0.53452
 Alpha  occ. eigenvalues --   -0.52755  -0.51936  -0.50423  -0.49291  -0.47993
 Alpha  occ. eigenvalues --   -0.47141  -0.46018  -0.45196  -0.44608  -0.44084
 Alpha  occ. eigenvalues --   -0.43386  -0.42587  -0.42109  -0.41442  -0.40971
 Alpha  occ. eigenvalues --   -0.40441  -0.39552  -0.39304  -0.38897  -0.38489
 Alpha  occ. eigenvalues --   -0.37938  -0.37920  -0.37638  -0.36975  -0.36498
 Alpha  occ. eigenvalues --   -0.36190  -0.32359  -0.31530  -0.30953  -0.27661
 Alpha virt. eigenvalues --   -0.10985  -0.09870  -0.06006  -0.03375  -0.02579
 Alpha virt. eigenvalues --   -0.02075  -0.00895  -0.00520  -0.00023   0.00491
 Alpha virt. eigenvalues --    0.00621   0.01040   0.01550   0.02074   0.02261
 Alpha virt. eigenvalues --    0.02677   0.03303   0.03691   0.03891   0.04632
 Alpha virt. eigenvalues --    0.04911   0.05355   0.05631   0.05912   0.06260
 Alpha virt. eigenvalues --    0.06792   0.06865   0.06992   0.08294   0.08430
 Alpha virt. eigenvalues --    0.08621   0.09099   0.09325   0.09460   0.09945
 Alpha virt. eigenvalues --    0.10545   0.10645   0.10874   0.11024   0.11789
 Alpha virt. eigenvalues --    0.11986   0.12302   0.12867   0.13074   0.13411
 Alpha virt. eigenvalues --    0.13910   0.14274   0.14427   0.14855   0.15546
 Alpha virt. eigenvalues --    0.15759   0.16154   0.16720   0.17046   0.17323
 Alpha virt. eigenvalues --    0.17607   0.17932   0.18175   0.18493   0.18688
 Alpha virt. eigenvalues --    0.18896   0.19464   0.20090   0.20287   0.20565
 Alpha virt. eigenvalues --    0.20815   0.21075   0.21507   0.21858   0.22239
 Alpha virt. eigenvalues --    0.22478   0.22899   0.23397   0.23525   0.23996
 Alpha virt. eigenvalues --    0.24255   0.24799   0.25000   0.25265   0.25688
 Alpha virt. eigenvalues --    0.25969   0.26089   0.26567   0.26809   0.27047
 Alpha virt. eigenvalues --    0.27345   0.27527   0.27654   0.28234   0.28352
 Alpha virt. eigenvalues --    0.29033   0.29534   0.29731   0.30159   0.30458
 Alpha virt. eigenvalues --    0.30897   0.31740   0.31904   0.32638   0.33084
 Alpha virt. eigenvalues --    0.34189   0.34560   0.35072   0.35186   0.36123
 Alpha virt. eigenvalues --    0.37016   0.38091   0.38316   0.39825   0.40089
 Alpha virt. eigenvalues --    0.40530   0.41406   0.42525   0.43143   0.43790
 Alpha virt. eigenvalues --    0.45700   0.46668   0.47601   0.52779   0.58873
 Alpha virt. eigenvalues --    0.60297   0.62140   0.63369   0.64367   0.64997
 Alpha virt. eigenvalues --    0.66122   0.66247   0.67336   0.68278   0.69030
 Alpha virt. eigenvalues --    0.69707   0.70305   0.70808   0.72185   0.72378
 Alpha virt. eigenvalues --    0.73129   0.73655   0.74377   0.74700   0.75501
 Alpha virt. eigenvalues --    0.75826   0.76194   0.77108   0.78434   0.78647
 Alpha virt. eigenvalues --    0.79357   0.80905   0.81363   0.82230   0.82406
 Alpha virt. eigenvalues --    0.83693   0.84580   0.85928   0.86973   0.87296
 Alpha virt. eigenvalues --    0.87925   0.89134   0.90635   0.90691   0.92384
 Alpha virt. eigenvalues --    0.93135   0.93538   0.94646   0.95419   0.97322
 Alpha virt. eigenvalues --    0.97968   0.98552   0.98743   0.99784   1.00116
 Alpha virt. eigenvalues --    1.00767   1.00977   1.01459   1.02641   1.03017
 Alpha virt. eigenvalues --    1.03525   1.04429   1.04915   1.06029   1.07278
 Alpha virt. eigenvalues --    1.07652   1.08840   1.09891   1.10449   1.11804
 Alpha virt. eigenvalues --    1.12710   1.13833   1.14936   1.15851   1.16763
 Alpha virt. eigenvalues --    1.17747   1.21205   1.21774   1.23737   1.24399
 Alpha virt. eigenvalues --    1.24834   1.26251   1.27114   1.28495   1.29717
 Alpha virt. eigenvalues --    1.30542   1.33046   1.33219   1.33453   1.33964
 Alpha virt. eigenvalues --    1.36439   1.37333   1.37804   1.39515   1.40557
 Alpha virt. eigenvalues --    1.41163   1.42580   1.43747   1.46469   1.48055
 Alpha virt. eigenvalues --    1.49398   1.49982   1.50187   1.50487   1.51616
 Alpha virt. eigenvalues --    1.51773   1.53096   1.56315   1.56523   1.57458
 Alpha virt. eigenvalues --    1.58701   1.61959   1.63179   1.65419   1.67026
 Alpha virt. eigenvalues --    1.67949   1.70445   1.70678   1.71634   1.73618
 Alpha virt. eigenvalues --    1.75603   1.76303   1.76772   1.77828   1.79023
 Alpha virt. eigenvalues --    1.81363   1.82237   1.82705   1.83658   1.85321
 Alpha virt. eigenvalues --    1.86335   1.86681   1.87414   1.89190   1.89555
 Alpha virt. eigenvalues --    1.90362   1.90705   1.91879   1.92536   1.92933
 Alpha virt. eigenvalues --    1.94594   1.95444   1.96801   1.98046   1.98465
 Alpha virt. eigenvalues --    1.98578   2.00318   2.01664   2.02383   2.03102
 Alpha virt. eigenvalues --    2.03536   2.04219   2.06369   2.07407   2.07866
 Alpha virt. eigenvalues --    2.10259   2.11257   2.11800   2.12153   2.13172
 Alpha virt. eigenvalues --    2.14001   2.14337   2.16605   2.18020   2.21013
 Alpha virt. eigenvalues --    2.22214   2.22883   2.24273   2.27999   2.29073
 Alpha virt. eigenvalues --    2.31023   2.32106   2.32626   2.34573   2.35754
 Alpha virt. eigenvalues --    2.37064   2.39889   2.41688   2.43800   2.46673
 Alpha virt. eigenvalues --    2.47705   2.48246   2.49791   2.50381   2.51638
 Alpha virt. eigenvalues --    2.52337   2.55554   2.56193   2.56947   2.58953
 Alpha virt. eigenvalues --    2.63298   2.63829   2.66236   2.67516   2.69155
 Alpha virt. eigenvalues --    2.70420   2.70971   2.71964   2.73601   2.75683
 Alpha virt. eigenvalues --    2.76986   2.78829   2.79305   2.80791   2.81734
 Alpha virt. eigenvalues --    2.83993   2.84414   2.85374   2.87693   2.88101
 Alpha virt. eigenvalues --    2.88728   2.91245   2.94060   2.94852   2.96684
 Alpha virt. eigenvalues --    2.98738   2.99832   3.04326   3.06118   3.08564
 Alpha virt. eigenvalues --    3.12194   3.22253   3.22739   3.24609   3.25318
 Alpha virt. eigenvalues --    3.25762   3.27442   3.30745   3.35033   3.36886
 Alpha virt. eigenvalues --    3.37236   3.39973   3.43350   3.47882   3.48683
 Alpha virt. eigenvalues --    3.49646   3.53062   3.54768   3.58478   4.18516
 Alpha virt. eigenvalues --    4.20805   4.21736   4.24889   4.28277   4.33743
 Alpha virt. eigenvalues --    4.37067   4.39315   4.42019   4.43537   4.45967
 Alpha virt. eigenvalues --    4.51808   4.54704   4.59458   4.67776   4.69211
 Alpha virt. eigenvalues --    4.72269   4.76106   4.81953   4.90829
          Condensed to atoms (all electrons):
               1          2          3          4          5          6
     1  C    7.276802  -1.361005  -1.450455   0.024488   1.512032  -0.742832
     2  C   -1.361005  15.357324   1.165637   0.035616  -8.467941   2.191822
     3  C   -1.450455   1.165637  10.216827   0.035409  -3.453996   0.200529
     4  N    0.024488   0.035616   0.035409   7.210847   0.198897  -0.033335
     5  C    1.512032  -8.467941  -3.453996   0.198897  19.671451  -3.311854
     6  C   -0.742832   2.191822   0.200529  -0.033335  -3.311854  10.900916
     7  C    0.254405  -1.178726  -0.210391   0.004088   1.912508  -2.379606
     8  C    0.063121  -0.293298  -0.056236   0.000602   0.291517   0.071561
     9  C   -0.121231   0.489469   0.024167   0.003214  -0.317528   0.334565
    10  C   -0.188995  -1.565031  -0.176220   0.000729  -3.518586  -0.329682
    11  C    0.021528   0.320144   0.012810  -0.001085   1.079460   0.864490
    12  C    0.008663  -0.113397  -0.033415   0.000997  -0.787301  -1.246372
    13  C    0.000180  -0.003326  -0.000586  -0.000016   0.102038   0.368906
    14  C    0.000519  -0.005880  -0.001564   0.000014  -0.017125   0.055084
    15  N   -0.000001  -0.000017   0.000008  -0.000000   0.000069   0.000361
    16  C   -0.001483   0.013266   0.001791  -0.000015   0.008830  -0.010123
    17  N   -0.000014  -0.000179  -0.000007   0.000000   0.000031   0.003697
    18  C    0.099339  -0.366525  -0.242382   0.009416   0.394430  -0.702934
    19  O   -0.002360   0.000830  -0.007306   0.000084  -0.042489   0.038186
    20  O   -0.020044  -0.193898   0.018082  -0.000847  -0.019040   0.092859
    21  H    0.438410  -0.012972  -0.012266  -0.000136  -0.056248   0.012719
    22  H    0.469147  -0.105989  -0.021881  -0.000027   0.016693  -0.005612
    23  H    0.001961  -0.024372  -0.013673   0.000228   0.063587  -0.016851
    24  H   -0.002848   0.013365   0.000356   0.000002  -0.029313   0.011569
    25  H   -0.002007   0.010928  -0.000233   0.000005  -0.019510   0.019802
    26  H    0.000463  -0.023166  -0.000029  -0.000001   0.027313   0.038127
    27  H   -0.003722  -0.000370  -0.000730   0.000022  -0.020255  -0.020448
    28  H   -0.002656   0.047496  -0.009961   0.000276  -0.024510   0.015883
    29  H    0.000203   0.002845   0.001274  -0.000015   0.030215   0.114474
    30  H    0.003082  -0.003175  -0.005078   0.000021   0.004665  -0.051388
    31  H    0.000610  -0.004798  -0.000905   0.000002   0.012060   0.026922
    32  H    0.000396   0.009241  -0.002423   0.000050  -0.032601  -0.020817
    33  H    0.000113  -0.000602  -0.000183  -0.000001   0.007012   0.019023
               7          8          9         10         11         12
     1  C    0.254405   0.063121  -0.121231  -0.188995   0.021528   0.008663
     2  C   -1.178726  -0.293298   0.489469  -1.565031   0.320144  -0.113397
     3  C   -0.210391  -0.056236   0.024167  -0.176220   0.012810  -0.033415
     4  N    0.004088   0.000602   0.003214   0.000729  -0.001085   0.000997
     5  C    1.912508   0.291517  -0.317528  -3.518586   1.079460  -0.787301
     6  C   -2.379606   0.071561   0.334565  -0.329682   0.864490  -1.246372
     7  C    8.783175  -0.331554  -0.450465  -0.236709  -0.050614   0.265372
     8  C   -0.331554   5.805549  -0.263275  -0.105795  -0.038948  -0.035582
     9  C   -0.450465  -0.263275   5.870391  -0.303413   0.065325  -0.157924
    10  C   -0.236709  -0.105795  -0.303413  13.385070  -3.128803   2.409112
    11  C   -0.050614  -0.038948   0.065325  -3.128803  11.473222  -5.965969
    12  C    0.265372  -0.035582  -0.157924   2.409112  -5.965969  16.072158
    13  C   -0.113017   0.041417   0.044972  -0.356463   2.111103  -4.267135
    14  C   -0.008987   0.009720   0.002754  -0.056919  -0.810237   1.570952
    15  N    0.000077  -0.000057   0.000004   0.000443   0.052211  -0.138662
    16  C    0.010844  -0.015396   0.026560  -0.159173   0.427739  -3.108612
    17  N   -0.009167   0.004418   0.001605  -0.008155  -0.006604   0.198961
    18  C    0.042497   0.049802  -0.057798   0.324153  -0.825271   0.804951
    19  O    0.016199  -0.000931   0.000009  -0.164030   0.021967  -0.002673
    20  O   -0.063237  -0.000397   0.004924   0.064734  -0.074136   0.030693
    21  H   -0.002191   0.000387  -0.000771  -0.011981   0.000476  -0.000362
    22  H    0.002366   0.001106  -0.001447  -0.001199  -0.000007  -0.000021
    23  H    0.225522  -0.009350   0.036333  -0.006025  -0.007942  -0.000679
    24  H   -0.063260   0.422693  -0.011379   0.009572   0.007613   0.001212
    25  H   -0.120038   0.451614   0.003637   0.017421   0.000269  -0.003838
    26  H   -0.119985   0.457920  -0.008393  -0.000012  -0.050265   0.009108
    27  H   -0.063000  -0.004396   0.445131   0.031459  -0.005845  -0.000830
    28  H   -0.094372  -0.000240   0.453821  -0.031006   0.007358   0.002346
    29  H   -0.188964  -0.014178   0.483789  -0.080992  -0.001188  -0.009767
    30  H   -0.045355   0.026521  -0.007208   0.337651   0.015073   0.025516
    31  H    0.014864  -0.005630  -0.003951  -0.053938   0.475437  -0.133791
    32  H   -0.022427   0.004896  -0.002538   0.020930   0.173025   0.161347
    33  H   -0.000956   0.000028   0.000204   0.007460   0.127920   0.058800
              13         14         15         16         17         18
     1  C    0.000180   0.000519  -0.000001  -0.001483  -0.000014   0.099339
     2  C   -0.003326  -0.005880  -0.000017   0.013266  -0.000179  -0.366525
     3  C   -0.000586  -0.001564   0.000008   0.001791  -0.000007  -0.242382
     4  N   -0.000016   0.000014  -0.000000  -0.000015   0.000000   0.009416
     5  C    0.102038  -0.017125   0.000069   0.008830   0.000031   0.394430
     6  C    0.368906   0.055084   0.000361  -0.010123   0.003697  -0.702934
     7  C   -0.113017  -0.008987   0.000077   0.010844  -0.009167   0.042497
     8  C    0.041417   0.009720  -0.000057  -0.015396   0.004418   0.049802
     9  C    0.044972   0.002754   0.000004   0.026560   0.001605  -0.057798
    10  C   -0.356463  -0.056919   0.000443  -0.159173  -0.008155   0.324153
    11  C    2.111103  -0.810237   0.052211   0.427739  -0.006604  -0.825271
    12  C   -4.267135   1.570952  -0.138662  -3.108612   0.198961   0.804951
    13  C   10.238917  -2.862904   0.437837  -0.462361   0.025934  -0.284546
    14  C   -2.862904  10.062050  -0.245283  -1.673968   0.071838  -0.014296
    15  N    0.437837  -0.245283   7.269546   0.096741  -0.002008   0.000076
    16  C   -0.462361  -1.673968   0.096741  11.376767  -0.054656  -0.117968
    17  N    0.025934   0.071838  -0.002008  -0.054656   7.237440   0.002239
    18  C   -0.284546  -0.014296   0.000076  -0.117968   0.002239   6.046424
    19  O   -0.016244   0.024669  -0.000335  -0.009293  -0.000009   0.446410
    20  O    0.000151   0.002604  -0.000022  -0.000975   0.000001   0.029893
    21  H   -0.000027  -0.000003   0.000000   0.000003  -0.000000  -0.002403
    22  H   -0.000003   0.000000  -0.000000  -0.000000  -0.000000   0.000230
    23  H    0.000851   0.000063  -0.000000  -0.000589   0.000024   0.008978
    24  H   -0.000588  -0.000051   0.000000   0.000880  -0.000026  -0.002381
    25  H   -0.001364  -0.000144  -0.000000   0.000797  -0.000027   0.000749
    26  H    0.011236   0.002200  -0.000002  -0.013564   0.001621   0.015288
    27  H    0.000035  -0.000012  -0.000000   0.000126  -0.000012   0.000682
    28  H    0.000673  -0.000028   0.000000  -0.000134   0.000008  -0.005099
    29  H    0.004734   0.000276   0.000001  -0.001024   0.000523   0.001011
    30  H    0.004368  -0.001946  -0.000043   0.003861  -0.000260  -0.041848
    31  H    0.009556  -0.018493   0.000363  -0.004288   0.006197   0.003337
    32  H    0.001958   0.005966  -0.000112   0.002831   0.000172   0.011208
    33  H    0.140268  -0.080524   0.002524   0.049511  -0.000290  -0.013893
              19         20         21         22         23         24
     1  C   -0.002360  -0.020044   0.438410   0.469147   0.001961  -0.002848
     2  C    0.000830  -0.193898  -0.012972  -0.105989  -0.024372   0.013365
     3  C   -0.007306   0.018082  -0.012266  -0.021881  -0.013673   0.000356
     4  N    0.000084  -0.000847  -0.000136  -0.000027   0.000228   0.000002
     5  C   -0.042489  -0.019040  -0.056248   0.016693   0.063587  -0.029313
     6  C    0.038186   0.092859   0.012719  -0.005612  -0.016851   0.011569
     7  C    0.016199  -0.063237  -0.002191   0.002366   0.225522  -0.063260
     8  C   -0.000931  -0.000397   0.000387   0.001106  -0.009350   0.422693
     9  C    0.000009   0.004924  -0.000771  -0.001447   0.036333  -0.011379
    10  C   -0.164030   0.064734  -0.011981  -0.001199  -0.006025   0.009572
    11  C    0.021967  -0.074136   0.000476  -0.000007  -0.007942   0.007613
    12  C   -0.002673   0.030693  -0.000362  -0.000021  -0.000679   0.001212
    13  C   -0.016244   0.000151  -0.000027  -0.000003   0.000851  -0.000588
    14  C    0.024669   0.002604  -0.000003   0.000000   0.000063  -0.000051
    15  N   -0.000335  -0.000022   0.000000  -0.000000  -0.000000   0.000000
    16  C   -0.009293  -0.000975   0.000003  -0.000000  -0.000589   0.000880
    17  N   -0.000009   0.000001  -0.000000  -0.000000   0.000024  -0.000026
    18  C    0.446410   0.029893  -0.002403   0.000230   0.008978  -0.002381
    19  O    8.210560  -0.055518   0.000019  -0.000001  -0.000017  -0.000001
    20  O   -0.055518   8.401150   0.000307  -0.000131   0.001028   0.000030
    21  H    0.000019   0.000307   0.517854  -0.029336  -0.000211  -0.000004
    22  H   -0.000001  -0.000131  -0.029336   0.503085  -0.000000   0.000000
    23  H   -0.000017   0.001028  -0.000211  -0.000000   0.619323  -0.004005
    24  H   -0.000001   0.000030  -0.000004   0.000000  -0.004005   0.536955
    25  H    0.000042  -0.000225   0.000140   0.000000  -0.004311  -0.025529
    26  H   -0.000090   0.000163  -0.000001  -0.000000   0.005265  -0.025864
    27  H   -0.000001  -0.000018  -0.000000  -0.000000  -0.005126   0.002934
    28  H    0.000017  -0.000364  -0.000002  -0.000001  -0.003804   0.000099
    29  H   -0.000029   0.000320  -0.000001   0.000000   0.005490  -0.000170
    30  H   -0.000955   0.010067   0.000004  -0.000000  -0.000047   0.000024
    31  H   -0.000511  -0.000782   0.000000  -0.000000   0.000001  -0.000001
    32  H   -0.001676   0.001482  -0.000000  -0.000000  -0.000003   0.000000
    33  H   -0.002525   0.000573   0.000000   0.000000   0.000000   0.000000
              25         26         27         28         29         30
     1  C   -0.002007   0.000463  -0.003722  -0.002656   0.000203   0.003082
     2  C    0.010928  -0.023166  -0.000370   0.047496   0.002845  -0.003175
     3  C   -0.000233  -0.000029  -0.000730  -0.009961   0.001274  -0.005078
     4  N    0.000005  -0.000001   0.000022   0.000276  -0.000015   0.000021
     5  C   -0.019510   0.027313  -0.020255  -0.024510   0.030215   0.004665
     6  C    0.019802   0.038127  -0.020448   0.015883   0.114474  -0.051388
     7  C   -0.120038  -0.119985  -0.063000  -0.094372  -0.188964  -0.045355
     8  C    0.451614   0.457920  -0.004396  -0.000240  -0.014178   0.026521
     9  C    0.003637  -0.008393   0.445131   0.453821   0.483789  -0.007208
    10  C    0.017421  -0.000012   0.031459  -0.031006  -0.080992   0.337651
    11  C    0.000269  -0.050265  -0.005845   0.007358  -0.001188   0.015073
    12  C   -0.003838   0.009108  -0.000830   0.002346  -0.009767   0.025516
    13  C   -0.001364   0.011236   0.000035   0.000673   0.004734   0.004368
    14  C   -0.000144   0.002200  -0.000012  -0.000028   0.000276  -0.001946
    15  N   -0.000000  -0.000002  -0.000000   0.000000   0.000001  -0.000043
    16  C    0.000797  -0.013564   0.000126  -0.000134  -0.001024   0.003861
    17  N   -0.000027   0.001621  -0.000012   0.000008   0.000523  -0.000260
    18  C    0.000749   0.015288   0.000682  -0.005099   0.001011  -0.041848
    19  O    0.000042  -0.000090  -0.000001   0.000017  -0.000029  -0.000955
    20  O   -0.000225   0.000163  -0.000018  -0.000364   0.000320   0.010067
    21  H    0.000140  -0.000001  -0.000000  -0.000002  -0.000001   0.000004
    22  H    0.000000  -0.000000  -0.000000  -0.000001   0.000000  -0.000000
    23  H   -0.004311   0.005265  -0.005126  -0.003804   0.005490  -0.000047
    24  H   -0.025529  -0.025864   0.002934   0.000099  -0.000170   0.000024
    25  H    0.550692  -0.029491   0.000103  -0.000150   0.000028   0.000213
    26  H   -0.029491   0.539250  -0.000115   0.000032   0.002659  -0.001144
    27  H    0.000103  -0.000115   0.540905  -0.025811  -0.027657   0.000005
    28  H   -0.000150   0.000032  -0.025811   0.541911  -0.028512  -0.000003
    29  H    0.000028   0.002659  -0.027657  -0.028512   0.557824   0.000058
    30  H    0.000213  -0.001144   0.000005  -0.000003   0.000058   0.527907
    31  H    0.000022   0.001026   0.000064  -0.000063   0.001794  -0.004324
    32  H   -0.000002   0.000006   0.000016   0.000014  -0.000021   0.004423
    33  H    0.000000  -0.000000   0.000000   0.000000  -0.000001  -0.000150
              31         32         33
     1  C    0.000610   0.000396   0.000113
     2  C   -0.004798   0.009241  -0.000602
     3  C   -0.000905  -0.002423  -0.000183
     4  N    0.000002   0.000050  -0.000001
     5  C    0.012060  -0.032601   0.007012
     6  C    0.026922  -0.020817   0.019023
     7  C    0.014864  -0.022427  -0.000956
     8  C   -0.005630   0.004896   0.000028
     9  C   -0.003951  -0.002538   0.000204
    10  C   -0.053938   0.020930   0.007460
    11  C    0.475437   0.173025   0.127920
    12  C   -0.133791   0.161347   0.058800
    13  C    0.009556   0.001958   0.140268
    14  C   -0.018493   0.005966  -0.080524
    15  N    0.000363  -0.000112   0.002524
    16  C   -0.004288   0.002831   0.049511
    17  N    0.006197   0.000172  -0.000290
    18  C    0.003337   0.011208  -0.013893
    19  O   -0.000511  -0.001676  -0.002525
    20  O   -0.000782   0.001482   0.000573
    21  H    0.000000  -0.000000   0.000000
    22  H   -0.000000  -0.000000   0.000000
    23  H    0.000001  -0.000003   0.000000
    24  H   -0.000001   0.000000   0.000000
    25  H    0.000022  -0.000002   0.000000
    26  H    0.001026   0.000006  -0.000000
    27  H    0.000064   0.000016   0.000000
    28  H   -0.000063   0.000014   0.000000
    29  H    0.001794  -0.000021  -0.000001
    30  H   -0.004324   0.004423  -0.000150
    31  H    0.540768  -0.028681   0.003430
    32  H   -0.028681   0.529286  -0.002258
    33  H    0.003430  -0.002258   0.485980
 Mulliken charges:
               1
     1  C   -0.275810
     2  C    0.066683
     3  C    0.023028
     4  N   -0.489527
     5  C    0.785488
     6  C   -0.509642
     7  C    0.221107
     8  C   -0.527612
     9  C   -0.583555
    10  C   -0.125609
    11  C   -0.290257
    12  C    0.386145
    13  C    0.823446
    14  C   -0.010346
    15  N   -0.473719
    16  C   -0.386927
    17  N   -0.473298
    18  C    0.386228
    19  O   -0.451997
    20  O   -0.229430
    21  H    0.158594
    22  H    0.173029
    23  H    0.128351
    24  H    0.158114
    25  H    0.150404
    26  H    0.160445
    27  H    0.156866
    28  H    0.156782
    29  H    0.145003
    30  H    0.199466
    31  H    0.163702
    32  H    0.186311
    33  H    0.198537
 Sum of Mulliken charges =  -0.00000
 Mulliken charges with hydrogens summed into heavy atoms:
               1
     1  C    0.055813
     2  C    0.066683
     3  C    0.023028
     4  N   -0.489527
     5  C    0.785488
     6  C   -0.509642
     7  C    0.349458
     8  C   -0.058649
     9  C   -0.124904
    10  C    0.073856
    11  C    0.059757
    12  C    0.584682
    13  C    0.823446
    14  C   -0.010346
    15  N   -0.473719
    16  C   -0.386927
    17  N   -0.473298
    18  C    0.386228
    19  O   -0.451997
    20  O   -0.229430
 Electronic spatial extent (au):  <R**2>=           6687.5722
 Charge=             -0.0000 electrons
 Dipole moment (field-independent basis, Debye):
    X=              4.4679    Y=              5.1174    Z=             -2.0170  Tot=              7.0865
 Quadrupole moment (field-independent basis, Debye-Ang):
   XX=           -157.2640   YY=           -137.2720   ZZ=           -117.6029
   XY=             14.6843   XZ=            -16.3009   YZ=             -1.8257
 Traceless Quadrupole moment (field-independent basis, Debye-Ang):
   XX=            -19.8844   YY=              0.1076   ZZ=             19.7768
   XY=             14.6843   XZ=            -16.3009   YZ=             -1.8257
 Octapole moment (field-independent basis, Debye-Ang**2):
  XXX=            216.1689  YYY=             24.2992  ZZZ=            -16.9599  XYY=             44.6167
  XXY=             84.8883  XXZ=            -64.1907  XZZ=            -14.1399  YZZ=              6.5630
  YYZ=             -3.6324  XYZ=             24.1943
 Hexadecapole moment (field-independent basis, Debye-Ang**3):
 XXXX=          -8474.6557 YYYY=          -2090.0706 ZZZZ=           -567.7916 XXXY=             29.8317
 XXXZ=           -433.1580 YYYX=            105.9455 YYYZ=            -14.4566 ZZZX=            -60.5798
 ZZZY=             17.9787 XXYY=          -1848.9969 XXZZ=          -1336.8063 YYZZ=           -435.8910
 XXYZ=             31.8473 YYXZ=            -39.3649 ZZXY=             51.6735
 N-N= 1.392966589012D+03 E-N=-4.860264016696D+03  KE= 8.856280548192D+02
 Unable to Open any file for archive entry.
 1\1\GINC-N1\SP\RB3LYP TD-FC\6-31+G(d,p)\C15H13N3O2\HPCMGAC13\29-Jul-20
 25\0\\# td=(50-50,nstates=3) b3lyp/6-31+g(d,p) geom=connectivity\\Titl
 e Card Required\\0,1\C,0,4.355637,0.524108,-1.066981\C,0,3.630779,-0.2
 3978,-0.229946\C,0,4.281564,-0.991171,0.81413\N,0,4.794637,-1.588697,1
 .669977\C,0,2.16157,-0.371748,-0.310169\C,0,1.163355,0.528461,-0.27485
 2\C,0,1.296028,2.031236,-0.14652\C,0,0.456292,2.772205,-1.205499\C,0,0
 .988222,2.548034,1.277403\C,0,-0.132598,-0.249108,-0.442018\C,0,-1.224
 254,-0.047198,0.649464\C,0,-2.477531,-0.821643,0.375698\C,0,-3.70524,-
 0.267064,0.228045\C,0,-4.867269,-1.076882,-0.019495\N,0,-5.808832,-1.7
 29173,-0.218971\C,0,-3.918385,1.154144,0.307176\N,0,-4.069544,2.305799
 ,0.367874\C,0,0.355527,-1.700013,-0.49732\O,0,-0.285994,-2.714974,-0.5
 80566\O,0,1.725133,-1.702241,-0.422253\H,0,3.880079,1.065396,-1.877293
 \H,0,5.431004,0.611439,-0.957288\H,0,2.347769,2.268605,-0.336949\H,0,0
 .639201,3.849539,-1.144399\H,0,0.707262,2.444852,-2.220174\H,0,-0.6179
 85,2.618092,-1.054996\H,0,1.229864,3.614266,1.340626\H,0,1.585241,2.02
 1209,2.028068\H,0,-0.067369,2.440545,1.54256\H,0,-0.584156,-0.018663,-
 1.417743\H,0,-1.451658,1.016806,0.731095\H,0,-0.81721,-0.37076,1.61690
 3\H,0,-2.391167,-1.900602,0.285287\\Version=ES64L-G16RevC.02\State=1-A
 \HF=-894.0724517\RMSD=7.204e-09\PG=C01 [X(C15H13N3O2)]\\@
 The archive entry for this job was punched.


 DO YOU KNOW THAT THE LETTERS IN "EPISCOPAL", WHEN
 REARRANGED, SPELL "PEPSI COLA"?
 Job cpu time:       0 days  1 hours 10 minutes 25.8 seconds.
 Elapsed time:       0 days  0 hours  4 minutes 31.2 seconds.
 File lengths (MBytes):  RWF=   1144 Int=      0 D2E=      0 Chk=     52 Scr=      2
 Normal termination of Gaussian 16 at Tue Jul 29 21:43:12 2025.
