 Entering Gaussian System, Link 0=g16
 Input=M2675E.gjf
 Output=M2675E.log
 Initial command:
 /hpc/softwares/Gaussian/g16/l1.exe "/hpc/home/hpcmgac13/pbs.12412.admin1.x8z/Gau-1775046.inp" -scrdir="/hpc/home/hpcmgac13/pbs.12412.admin1.x8z/"
 Default linda workers: n1
 Default is to use  16 SMP processors on each worker.
 Entering Link 1 = /hpc/softwares/Gaussian/g16/l1.exe PID=   1775047.
  
 Copyright (c) 1988-2021, Gaussian, Inc.  All Rights Reserved.
  
 This is part of the Gaussian(R) 16 program.  It is based on
 the Gaussian(R) 09 system (copyright 2009, Gaussian, Inc.),
 the Gaussian(R) 03 system (copyright 2003, Gaussian, Inc.),
 the Gaussian(R) 98 system (copyright 1998, Gaussian, Inc.),
 the Gaussian(R) 94 system (copyright 1995, Gaussian, Inc.),
 the Gaussian 92(TM) system (copyright 1992, Gaussian, Inc.),
 the Gaussian 90(TM) system (copyright 1990, Gaussian, Inc.),
 the Gaussian 88(TM) system (copyright 1988, Gaussian, Inc.),
 the Gaussian 86(TM) system (copyright 1986, Carnegie Mellon
 University), and the Gaussian 82(TM) system (copyright 1983,
 Carnegie Mellon University). Gaussian is a federally registered
 trademark of Gaussian, Inc.
  
 This software contains proprietary and confidential information,
 including trade secrets, belonging to Gaussian, Inc.
  
 This software is provided under written license and may be
 used, copied, transmitted, or stored only in accord with that
 written license.
  
 The following legend is applicable only to US Government
 contracts under FAR:
  
                    RESTRICTED RIGHTS LEGEND
  
 Use, reproduction and disclosure by the US Government is
 subject to restrictions as set forth in subparagraphs (a)
 and (c) of the Commercial Computer Software - Restricted
 Rights clause in FAR 52.227-19.
  
 Gaussian, Inc.
 340 Quinnipiac St., Bldg. 40, Wallingford CT 06492
  
  
 ---------------------------------------------------------------
 Warning -- This program may not be used in any manner that
 competes with the business of Gaussian, Inc. or will provide
 assistance to any competitor of Gaussian, Inc.  The licensee
 of this program is prohibited from giving any competitor of
 Gaussian, Inc. access to this program.  By using this program,
 the user acknowledges that Gaussian, Inc. is engaged in the
 business of creating and licensing software in the field of
 computational chemistry and represents and warrants to the
 licensee that it is not a competitor of Gaussian, Inc. and that
 it will not use this program in any manner prohibited above.
 ---------------------------------------------------------------
  

 Cite this work as:
 Gaussian 16, Revision C.02,
 M. J. Frisch, G. W. Trucks, H. B. Schlegel, G. E. Scuseria, 
 M. A. Robb, J. R. Cheeseman, G. Scalmani, V. Barone, 
 G. A. Petersson, H. Nakatsuji, X. Li, M. Caricato, A. V. Marenich, 
 J. Bloino, B. G. Janesko, R. Gomperts, B. Mennucci, H. P. Hratchian, 
 J. V. Ortiz, A. F. Izmaylov, J. L. Sonnenberg, D. Williams-Young, 
 F. Ding, F. Lipparini, F. Egidi, J. Goings, B. Peng, A. Petrone, 
 T. Henderson, D. Ranasinghe, V. G. Zakrzewski, J. Gao, N. Rega, 
 G. Zheng, W. Liang, M. Hada, M. Ehara, K. Toyota, R. Fukuda, 
 J. Hasegawa, M. Ishida, T. Nakajima, Y. Honda, O. Kitao, H. Nakai, 
 T. Vreven, K. Throssell, J. A. Montgomery, Jr., J. E. Peralta, 
 F. Ogliaro, M. J. Bearpark, J. J. Heyd, E. N. Brothers, K. N. Kudin, 
 V. N. Staroverov, T. A. Keith, R. Kobayashi, J. Normand, 
 K. Raghavachari, A. P. Rendell, J. C. Burant, S. S. Iyengar, 
 J. Tomasi, M. Cossi, J. M. Millam, M. Klene, C. Adamo, R. Cammi, 
 J. W. Ochterski, R. L. Martin, K. Morokuma, O. Farkas, 
 J. B. Foresman, and D. J. Fox, Gaussian, Inc., Wallingford CT, 2019.
 
 ******************************************
 Gaussian 16:  ES64L-G16RevC.02  7-Dec-2021
                29-Jul-2025 
 ******************************************
 SetLPE:    new flags="-opt 'Tsnet.Node.lindarsharg: ssh'  -nodelist 'n1' -env GAUSS_MDEF=2147483648 -env GAUSS_EXEDIR="/hpc/softwares/Gaussian/g16/bsd:/hpc/softwares/Gaussian/g16""
 Will use up to    1 processors via Linda.
 ----------------------------------------------------------
 # td=(50-50,nstates=3) b3lyp/6-31+g(d,p) geom=connectivity
 ----------------------------------------------------------
 1/38=1,57=2,172=1/1;
 2/12=2,17=6,18=5,40=1/2;
 3/5=1,6=6,7=111,11=9,25=1,30=1,74=-5/1,2,3,8;
 4//1;
 5/5=2,38=5/2;
 8/6=1,10=2,108=3/1;
 9/41=3,42=1,48=2,70=2/14;
 6/7=2,8=2,9=2,10=2/1;
 99/5=1,9=1/99;
 -------------------
 Title Card Required
 -------------------
 Symbolic Z-matrix:
 Charge =  0 Multiplicity = 1
 C                    -5.3577   -2.24245   0.45916 
 C                    -4.85606  -1.10559  -0.43871 
 C                    -3.55884  -0.46388   0.06999 
 C                    -3.05327   0.6807   -0.83243 
 C                    -1.7746    1.3159   -0.32917 
 C                    -1.80831   2.3712    0.59677 
 C                    -0.62675   2.93005   1.08106 
 C                     0.61412   2.44717   0.65199 
 C                     0.66903   1.39633  -0.26748 
 C                     1.99194   0.80445  -0.77179 
 C                     3.14762   1.66648  -0.46735 
 N                     4.06726   2.33499  -0.22946 
 C                     2.25262  -0.62203  -0.26413 
 C                     2.52039  -1.64933  -1.17477 
 C                     2.76156  -2.95146  -0.72509 
 C                     2.7406   -3.23329   0.64185 
 C                     2.47641  -2.20827   1.55655 
 C                     2.23159  -0.91064   1.10656 
 C                    -0.52602   0.84433  -0.74945 
 H                    -6.2835   -2.67968   0.06994 
 H                    -4.61523  -3.04577   0.53309 
 H                    -5.56008  -1.88458   1.47555 
 H                    -5.63391  -0.33369  -0.52096 
 H                    -4.69624  -1.48687  -1.45692 
 H                    -2.77582  -1.2302    0.15059 
 H                    -3.71384  -0.07816   1.08697 
 H                    -3.83584   1.44646  -0.90964 
 H                    -2.8955    0.29254  -1.84678 
 H                    -2.76714   2.76034   0.93069 
 H                    -0.6657    3.75215   1.78994 
 H                     1.52894   2.89971   1.02199 
 H                     1.93862   0.75608  -1.86698 
 H                     2.54544  -1.43405  -2.24027 
 H                     2.96681  -3.74004  -1.44316 
 H                     2.92933  -4.24312   0.99402 
 H                     2.45997  -2.41999   2.62167 
 H                     2.02045  -0.12066   1.82158 
 H                    -0.48368   0.02656  -1.46644 
 
                          Input orientation:                          
 ---------------------------------------------------------------------
 Center     Atomic      Atomic             Coordinates (Angstroms)
 Number     Number       Type             X           Y           Z
 ---------------------------------------------------------------------
      1          6           0       -5.357701   -2.242450    0.459155
      2          6           0       -4.856057   -1.105589   -0.438711
      3          6           0       -3.558840   -0.463877    0.069987
      4          6           0       -3.053267    0.680701   -0.832430
      5          6           0       -1.774595    1.315904   -0.329172
      6          6           0       -1.808308    2.371198    0.596774
      7          6           0       -0.626747    2.930046    1.081056
      8          6           0        0.614119    2.447171    0.651985
      9          6           0        0.669031    1.396328   -0.267478
     10          6           0        1.991942    0.804448   -0.771786
     11          6           0        3.147624    1.666484   -0.467352
     12          7           0        4.067257    2.334989   -0.229455
     13          6           0        2.252621   -0.622026   -0.264129
     14          6           0        2.520394   -1.649330   -1.174774
     15          6           0        2.761557   -2.951462   -0.725085
     16          6           0        2.740599   -3.233292    0.641846
     17          6           0        2.476409   -2.208273    1.556545
     18          6           0        2.231593   -0.910637    1.106562
     19          6           0       -0.526020    0.844328   -0.749449
     20          1           0       -6.283502   -2.679677    0.069942
     21          1           0       -4.615234   -3.045773    0.533089
     22          1           0       -5.560076   -1.884575    1.475553
     23          1           0       -5.633907   -0.333686   -0.520955
     24          1           0       -4.696241   -1.486871   -1.456917
     25          1           0       -2.775822   -1.230199    0.150592
     26          1           0       -3.713837   -0.078157    1.086970
     27          1           0       -3.835836    1.446456   -0.909635
     28          1           0       -2.895497    0.292544   -1.846776
     29          1           0       -2.767143    2.760335    0.930690
     30          1           0       -0.665702    3.752151    1.789943
     31          1           0        1.528935    2.899708    1.021991
     32          1           0        1.938615    0.756079   -1.866981
     33          1           0        2.545443   -1.434053   -2.240268
     34          1           0        2.966811   -3.740039   -1.443155
     35          1           0        2.929333   -4.243116    0.994023
     36          1           0        2.459965   -2.419986    2.621667
     37          1           0        2.020445   -0.120657    1.821584
     38          1           0       -0.483681    0.026563   -1.466440
 ---------------------------------------------------------------------
                    Distance matrix (angstroms):
                    1          2          3          4          5
     1  C    0.000000
     2  C    1.533057   0.000000
     3  C    2.559429   1.534060   0.000000
     4  C    3.939977   2.568248   1.542731   0.000000
     5  C    5.110968   3.920591   2.551564   1.513854   0.000000
     6  C    5.822618   4.738043   3.373354   2.539749   1.404335
     7  C    7.037287   6.040125   4.597624   3.822170   2.431410
     8  C    7.595549   6.613210   5.121182   4.332854   2.819289
     9  C    7.077443   6.067578   4.631321   3.832335   2.445727
    10  C    8.050842   7.117181   5.755729   5.047091   3.826787
    11  C    9.406313   8.470190   7.057183   6.289364   4.936622
    12  N   10.500332   9.565924   8.129002   7.334992   5.930912
    13  C    7.814468   7.127245   5.823206   5.492951   4.469706
    14  C    8.067583   7.432999   6.317580   6.050780   5.287210
    15  C    8.235744   7.843297   6.838687   6.856844   6.240500
    16  C    8.160736   7.962657   6.905043   7.145748   6.482672
    17  C    7.910671   7.678673   6.455773   6.680620   5.834962
    18  C    7.732415   7.256766   5.899423   5.849939   4.802953
    19  C    5.859528   4.758987   3.403068   2.533898   1.399270
    20  H    1.095336   2.184967   3.511916   4.747719   6.037732
    21  H    1.096381   2.183278   2.827829   4.265090   5.276073
    22  H    1.096401   2.183316   2.828240   4.265152   5.275411
    23  H    2.163397   1.098931   2.161496   2.790287   4.201454
    24  H    2.163275   1.098936   2.161396   2.790648   4.202781
    25  H    2.790334   2.165683   1.098574   2.166760   2.777637
    26  H    2.789374   2.165176   1.098662   2.167098   2.776603
    27  H    4.218730   2.788468   2.164661   1.097614   2.145389
    28  H    4.219711   2.789484   2.164758   1.097477   2.146348
    29  H    5.653423   4.602629   3.429743   2.741411   2.158422
    30  H    7.727942   6.791437   5.394756   4.691600   3.414029
    31  H    8.613032   7.677511   6.172963   5.418436   3.904790
    32  H    8.224251   7.188416   5.955010   5.098516   4.057855
    33  H    8.390475   7.624677   6.598545   6.148150   5.466011
    34  H    8.669432   8.315437   7.457007   7.493815   7.020288
    35  H    8.541878   8.515228   7.565241   7.960616   7.401384
    36  H    8.113192   8.038515   6.823741   7.206995   6.371485
    37  H    7.797131   7.305156   5.857842   5.781740   4.592580
    38  H    5.710727   4.632026   3.472426   2.726286   2.149939
                    6          7          8          9         10
     6  C    0.000000
     7  C    1.393889   0.000000
     8  C    2.424247   1.398935   0.000000
     9  C    2.799020   2.418652   1.397390   0.000000
    10  C    4.332385   3.848210   2.573725   1.534517   0.000000
    11  C    5.117641   4.270835   2.877679   2.501271   1.473563
    12  N    5.933484   4.909705   3.565625   3.525687   2.635073
    13  C    5.117782   4.766288   3.597767   2.565448   1.536391
    14  C    6.167713   5.996995   4.873628   3.677875   2.542182
    15  C    7.138745   7.023880   5.971018   4.846787   3.834234
    16  C    7.218372   7.036950   6.065450   5.152829   4.343062
    17  C    6.344408   6.021461   5.095048   4.425700   3.838271
    18  C    5.229830   4.787651   3.754695   3.106714   2.554827
    19  C    2.405808   2.776889   2.415169   1.401837   2.518377
    20  H    6.768770   8.030580   8.613972   8.066312   9.018348
    21  H    6.101349   7.205464   7.585031   6.949577   7.757685
    22  H    5.741047   6.904632   7.587027   7.252879   8.325524
    23  H    4.816734   6.187894   6.938788   6.540965   7.714392
    24  H    5.238559   6.520065   6.937152   6.205944   7.102911
    25  H    3.755692   4.774089   5.026544   4.352061   5.265182
    26  H    3.141763   4.310388   5.029682   4.818523   6.065466
    27  H    2.689849   4.057357   4.821015   4.550682   5.864655
    28  H    3.387288   4.547070   4.817014   4.051960   5.030379
    29  H    1.087333   2.152372   3.407151   3.886311   5.419669
    30  H    2.153191   1.086230   2.153105   3.400646   4.723820
    31  H    3.405484   2.156704   1.085625   2.159240   2.796806
    32  H    4.766354   4.471928   3.310479   2.140134   1.097559
    33  H    6.440799   6.335562   5.211434   3.927325   2.733805
    34  H    8.019370   7.985946   6.943078   5.748415   4.696112
    35  H    8.145686   8.006718   7.087817   6.205133   5.429059
    36  H    6.728580   6.365855   5.565610   5.110661   4.704417
    37  H    4.729572   4.106433   3.152690   2.914060   2.753579
    38  H    3.392463   3.865284   3.398858   2.154649   2.686328
                   11         12         13         14         15
    11  C    0.000000
    12  N    1.161559   0.000000
    13  C    2.465686   3.469588   0.000000
    14  C    3.447968   4.377352   1.398689   0.000000
    15  C    4.641217   5.467821   2.428532   1.398545   0.000000
    16  C    5.040218   5.790073   2.806710   2.420234   1.395839
    17  C    4.422718   5.134377   2.425101   2.788271   2.416501
    18  C    3.155609   3.960895   1.400904   2.415278   2.792984
    19  C    3.775073   4.857021   3.179084   3.959782   5.021631
    20  H   10.398266  11.505422   8.786975   8.950951   9.083998
    21  H    9.136094  10.243033   7.326496   7.468871   7.483912
    22  H    9.602549  10.648817   8.103009   8.507266   8.673559
    23  H    9.006600  10.065753   7.895975   8.285591   8.796490
    24  H    8.511704   9.639096   7.103336   7.223975   7.635401
    25  H    6.622676   7.725460   5.082038   5.475598   5.864480
    26  H    7.248402   8.252374   6.141651   6.815402   7.312329
    27  H    7.000910   7.981918   6.462554   7.075016   7.931036
    28  H    6.349003   7.434195   5.462996   5.792611   6.616950
    29  H    6.175395   6.945205   6.169764   7.199734   8.119898
    30  H    4.897636   5.337342   5.645285   6.936624   7.937877
    31  H    2.521733   2.885845   3.818434   5.148059   6.229592
    32  H    2.061432   3.115376   2.137032   2.569749   3.965731
    33  H    3.622041   4.534861   2.156446   1.087313   2.155230
    34  H    5.496851   6.292060   3.409131   2.154618   1.086097
    35  H    6.091522   6.786990   3.892708   3.405677   2.156815
    36  H    5.168573   5.772527   3.406387   3.874342   3.402084
    37  H    3.115066   3.798210   2.157655   3.400728   3.879204
    38  H    4.107785   5.250714   3.058360   3.452268   4.466521
                   16         17         18         19         20
    16  C    0.000000
    17  C    1.398976   0.000000
    18  C    2.422762   1.395091   0.000000
    19  C    5.406800   4.863184   3.758871   0.000000
    20  H    9.059137   8.897654   8.758477   6.799898   0.000000
    21  H    7.359026   7.213894   7.194909   5.787872   1.769647
    22  H    8.450758   8.043409   7.860968   6.143229   1.769541
    23  H    8.938242   8.579470   8.052812   5.246945   2.504956
    24  H    7.922208   7.813340   7.409342   4.829673   2.504692
    25  H    5.889364   5.524424   5.107857   3.189882   3.796223
    26  H    7.198108   6.563310   6.003461   3.792834   3.795449
    27  H    8.219284   7.699580   6.814296   3.367952   4.896490
    28  H    7.098615   6.833305   6.037955   2.668897   4.897600
    29  H    8.145073   7.250765   6.204380   3.393609   6.534478
    30  H    7.856044   6.741957   5.531991   3.863089   8.711285
    31  H    6.263093   5.222540   3.875514   3.403737   9.647285
    32  H    4.780426   4.560388   3.421365   2.707599   9.119172
    33  H    3.403223   3.875561   3.402020   4.104564   9.210804
    34  H    2.157590   3.403675   3.879061   5.804956   9.433033
    35  H    1.085999   2.159203   3.406600   6.392280   9.390133
    36  H    2.158683   1.086084   2.150775   5.562039   9.111913
    37  H    3.405716   2.153204   1.086236   3.745116   8.864106
    38  H    5.046534   4.784879   3.856345   1.088397   6.581955
                   21         22         23         24         25
    21  H    0.000000
    22  H    1.768996   0.000000
    23  H    3.082875   2.529180   0.000000
    24  H    2.529202   3.082817   1.756439   0.000000
    25  H    2.612671   3.152110   3.069749   2.517533   0.000000
    26  H    3.150563   2.612038   2.517417   3.069357   1.756097
    27  H    4.782158   4.444985   2.559890   3.105515   3.067930
    28  H    4.445853   4.783064   3.106261   2.561442   2.514468
    29  H    6.106097   5.447251   4.460782   5.240310   4.066078
    30  H    7.961800   7.471708   6.835011   7.364421   5.653662
    31  H    8.563795   8.564412   8.008859   8.008738   6.028798
    32  H    7.947789   8.624149   7.768041   7.015717   5.499256
    33  H    7.846301   8.928031   8.430220   7.284121   5.837262
    34  H    7.866063   9.201598   9.296561   7.987448   6.466619
    35  H    7.652881   8.824095   9.534562   8.470736   6.506753
    36  H    7.403527   8.119193   8.929697   8.289562   5.910607
    37  H    7.365376   7.790728   8.007620   7.597959   5.198796
    38  H    5.523323   6.170702   5.248671   4.476185   3.073785
                   26         27         28         29         30
    26  H    0.000000
    27  H    2.515106   0.000000
    28  H    3.068219   1.758972   0.000000
    29  H    2.996279   2.501036   3.717632   0.000000
    30  H    4.945357   4.759590   5.492412   2.477513   0.000000
    31  H    6.029806   5.884207   5.882408   4.299308   2.476457
    32  H    6.432106   5.893846   4.856327   5.829937   5.397407
    33  H    7.217171   7.126615   5.721870   7.474720   7.311003
    34  H    8.027576   8.570903   7.126801   8.987115   8.932020
    35  H    7.841379   9.042270   7.910183   9.027856   8.802389
    36  H    6.779033   8.188808   7.483701   7.551012   6.968273
    37  H    5.781302   6.649167   6.147689   5.658163   4.713282
    38  H    4.118832   3.682808   2.456066   4.293476   4.951481
                   31         32         33         34         35
    31  H    0.000000
    32  H    3.620655   0.000000
    33  H    5.518796   2.303098   0.000000
    34  H    7.227079   4.631619   2.475987   0.000000
    35  H    7.278862   5.844554   4.301028   2.488841   0.000000
    36  H    5.632488   5.523328   4.961631   4.303744   2.488641
    37  H    3.162837   3.792212   4.301078   4.965285   4.301814
    38  H    4.300916   2.561278   3.450768   5.108202   5.994389
                   36         37         38
    36  H    0.000000
    37  H    2.473909   0.000000
    38  H    5.600292   4.135628   0.000000
 Stoichiometry    C18H19N
 Framework group  C1[X(C18H19N)]
 Deg. of freedom   108
 Full point group                 C1      NOp   1
 Largest Abelian subgroup         C1      NOp   1
 Largest concise Abelian subgroup C1      NOp   1
                         Standard orientation:                         
 ---------------------------------------------------------------------
 Center     Atomic      Atomic             Coordinates (Angstroms)
 Number     Number       Type             X           Y           Z
 ---------------------------------------------------------------------
      1          6           0        5.357701    2.242450    0.459155
      2          6           0        4.856057    1.105589   -0.438711
      3          6           0        3.558840    0.463877    0.069987
      4          6           0        3.053267   -0.680701   -0.832430
      5          6           0        1.774595   -1.315904   -0.329172
      6          6           0        1.808308   -2.371198    0.596774
      7          6           0        0.626747   -2.930046    1.081056
      8          6           0       -0.614119   -2.447171    0.651985
      9          6           0       -0.669031   -1.396328   -0.267478
     10          6           0       -1.991942   -0.804448   -0.771786
     11          6           0       -3.147624   -1.666484   -0.467352
     12          7           0       -4.067257   -2.334989   -0.229455
     13          6           0       -2.252621    0.622026   -0.264129
     14          6           0       -2.520394    1.649330   -1.174774
     15          6           0       -2.761557    2.951462   -0.725085
     16          6           0       -2.740599    3.233292    0.641846
     17          6           0       -2.476409    2.208273    1.556545
     18          6           0       -2.231593    0.910637    1.106562
     19          6           0        0.526020   -0.844328   -0.749449
     20          1           0        6.283502    2.679677    0.069942
     21          1           0        4.615234    3.045773    0.533089
     22          1           0        5.560076    1.884575    1.475553
     23          1           0        5.633907    0.333686   -0.520955
     24          1           0        4.696241    1.486871   -1.456917
     25          1           0        2.775822    1.230199    0.150592
     26          1           0        3.713837    0.078157    1.086970
     27          1           0        3.835836   -1.446456   -0.909635
     28          1           0        2.895497   -0.292544   -1.846776
     29          1           0        2.767143   -2.760335    0.930690
     30          1           0        0.665702   -3.752151    1.789943
     31          1           0       -1.528935   -2.899708    1.021991
     32          1           0       -1.938615   -0.756079   -1.866981
     33          1           0       -2.545443    1.434053   -2.240268
     34          1           0       -2.966811    3.740039   -1.443155
     35          1           0       -2.929333    4.243116    0.994023
     36          1           0       -2.459965    2.419986    2.621667
     37          1           0       -2.020445    0.120657    1.821584
     38          1           0        0.483681   -0.026563   -1.466440
 ---------------------------------------------------------------------
 Rotational constants (GHZ):           0.4609807           0.2254086           0.1683326
 Standard basis: 6-31+G(d,p) (6D, 7F)
 There are   456 symmetry adapted cartesian basis functions of A   symmetry.
 There are   456 symmetry adapted basis functions of A   symmetry.
   456 basis functions,   741 primitive gaussians,   456 cartesian basis functions
    67 alpha electrons       67 beta electrons
       nuclear repulsion energy      1273.0472647269 Hartrees.
 NAtoms=   38 NActive=   38 NUniq=   38 SFac= 1.00D+00 NAtFMM=   60 NAOKFM=F Big=F
 Integral buffers will be    131072 words long.
 Regular integral format.
 Two-electron integral symmetry is turned on.
 One-electron integrals computed using PRISM.
 NBasis=   456 RedAO= T EigKep=  1.26D-06  NBF=   456
 NBsUse=   455 1.00D-06 EigRej=  7.29D-07 NBFU=   455
 ExpMin= 4.38D-02 ExpMax= 4.17D+03 ExpMxC= 6.27D+02 IAcc=3 IRadAn=         5 AccDes= 0.00D+00
 Harris functional with IExCor=  402 and IRadAn=       5 diagonalized for initial guess.
 HarFok:  IExCor=  402 AccDes= 0.00D+00 IRadAn=         5 IDoV= 1 UseB2=F ITyADJ=14
 ICtDFT=  3500011 ScaDFX=  1.000000  1.000000  1.000000  1.000000
 FoFCou: FMM=F IPFlag=           0 FMFlag=      100000 FMFlg1=           0
         NFxFlg=           0 DoJE=T BraDBF=F KetDBF=T FulRan=T
         wScrn=  0.000000 ICntrl=       500 IOpCl=  0 I1Cent=   200000004 NGrid=           0
         NMat0=    1 NMatS0=      1 NMatT0=    0 NMatD0=    1 NMtDS0=    0 NMtDT0=    0
 Petite list used in FoFCou.
 Requested convergence on RMS density matrix=1.00D-08 within 128 cycles.
 Requested convergence on MAX density matrix=1.00D-06.
 Requested convergence on             energy=1.00D-06.
 No special actions if energy rises.
 SCF Done:  E(RB3LYP) =  -752.161235018     A.U. after   16 cycles
            NFock= 16  Conv=0.58D-08     -V/T= 2.0100
 DoSCS=F DFT=T ScalE2(SS,OS)=  1.000000  1.000000
 ExpMin= 4.38D-02 ExpMax= 4.17D+03 ExpMxC= 6.27D+02 IAcc=3 IRadAn=         5 AccDes= 0.00D+00
 HarFok:  IExCor=  205 AccDes= 0.00D+00 IRadAn=         5 IDoV=-2 UseB2=F ITyADJ=14
 ICtDFT= 12500011 ScaDFX=  1.000000  1.000000  1.000000  1.000000
 Range of M.O.s used for correlation:    20   455
 NBasis=   456 NAE=    67 NBE=    67 NFC=    19 NFV=     0
 NROrb=    436 NOA=    48 NOB=    48 NVA=   388 NVB=   388

 **** Warning!!: The largest alpha MO coefficient is  0.13596425D+03

 Orbital symmetries:
       Occupied  (A) (A) (A) (A) (A) (A) (A) (A) (A) (A) (A) (A)
                 (A) (A) (A) (A) (A) (A) (A) (A) (A) (A) (A) (A)
                 (A) (A) (A) (A) (A) (A) (A) (A) (A) (A) (A) (A)
                 (A) (A) (A) (A) (A) (A) (A) (A) (A) (A) (A) (A)
                 (A) (A) (A) (A) (A) (A) (A) (A) (A) (A) (A) (A)
                 (A) (A) (A) (A) (A) (A) (A)
       Virtual   (A) (A) (A) (A) (A) (A) (A) (A) (A) (A) (A) (A)
                 (A) (A) (A) (A) (A) (A) (A) (A) (A) (A) (A) (A)
                 (A) (A) (A) (A) (A) (A) (A) (A) (A) (A) (A) (A)
                 (A) (A) (A) (A) (A) (A) (A) (A) (A) (A) (A) (A)
                 (A) (A) (A) (A) (A) (A) (A) (A) (A) (A) (A) (A)
                 (A) (A) (A) (A) (A) (A) (A) (A) (A) (A) (A) (A)
                 (A) (A) (A) (A) (A) (A) (A) (A) (A) (A) (A) (A)
                 (A) (A) (A) (A) (A) (A) (A) (A) (A) (A) (A) (A)
                 (A) (A) (A) (A) (A) (A) (A) (A) (A) (A) (A) (A)
                 (A) (A) (A) (A) (A) (A) (A) (A) (A) (A) (A) (A)
                 (A) (A) (A) (A) (A) (A) (A) (A) (A) (A) (A) (A)
                 (A) (A) (A) (A) (A) (A) (A) (A) (A) (A) (A) (A)
                 (A) (A) (A) (A) (A) (A) (A) (A) (A) (A) (A) (A)
                 (A) (A) (A) (A) (A) (A) (A) (A) (A) (A) (A) (A)
                 (A) (A) (A) (A) (A) (A) (A) (A) (A) (A) (A) (A)
                 (A) (A) (A) (A) (A) (A) (A) (A) (A) (A) (A) (A)
                 (A) (A) (A) (A) (A) (A) (A) (A) (A) (A) (A) (A)
                 (A) (A) (A) (A) (A) (A) (A) (A) (A) (A) (A) (A)
                 (A) (A) (A) (A) (A) (A) (A) (A) (A) (A) (A) (A)
                 (A) (A) (A) (A) (A) (A) (A) (A) (A) (A) (A) (A)
                 (A) (A) (A) (A) (A) (A) (A) (A) (A) (A) (A) (A)
                 (A) (A) (A) (A) (A) (A) (A) (A) (A) (A) (A) (A)
                 (A) (A) (A) (A) (A) (A) (A) (A) (A) (A) (A) (A)
                 (A) (A) (A) (A) (A) (A) (A) (A) (A) (A) (A) (A)
                 (A) (A) (A) (A) (A) (A) (A) (A) (A) (A) (A) (A)
                 (A) (A) (A) (A) (A) (A) (A) (A) (A) (A) (A) (A)
                 (A) (A) (A) (A) (A) (A) (A) (A) (A) (A) (A) (A)
                 (A) (A) (A) (A) (A) (A) (A) (A) (A) (A) (A) (A)
                 (A) (A) (A) (A) (A) (A) (A) (A) (A) (A) (A) (A)
                 (A) (A) (A) (A) (A) (A) (A) (A) (A) (A) (A) (A)
                 (A) (A) (A) (A) (A) (A) (A) (A) (A) (A) (A) (A)
                 (A) (A) (A) (A) (A) (A) (A) (A) (A) (A) (A) (A)
                 (A) (A) (A) (A)
    24 initial guesses have been made.
 Convergence on wavefunction:    0.001000000000000
 Iteration     1 Dimension    24 NMult     0 NNew     24
 CISAX will form    24 AO SS matrices at one time.
 New state      1 was old state      2
 New state      2 was old state     16
 New state      3 was old state      6
 New state      4 was old state     20
 New state      5 was old state     10
 New state      6 was old state     14
 New state      7 was old state      4
 New state      9 was old state      7
 New state     10 was old state      5
 New state     11 was old state      1
 Vector   4 SDiff=8.71D-01 TDiff=2.93D+00 assumed to be singlet.
 Vector   5 SDiff=1.83D+00 TDiff=3.48D+00 assumed to be singlet.
 Vector   6 SDiff=9.49D-01 TDiff=4.86D+00 assumed to be singlet.
 Vector  10 SDiff=1.60D+00 TDiff=2.02D+00 assumed to be singlet.
 Vector  11 SDiff=1.95D+00 TDiff=3.08D+00 assumed to be singlet.
 Vector  12 SDiff=9.42D-01 TDiff=4.30D+00 assumed to be singlet.
 Iteration     2 Dimension    36 NMult    24 NNew     12
 New state      4 was old state      9
 New state      5 was old state     10
 New state      6 was old state     11
 Iteration     3 Dimension    48 NMult    36 NNew     12
 Iteration     4 Dimension    60 NMult    48 NNew     12
 Iteration     5 Dimension    72 NMult    60 NNew     12
 Iteration     6 Dimension    82 NMult    72 NNew     10
 Iteration     7 Dimension    86 NMult    82 NNew      4
 Iteration     8 Dimension    90 NMult    86 NNew      4
 ***********************************************************************
 Excited states from <AA,BB:AA,BB> singles matrix:
 ***********************************************************************
 
 Ground to excited state transition densities written to RWF  633
 Ground to excited state transition electric dipole moments (Au):
       state          X           Y           Z        Dip. S.      Osc.
         1        -0.0000      0.0000     -0.0000      0.0000      0.0000
         2         0.0000      0.0000      0.0000      0.0000      0.0000
         3         0.0000     -0.0000     -0.0000      0.0000      0.0000
         4         0.0134      0.1133      0.0657      0.0173      0.0022
         5        -0.1490      0.1495     -0.0522      0.0473      0.0060
         6        -0.0439      0.3624      0.0344      0.1344      0.0178
 Ground to excited state transition velocity dipole moments (Au):
       state          X           Y           Z        Dip. S.      Osc.
         1        -0.0000      0.0000      0.0000      0.0000      0.0000
         2        -0.0000      0.0000     -0.0000      0.0000      0.0000
         3        -0.0000     -0.0000     -0.0000      0.0000      0.0000
         4        -0.0053     -0.0193     -0.0128      0.0006      0.0020
         5         0.0280     -0.0265      0.0097      0.0016      0.0055
         6         0.0092     -0.0708     -0.0071      0.0052      0.0173
 Ground to excited state transition magnetic dipole moments (Au):
       state          X           Y           Z
         1        -0.0000     -0.0000     -0.0000
         2         0.0000     -0.0000      0.0000
         3        -0.0000      0.0000     -0.0000
         4         0.0289     -0.1983     -0.1785
         5         0.0944      0.0887      0.2045
         6        -0.2972     -0.2073      0.2005
 Ground to excited state transition velocity quadrupole moments (Au):
       state          XX          YY          ZZ          XY          XZ          YZ
         1         0.0000      0.0000     -0.0000     -0.0000      0.0000     -0.0000
         2        -0.0000     -0.0000     -0.0000     -0.0000      0.0000     -0.0000
         3         0.0000      0.0000      0.0000     -0.0000     -0.0000      0.0000
         4        -0.0820     -0.0956      0.0211      0.1146      0.0491      0.0157
         5        -0.0300      0.0338      0.0102      0.0082     -0.0122     -0.0031
         6        -0.2214      0.0290     -0.0276      0.0938      0.1363     -0.1590
 <0|del|b> * <b|rxdel|0> + <0|del|b> * <b|delr+rdel|0>
 Rotatory Strengths (R) in cgs (10**-40 erg-esu-cm/Gauss)
       state          XX          YY          ZZ    R(velocity)    E-M Angle
         1        -0.0000      0.0000     -0.0000      0.0000       90.00
         2        -0.0000     -0.0000      0.0000     -0.0000       90.00
         3        -0.0000     -0.0000      0.0000     -0.0000       90.00
         4        10.5432      6.6127      5.2964      7.4841       20.87
         5        -1.1232      8.2155      1.2982      2.7968       76.30
         6        39.6064     -8.8115      6.6921     12.4957       69.26
 1/2[<0|r|b>*<b|rxdel|0> + (<0|rxdel|b>*<b|r|0>)*]
 Rotatory Strengths (R) in cgs (10**-40 erg-esu-cm/Gauss)
       state          XX          YY          ZZ     R(length)
         1        -0.0000      0.0000     -0.0000     -0.0000
         2        -0.0000      0.0000     -0.0000      0.0000
         3         0.0000      0.0000     -0.0000      0.0000
         4        -0.2752     15.8924      8.2925      7.9699
         5         9.9535     -9.3744      7.5543      2.7111
         6        -9.2297     53.1278     -4.8714     13.0089
  1/2[<0|del|b>*<b|r|0> + (<0|r|b>*<b|del|0>)*] (Au)
       state          X           Y           Z        Dip. S.   Osc.(frdel)
         1         0.0000      0.0000     -0.0000      0.0000      0.0000
         2        -0.0000      0.0000     -0.0000     -0.0000     -0.0000
         3        -0.0000      0.0000      0.0000     -0.0000     -0.0000
         4        -0.0001     -0.0022     -0.0008      0.0031      0.0021
         5        -0.0042     -0.0040     -0.0005      0.0086      0.0058
         6        -0.0004     -0.0257     -0.0002      0.0263      0.0175

 Excitation energies and oscillator strengths:
 
 Excited State   1:      Triplet-A      3.6633 eV  338.45 nm  f=0.0000  <S**2>=2.000
      64 -> 69         0.19056
      64 -> 70        -0.16677
      66 -> 68        -0.17352
      66 -> 69         0.18731
      66 -> 70        -0.27351
      66 -> 71         0.24203
      67 -> 68         0.20025
      67 -> 69         0.26932
      67 -> 70        -0.13136
      67 -> 71        -0.27282
 This state for optimization and/or second-order correction.
 Total Energy, E(TD-HF/TD-DFT) =  -752.026610233    
 Copying the excited state density for this state as the 1-particle RhoCI density.
 
 Excited State   2:      Triplet-A      3.6993 eV  335.16 nm  f=0.0000  <S**2>=2.000
      64 -> 68         0.30821
      64 -> 69        -0.11739
      64 -> 70        -0.15321
      65 -> 68         0.16116
      65 -> 69         0.28543
      65 -> 70         0.24651
      65 -> 71         0.17080
      66 -> 68        -0.20157
      67 -> 68        -0.23806
      67 -> 69         0.11599
      67 -> 70         0.12483
 
 Excited State   3:      Triplet-A      4.4656 eV  277.64 nm  f=0.0000  <S**2>=2.000
      64 -> 71        -0.12236
      66 -> 68         0.16870
      66 -> 69        -0.22713
      66 -> 70         0.31374
      66 -> 71        -0.16431
      67 -> 68         0.10070
      67 -> 69         0.38937
      67 -> 70        -0.28144
 
 Excited State   4:      Singlet-A      5.0961 eV  243.29 nm  f=0.0022  <S**2>=0.000
      64 -> 71        -0.12182
      66 -> 68         0.24586
      66 -> 69         0.31638
      66 -> 70        -0.10171
      66 -> 71        -0.16414
      67 -> 68         0.29306
      67 -> 69        -0.16799
      67 -> 70         0.35248
      67 -> 71        -0.12331
 
 Excited State   5:      Singlet-A      5.2222 eV  237.42 nm  f=0.0060  <S**2>=0.000
      64 -> 68        -0.16010
      64 -> 69        -0.16562
      64 -> 70        -0.14820
      65 -> 68         0.37382
      65 -> 69        -0.13105
      65 -> 70        -0.15170
      66 -> 70         0.20084
      66 -> 71         0.14242
      67 -> 68         0.10407
      67 -> 69         0.35408
      67 -> 71         0.16378
 
 Excited State   6:      Singlet-A      5.4057 eV  229.36 nm  f=0.0178  <S**2>=0.000
      66 -> 68        -0.25805
      67 -> 68         0.54188
      67 -> 70        -0.33309
 SavETr:  write IOETrn=   770 NScale= 10 NData=  16 NLR=1 NState=    6 LETran=     118.

 **********************************************************************

            Population analysis using the SCF Density.

 **********************************************************************

 Orbital symmetries:
       Occupied  (A) (A) (A) (A) (A) (A) (A) (A) (A) (A) (A) (A)
                 (A) (A) (A) (A) (A) (A) (A) (A) (A) (A) (A) (A)
                 (A) (A) (A) (A) (A) (A) (A) (A) (A) (A) (A) (A)
                 (A) (A) (A) (A) (A) (A) (A) (A) (A) (A) (A) (A)
                 (A) (A) (A) (A) (A) (A) (A) (A) (A) (A) (A) (A)
                 (A) (A) (A) (A) (A) (A) (A)
       Virtual   (A) (A) (A) (A) (A) (A) (A) (A) (A) (A) (A) (A)
                 (A) (A) (A) (A) (A) (A) (A) (A) (A) (A) (A) (A)
                 (A) (A) (A) (A) (A) (A) (A) (A) (A) (A) (A) (A)
                 (A) (A) (A) (A) (A) (A) (A) (A) (A) (A) (A) (A)
                 (A) (A) (A) (A) (A) (A) (A) (A) (A) (A) (A) (A)
                 (A) (A) (A) (A) (A) (A) (A) (A) (A) (A) (A) (A)
                 (A) (A) (A) (A) (A) (A) (A) (A) (A) (A) (A) (A)
                 (A) (A) (A) (A) (A) (A) (A) (A) (A) (A) (A) (A)
                 (A) (A) (A) (A) (A) (A) (A) (A) (A) (A) (A) (A)
                 (A) (A) (A) (A) (A) (A) (A) (A) (A) (A) (A) (A)
                 (A) (A) (A) (A) (A) (A) (A) (A) (A) (A) (A) (A)
                 (A) (A) (A) (A) (A) (A) (A) (A) (A) (A) (A) (A)
                 (A) (A) (A) (A) (A) (A) (A) (A) (A) (A) (A) (A)
                 (A) (A) (A) (A) (A) (A) (A) (A) (A) (A) (A) (A)
                 (A) (A) (A) (A) (A) (A) (A) (A) (A) (A) (A) (A)
                 (A) (A) (A) (A) (A) (A) (A) (A) (A) (A) (A) (A)
                 (A) (A) (A) (A) (A) (A) (A) (A) (A) (A) (A) (A)
                 (A) (A) (A) (A) (A) (A) (A) (A) (A) (A) (A) (A)
                 (A) (A) (A) (A) (A) (A) (A) (A) (A) (A) (A) (A)
                 (A) (A) (A) (A) (A) (A) (A) (A) (A) (A) (A) (A)
                 (A) (A) (A) (A) (A) (A) (A) (A) (A) (A) (A) (A)
                 (A) (A) (A) (A) (A) (A) (A) (A) (A) (A) (A) (A)
                 (A) (A) (A) (A) (A) (A) (A) (A) (A) (A) (A) (A)
                 (A) (A) (A) (A) (A) (A) (A) (A) (A) (A) (A) (A)
                 (A) (A) (A) (A) (A) (A) (A) (A) (A) (A) (A) (A)
                 (A) (A) (A) (A) (A) (A) (A) (A) (A) (A) (A) (A)
                 (A) (A) (A) (A) (A) (A) (A) (A) (A) (A) (A) (A)
                 (A) (A) (A) (A) (A) (A) (A) (A) (A) (A) (A) (A)
                 (A) (A) (A) (A) (A) (A) (A) (A) (A) (A) (A) (A)
                 (A) (A) (A) (A) (A) (A) (A) (A) (A) (A) (A) (A)
                 (A) (A) (A) (A) (A) (A) (A) (A) (A) (A) (A) (A)
                 (A) (A) (A) (A) (A) (A) (A) (A) (A) (A) (A) (A)
                 (A) (A) (A) (A)
 The electronic state is 1-A.
 Alpha  occ. eigenvalues --  -14.34420 -10.25734 -10.23684 -10.22466 -10.22198
 Alpha  occ. eigenvalues --  -10.21133 -10.21099 -10.20949 -10.20878 -10.20809
 Alpha  occ. eigenvalues --  -10.20770 -10.20462 -10.20341 -10.20238 -10.20135
 Alpha  occ. eigenvalues --  -10.19830 -10.19202 -10.19099 -10.18251  -0.91593
 Alpha  occ. eigenvalues --   -0.88352  -0.87012  -0.82582  -0.80657  -0.77260
 Alpha  occ. eigenvalues --   -0.76298  -0.75884  -0.72601  -0.71443  -0.65175
 Alpha  occ. eigenvalues --   -0.62697  -0.61809  -0.60490  -0.59904  -0.58617
 Alpha  occ. eigenvalues --   -0.53838  -0.52304  -0.51185  -0.48593  -0.48381
 Alpha  occ. eigenvalues --   -0.47481  -0.46016  -0.45061  -0.44334  -0.43866
 Alpha  occ. eigenvalues --   -0.43637  -0.43031  -0.42608  -0.41174  -0.39313
 Alpha  occ. eigenvalues --   -0.38368  -0.37915  -0.37620  -0.36682  -0.36526
 Alpha  occ. eigenvalues --   -0.35970  -0.35902  -0.35359  -0.34377  -0.33404
 Alpha  occ. eigenvalues --   -0.33316  -0.33162  -0.32836  -0.27222  -0.26955
 Alpha  occ. eigenvalues --   -0.25717  -0.25419
 Alpha virt. eigenvalues --   -0.03477  -0.03089  -0.03016  -0.01659  -0.00600
 Alpha virt. eigenvalues --    0.00490   0.00790   0.01159   0.01817   0.02249
 Alpha virt. eigenvalues --    0.02300   0.02597   0.03080   0.03206   0.03841
 Alpha virt. eigenvalues --    0.04234   0.04376   0.05066   0.05262   0.05867
 Alpha virt. eigenvalues --    0.06138   0.06249   0.06869   0.07405   0.07752
 Alpha virt. eigenvalues --    0.08196   0.08656   0.09403   0.09582   0.09729
 Alpha virt. eigenvalues --    0.10220   0.10523   0.10887   0.11125   0.11217
 Alpha virt. eigenvalues --    0.11896   0.12113   0.12549   0.12641   0.13587
 Alpha virt. eigenvalues --    0.13748   0.14086   0.15137   0.15213   0.15387
 Alpha virt. eigenvalues --    0.15449   0.16101   0.16426   0.16539   0.16983
 Alpha virt. eigenvalues --    0.17399   0.17553   0.18054   0.18554   0.18633
 Alpha virt. eigenvalues --    0.18992   0.19290   0.19334   0.19798   0.20163
 Alpha virt. eigenvalues --    0.20250   0.20867   0.20916   0.21311   0.21440
 Alpha virt. eigenvalues --    0.21969   0.22299   0.22399   0.22799   0.22977
 Alpha virt. eigenvalues --    0.23343   0.23856   0.24163   0.24581   0.24735
 Alpha virt. eigenvalues --    0.25104   0.25693   0.25841   0.26154   0.26676
 Alpha virt. eigenvalues --    0.26901   0.27017   0.27352   0.27473   0.27798
 Alpha virt. eigenvalues --    0.28247   0.28353   0.28691   0.28904   0.29360
 Alpha virt. eigenvalues --    0.29422   0.29853   0.30193   0.30768   0.31239
 Alpha virt. eigenvalues --    0.31298   0.31668   0.32189   0.32798   0.33626
 Alpha virt. eigenvalues --    0.34060   0.34240   0.34737   0.35330   0.35799
 Alpha virt. eigenvalues --    0.36136   0.37087   0.38080   0.38804   0.39220
 Alpha virt. eigenvalues --    0.39335   0.40102   0.41117   0.42716   0.43788
 Alpha virt. eigenvalues --    0.45294   0.46421   0.55408   0.56810   0.59619
 Alpha virt. eigenvalues --    0.60134   0.62344   0.63968   0.64932   0.65261
 Alpha virt. eigenvalues --    0.65991   0.67758   0.67891   0.69169   0.69864
 Alpha virt. eigenvalues --    0.70106   0.70223   0.70738   0.71003   0.71945
 Alpha virt. eigenvalues --    0.72259   0.72738   0.72992   0.73947   0.74173
 Alpha virt. eigenvalues --    0.74485   0.75595   0.75811   0.76442   0.76960
 Alpha virt. eigenvalues --    0.77907   0.78706   0.79746   0.80202   0.80568
 Alpha virt. eigenvalues --    0.81308   0.81870   0.83162   0.84251   0.85369
 Alpha virt. eigenvalues --    0.85780   0.86811   0.87388   0.88846   0.89756
 Alpha virt. eigenvalues --    0.90076   0.90319   0.91337   0.91839   0.92380
 Alpha virt. eigenvalues --    0.92931   0.94826   0.95236   0.95431   0.96562
 Alpha virt. eigenvalues --    0.97488   0.98425   0.98509   0.98988   0.99978
 Alpha virt. eigenvalues --    1.02165   1.02262   1.04105   1.04235   1.05437
 Alpha virt. eigenvalues --    1.06440   1.07738   1.07935   1.09350   1.09592
 Alpha virt. eigenvalues --    1.09971   1.10313   1.11277   1.12586   1.13270
 Alpha virt. eigenvalues --    1.13958   1.14693   1.15466   1.15620   1.16943
 Alpha virt. eigenvalues --    1.17367   1.20265   1.22216   1.23535   1.24424
 Alpha virt. eigenvalues --    1.25120   1.26456   1.27278   1.28838   1.30042
 Alpha virt. eigenvalues --    1.31014   1.32296   1.35018   1.35641   1.37384
 Alpha virt. eigenvalues --    1.38267   1.39218   1.39503   1.40375   1.40634
 Alpha virt. eigenvalues --    1.41035   1.41661   1.42888   1.44162   1.45544
 Alpha virt. eigenvalues --    1.47268   1.50149   1.51471   1.53447   1.55400
 Alpha virt. eigenvalues --    1.57605   1.58782   1.62074   1.63566   1.64298
 Alpha virt. eigenvalues --    1.66267   1.68978   1.71027   1.74667   1.75928
 Alpha virt. eigenvalues --    1.77514   1.79389   1.81081   1.81648   1.82141
 Alpha virt. eigenvalues --    1.83420   1.84494   1.84917   1.86806   1.87856
 Alpha virt. eigenvalues --    1.88817   1.90333   1.90778   1.90926   1.92778
 Alpha virt. eigenvalues --    1.92983   1.93791   1.94402   1.94514   1.96035
 Alpha virt. eigenvalues --    1.98358   1.99061   2.00062   2.00299   2.01123
 Alpha virt. eigenvalues --    2.01897   2.03339   2.04274   2.04408   2.05541
 Alpha virt. eigenvalues --    2.06549   2.09413   2.09456   2.11319   2.11869
 Alpha virt. eigenvalues --    2.12893   2.13332   2.15119   2.15935   2.18494
 Alpha virt. eigenvalues --    2.21055   2.22102   2.23647   2.24600   2.25405
 Alpha virt. eigenvalues --    2.26605   2.27813   2.29327   2.29571   2.30408
 Alpha virt. eigenvalues --    2.31333   2.32157   2.33794   2.34749   2.36332
 Alpha virt. eigenvalues --    2.37552   2.37896   2.39234   2.39979   2.40502
 Alpha virt. eigenvalues --    2.41573   2.42490   2.45256   2.45701   2.46049
 Alpha virt. eigenvalues --    2.47323   2.48607   2.49552   2.50540   2.51801
 Alpha virt. eigenvalues --    2.52359   2.53425   2.53936   2.55747   2.56755
 Alpha virt. eigenvalues --    2.57304   2.58693   2.60289   2.61124   2.63387
 Alpha virt. eigenvalues --    2.63820   2.66975   2.68603   2.69071   2.70154
 Alpha virt. eigenvalues --    2.70934   2.71186   2.72570   2.74009   2.75350
 Alpha virt. eigenvalues --    2.75746   2.77198   2.77978   2.80271   2.80513
 Alpha virt. eigenvalues --    2.83503   2.84318   2.85452   2.88963   2.89030
 Alpha virt. eigenvalues --    2.89614   2.91307   2.92966   2.94218   2.94650
 Alpha virt. eigenvalues --    2.98530   3.02376   3.05909   3.06970   3.10648
 Alpha virt. eigenvalues --    3.18078   3.20085   3.23510   3.26031   3.26971
 Alpha virt. eigenvalues --    3.27676   3.28408   3.31075   3.31511   3.33835
 Alpha virt. eigenvalues --    3.34968   3.35967   3.38952   3.42048   3.43423
 Alpha virt. eigenvalues --    3.46542   3.47909   3.48195   3.49036   3.51970
 Alpha virt. eigenvalues --    3.54958   3.59167   3.82751   3.88632   4.27285
 Alpha virt. eigenvalues --    4.30129   4.31346   4.32007   4.33490   4.39947
 Alpha virt. eigenvalues --    4.41369   4.44563   4.46412   4.48103   4.49599
 Alpha virt. eigenvalues --    4.52043   4.52815   4.54988   4.59708   4.74963
 Alpha virt. eigenvalues --    4.81627   4.84713   4.95257
          Condensed to atoms (all electrons):
               1          2          3          4          5          6
     1  C    5.825996  -0.511336   0.218024   0.136894  -0.402512   0.007283
     2  C   -0.511336   6.265704  -0.229929   0.259380  -0.111901   0.021129
     3  C    0.218024  -0.229929   6.021810  -0.018342  -0.200973   0.054613
     4  C    0.136894   0.259380  -0.018342  11.896523  -4.943319   0.045215
     5  C   -0.402512  -0.111901  -0.200973  -4.943319  18.098025  -1.072747
     6  C    0.007283   0.021129   0.054613   0.045215  -1.072747   9.510253
     7  C   -0.020512   0.018506  -0.091502  -0.632091   0.330580   0.762062
     8  C    0.023223   0.015779  -0.030392   2.426183  -2.934361  -1.668846
     9  C   -0.000557  -0.024475   0.004452  -1.501267   1.146313  -1.655057
    10  C   -0.003496   0.010724   0.016319  -0.402976  -2.497226   0.811575
    11  C   -0.000575  -0.000273  -0.009529  -0.146374  -0.713118   0.025709
    12  N    0.000001   0.000003   0.000141   0.002488   0.024744  -0.002089
    13  C   -0.001375  -0.002094   0.014762  -0.314431   0.462567  -0.006511
    14  C   -0.000483   0.011203  -0.020713   0.168555  -0.259530  -0.112110
    15  C    0.001884   0.001033   0.003931   0.053732  -0.075899   0.012992
    16  C   -0.000003   0.000171  -0.001119   0.007109  -0.044867  -0.004044
    17  C   -0.001270   0.002202  -0.008763  -0.005152   0.218031   0.004553
    18  C    0.001090  -0.013647   0.017958  -0.081789  -0.275337   0.192988
    19  C   -0.006923  -0.008434   0.073351  -1.534493  -0.819116  -0.942396
    20  H    0.461791  -0.095507   0.005976  -0.004774  -0.004167  -0.000147
    21  H    0.481582  -0.125834   0.009848   0.000595  -0.010819  -0.000557
    22  H    0.484882  -0.127095   0.008581   0.001537  -0.012112   0.001603
    23  H    0.013219   0.397027  -0.076066   0.025431  -0.045549   0.002183
    24  H    0.012189   0.403077  -0.082145   0.022822  -0.034942  -0.000051
    25  H   -0.013428  -0.002392   0.328291   0.054913   0.050073   0.059390
    26  H   -0.017350  -0.005642   0.347816  -0.041500   0.070690  -0.099836
    27  H   -0.000325   0.000601  -0.053538   0.530439  -0.165438   0.122434
    28  H   -0.000224   0.000959  -0.044019   0.512646  -0.163844  -0.087190
    29  H    0.000538   0.000175   0.020247  -0.111496   0.068874   0.225070
    30  H   -0.000009  -0.000170   0.000628  -0.018222   0.028277  -0.052390
    31  H   -0.000002  -0.000004  -0.000729   0.005281   0.057315  -0.026188
    32  H   -0.000005   0.000038  -0.000196  -0.001550   0.056289   0.001810
    33  H   -0.000002  -0.000006  -0.000039   0.000033   0.023674  -0.000194
    34  H   -0.000000  -0.000000  -0.000004  -0.000076  -0.000287   0.000002
    35  H   -0.000000  -0.000002  -0.000002  -0.000011  -0.000110   0.000007
    36  H   -0.000002   0.000008   0.000014   0.000009   0.000825  -0.000154
    37  H    0.000008   0.000025   0.000265  -0.000950  -0.038882   0.007230
    38  H    0.000879  -0.001410   0.019396   0.013339  -0.021474  -0.005873
               7          8          9         10         11         12
     1  C   -0.020512   0.023223  -0.000557  -0.003496  -0.000575   0.000001
     2  C    0.018506   0.015779  -0.024475   0.010724  -0.000273   0.000003
     3  C   -0.091502  -0.030392   0.004452   0.016319  -0.009529   0.000141
     4  C   -0.632091   2.426183  -1.501267  -0.402976  -0.146374   0.002488
     5  C    0.330580  -2.934361   1.146313  -2.497226  -0.713118   0.024744
     6  C    0.762062  -1.668846  -1.655057   0.811575   0.025709  -0.002089
     7  C    8.962508  -3.762402  -0.554337   1.153623  -0.316709   0.064195
     8  C   -3.762402  21.940987  -6.908990  -0.146512   0.962070  -0.052422
     9  C   -0.554337  -6.908990  28.325061  -9.669231   1.015239  -0.160938
    10  C    1.153623  -0.146512  -9.669231  15.440966  -3.620858   0.222781
    11  C   -0.316709   0.962070   1.015239  -3.620858  11.659897   0.188384
    12  N    0.064195  -0.052422  -0.160938   0.222781   0.188384   7.021440
    13  C    0.288427  -2.537873  -1.858509  -0.220372  -1.057569   0.127786
    14  C   -0.092208   0.727897   1.959531  -0.916444   2.667338  -0.144048
    15  C    0.027269   0.073629  -0.960479   0.218327  -0.323298   0.007665
    16  C   -0.001037   0.136033   0.080920  -0.011043   0.084738  -0.004461
    17  C    0.036428  -0.386307   0.185973  -0.239880  -0.444741   0.015300
    18  C    0.103219   0.826920  -1.838447   2.454213  -2.473549   0.051885
    19  C   -0.361246  -2.450108  -2.041569   2.874079  -1.446664   0.083165
    20  H   -0.000043   0.000011   0.000049  -0.000002  -0.000000  -0.000000
    21  H   -0.000200   0.000125   0.000483  -0.000075   0.000002  -0.000000
    22  H    0.000167   0.000104  -0.000210  -0.000015  -0.000001   0.000000
    23  H   -0.000080   0.000272   0.000011  -0.000132  -0.000001   0.000000
    24  H    0.000663   0.000173   0.000441  -0.000297  -0.000004   0.000000
    25  H    0.018340  -0.004296  -0.034445  -0.011052  -0.000649   0.000002
    26  H   -0.001052  -0.006172   0.014640  -0.000237  -0.000019   0.000000
    27  H    0.039195  -0.003264  -0.032505  -0.002457  -0.000657   0.000001
    28  H   -0.006163   0.012159   0.028954  -0.007448  -0.000684   0.000002
    29  H   -0.002154  -0.049066   0.033830   0.014579   0.000195  -0.000005
    30  H    0.324272  -0.047985   0.083122  -0.008637   0.000974   0.000144
    31  H   -0.037849   0.225723   0.199279  -0.083826  -0.023260   0.007091
    32  H    0.018817  -0.113069  -0.152450   0.406508  -0.073327  -0.005664
    33  H    0.000281  -0.025135  -0.013523  -0.062263  -0.000814  -0.000276
    34  H    0.000034   0.000172  -0.004445  -0.001815   0.000218  -0.000004
    35  H    0.000009   0.000245  -0.000001   0.001213  -0.001248   0.000016
    36  H    0.000291  -0.002694   0.001576  -0.006825   0.001228  -0.000059
    37  H   -0.005672   0.065646  -0.092504   0.045618   0.086266  -0.006494
    38  H   -0.000516  -0.007813   0.060860  -0.049937   0.014479   0.000190
              13         14         15         16         17         18
     1  C   -0.001375  -0.000483   0.001884  -0.000003  -0.001270   0.001090
     2  C   -0.002094   0.011203   0.001033   0.000171   0.002202  -0.013647
     3  C    0.014762  -0.020713   0.003931  -0.001119  -0.008763   0.017958
     4  C   -0.314431   0.168555   0.053732   0.007109  -0.005152  -0.081789
     5  C    0.462567  -0.259530  -0.075899  -0.044867   0.218031  -0.275337
     6  C   -0.006511  -0.112110   0.012992  -0.004044   0.004553   0.192988
     7  C    0.288427  -0.092208   0.027269  -0.001037   0.036428   0.103219
     8  C   -2.537873   0.727897   0.073629   0.136033  -0.386307   0.826920
     9  C   -1.858509   1.959531  -0.960479   0.080920   0.185973  -1.838447
    10  C   -0.220372  -0.916444   0.218327  -0.011043  -0.239880   2.454213
    11  C   -1.057569   2.667338  -0.323298   0.084738  -0.444741  -2.473549
    12  N    0.127786  -0.144048   0.007665  -0.004461   0.015300   0.051885
    13  C   19.806981  -7.024461   0.346691  -1.537289  -0.133852  -1.914537
    14  C   -7.024461  22.824656  -1.989337   0.629955  -1.535145 -10.588006
    15  C    0.346691  -1.989337   7.140896   0.456108   0.214881   0.423315
    16  C   -1.537289   0.629955   0.456108   5.511865   0.248065   0.314792
    17  C   -0.133852  -1.535145   0.214881   0.248065   8.455123  -0.803837
    18  C   -1.914537 -10.588006   0.423315   0.314792  -0.803837  19.728438
    19  C    1.381798  -0.826262   0.273845  -0.101608   0.205370   0.039910
    20  H    0.000002  -0.000002   0.000002  -0.000001   0.000000  -0.000001
    21  H    0.000018   0.000023  -0.000001   0.000001  -0.000036   0.000004
    22  H   -0.000009   0.000004   0.000001  -0.000000   0.000001  -0.000003
    23  H   -0.000011   0.000006  -0.000002   0.000001  -0.000000  -0.000005
    24  H    0.000037  -0.000001   0.000009   0.000001  -0.000013  -0.000031
    25  H   -0.001004  -0.000526  -0.001276   0.000357   0.001518  -0.000065
    26  H    0.000661   0.000056  -0.000013   0.000021  -0.000344  -0.000135
    27  H    0.000349  -0.000271   0.000005  -0.000003   0.000058   0.000240
    28  H    0.000828  -0.000127   0.000256   0.000013  -0.000205  -0.000167
    29  H    0.001236   0.000406   0.000015   0.000003  -0.000339  -0.001151
    30  H    0.000593   0.000062   0.000002  -0.000017   0.000191  -0.000636
    31  H   -0.067063  -0.020870   0.000488  -0.000613   0.021402   0.052006
    32  H   -0.236185   0.350001   0.029836   0.004924  -0.001980  -0.207720
    33  H    0.143262   0.130073   0.030801  -0.015729   0.013276   0.010682
    34  H    0.023251   0.040948   0.253518  -0.000383   0.003134  -0.004009
    35  H   -0.005171   0.006590   0.016114   0.283012   0.002319   0.007549
    36  H    0.038304   0.015632   0.000495   0.004621   0.264367  -0.008698
    37  H    0.187350   0.115362  -0.005742  -0.018797  -0.078470   0.062769
    38  H   -0.004448   0.033432  -0.009196   0.002550  -0.009677  -0.013060
              19         20         21         22         23         24
     1  C   -0.006923   0.461791   0.481582   0.484882   0.013219   0.012189
     2  C   -0.008434  -0.095507  -0.125834  -0.127095   0.397027   0.403077
     3  C    0.073351   0.005976   0.009848   0.008581  -0.076066  -0.082145
     4  C   -1.534493  -0.004774   0.000595   0.001537   0.025431   0.022822
     5  C   -0.819116  -0.004167  -0.010819  -0.012112  -0.045549  -0.034942
     6  C   -0.942396  -0.000147  -0.000557   0.001603   0.002183  -0.000051
     7  C   -0.361246  -0.000043  -0.000200   0.000167  -0.000080   0.000663
     8  C   -2.450108   0.000011   0.000125   0.000104   0.000272   0.000173
     9  C   -2.041569   0.000049   0.000483  -0.000210   0.000011   0.000441
    10  C    2.874079  -0.000002  -0.000075  -0.000015  -0.000132  -0.000297
    11  C   -1.446664  -0.000000   0.000002  -0.000001  -0.000001  -0.000004
    12  N    0.083165  -0.000000  -0.000000   0.000000   0.000000   0.000000
    13  C    1.381798   0.000002   0.000018  -0.000009  -0.000011   0.000037
    14  C   -0.826262  -0.000002   0.000023   0.000004   0.000006  -0.000001
    15  C    0.273845   0.000002  -0.000001   0.000001  -0.000002   0.000009
    16  C   -0.101608  -0.000001   0.000001  -0.000000   0.000001   0.000001
    17  C    0.205370   0.000000  -0.000036   0.000001  -0.000000  -0.000013
    18  C    0.039910  -0.000001   0.000004  -0.000003  -0.000005  -0.000031
    19  C   11.302279   0.000061   0.000862  -0.001471  -0.000537  -0.005963
    20  H    0.000061   0.556162  -0.029038  -0.029030  -0.003367  -0.003350
    21  H    0.000862  -0.029038   0.555784  -0.031389   0.004764  -0.005094
    22  H   -0.001471  -0.029030  -0.031389   0.555821  -0.005131   0.004759
    23  H   -0.000537  -0.003367   0.004764  -0.005131   0.584924  -0.036031
    24  H   -0.005963  -0.003350  -0.005094   0.004759  -0.036031   0.585167
    25  H   -0.133297   0.000007   0.003018  -0.000485   0.005086  -0.005779
    26  H    0.048643   0.000007  -0.000486   0.003056  -0.005660   0.005108
    27  H   -0.128246   0.000000  -0.000002   0.000000   0.003314  -0.000595
    28  H    0.060795   0.000000  -0.000001  -0.000002  -0.000582   0.003221
    29  H    0.097212  -0.000000   0.000000   0.000000   0.000004  -0.000000
    30  H    0.000595  -0.000000   0.000000   0.000000  -0.000000   0.000000
    31  H   -0.003949  -0.000000  -0.000000  -0.000000   0.000000   0.000000
    32  H    0.169639  -0.000000   0.000000  -0.000000  -0.000000  -0.000000
    33  H    0.056717   0.000000  -0.000000   0.000000   0.000000   0.000000
    34  H   -0.000404  -0.000000   0.000000  -0.000000  -0.000000   0.000000
    35  H   -0.000126   0.000000   0.000000   0.000000   0.000000   0.000000
    36  H    0.001187  -0.000000   0.000000   0.000000  -0.000000   0.000000
    37  H   -0.022131   0.000000  -0.000000   0.000000  -0.000000   0.000000
    38  H    0.258947  -0.000000   0.000000   0.000000  -0.000000   0.000001
              25         26         27         28         29         30
     1  C   -0.013428  -0.017350  -0.000325  -0.000224   0.000538  -0.000009
     2  C   -0.002392  -0.005642   0.000601   0.000959   0.000175  -0.000170
     3  C    0.328291   0.347816  -0.053538  -0.044019   0.020247   0.000628
     4  C    0.054913  -0.041500   0.530439   0.512646  -0.111496  -0.018222
     5  C    0.050073   0.070690  -0.165438  -0.163844   0.068874   0.028277
     6  C    0.059390  -0.099836   0.122434  -0.087190   0.225070  -0.052390
     7  C    0.018340  -0.001052   0.039195  -0.006163  -0.002154   0.324272
     8  C   -0.004296  -0.006172  -0.003264   0.012159  -0.049066  -0.047985
     9  C   -0.034445   0.014640  -0.032505   0.028954   0.033830   0.083122
    10  C   -0.011052  -0.000237  -0.002457  -0.007448   0.014579  -0.008637
    11  C   -0.000649  -0.000019  -0.000657  -0.000684   0.000195   0.000974
    12  N    0.000002   0.000000   0.000001   0.000002  -0.000005   0.000144
    13  C   -0.001004   0.000661   0.000349   0.000828   0.001236   0.000593
    14  C   -0.000526   0.000056  -0.000271  -0.000127   0.000406   0.000062
    15  C   -0.001276  -0.000013   0.000005   0.000256   0.000015   0.000002
    16  C    0.000357   0.000021  -0.000003   0.000013   0.000003  -0.000017
    17  C    0.001518  -0.000344   0.000058  -0.000205  -0.000339   0.000191
    18  C   -0.000065  -0.000135   0.000240  -0.000167  -0.001151  -0.000636
    19  C   -0.133297   0.048643  -0.128246   0.060795   0.097212   0.000595
    20  H    0.000007   0.000007   0.000000   0.000000  -0.000000  -0.000000
    21  H    0.003018  -0.000486  -0.000002  -0.000001   0.000000   0.000000
    22  H   -0.000485   0.003056   0.000000  -0.000002   0.000000   0.000000
    23  H    0.005086  -0.005660   0.003314  -0.000582   0.000004  -0.000000
    24  H   -0.005779   0.005108  -0.000595   0.003221  -0.000000   0.000000
    25  H    0.578671  -0.032225   0.005314  -0.005823   0.000011   0.000000
    26  H   -0.032225   0.579910  -0.005724   0.005337   0.000108   0.000001
    27  H    0.005314  -0.005724   0.583092  -0.033968   0.002512  -0.000003
    28  H   -0.005823   0.005337  -0.033968   0.586260   0.000151   0.000002
    29  H    0.000011   0.000108   0.002512   0.000151   0.585671  -0.005416
    30  H    0.000000   0.000001  -0.000003   0.000002  -0.005416   0.568890
    31  H    0.000000  -0.000000  -0.000000  -0.000000  -0.000159  -0.004795
    32  H    0.000000  -0.000000   0.000000  -0.000005  -0.000000   0.000002
    33  H    0.000000   0.000000   0.000000   0.000000   0.000000  -0.000000
    34  H    0.000000  -0.000000   0.000000  -0.000000   0.000000  -0.000000
    35  H   -0.000000  -0.000000  -0.000000  -0.000000  -0.000000   0.000000
    36  H    0.000000   0.000000  -0.000000  -0.000000   0.000000  -0.000000
    37  H   -0.000000   0.000000  -0.000000   0.000000   0.000000  -0.000006
    38  H    0.000118   0.000001   0.000127   0.002985  -0.000161   0.000018
              31         32         33         34         35         36
     1  C   -0.000002  -0.000005  -0.000002  -0.000000  -0.000000  -0.000002
     2  C   -0.000004   0.000038  -0.000006  -0.000000  -0.000002   0.000008
     3  C   -0.000729  -0.000196  -0.000039  -0.000004  -0.000002   0.000014
     4  C    0.005281  -0.001550   0.000033  -0.000076  -0.000011   0.000009
     5  C    0.057315   0.056289   0.023674  -0.000287  -0.000110   0.000825
     6  C   -0.026188   0.001810  -0.000194   0.000002   0.000007  -0.000154
     7  C   -0.037849   0.018817   0.000281   0.000034   0.000009   0.000291
     8  C    0.225723  -0.113069  -0.025135   0.000172   0.000245  -0.002694
     9  C    0.199279  -0.152450  -0.013523  -0.004445  -0.000001   0.001576
    10  C   -0.083826   0.406508  -0.062263  -0.001815   0.001213  -0.006825
    11  C   -0.023260  -0.073327  -0.000814   0.000218  -0.001248   0.001228
    12  N    0.007091  -0.005664  -0.000276  -0.000004   0.000016  -0.000059
    13  C   -0.067063  -0.236185   0.143262   0.023251  -0.005171   0.038304
    14  C   -0.020870   0.350001   0.130073   0.040948   0.006590   0.015632
    15  C    0.000488   0.029836   0.030801   0.253518   0.016114   0.000495
    16  C   -0.000613   0.004924  -0.015729  -0.000383   0.283012   0.004621
    17  C    0.021402  -0.001980   0.013276   0.003134   0.002319   0.264367
    18  C    0.052006  -0.207720   0.010682  -0.004009   0.007549  -0.008698
    19  C   -0.003949   0.169639   0.056717  -0.000404  -0.000126   0.001187
    20  H   -0.000000  -0.000000   0.000000  -0.000000   0.000000  -0.000000
    21  H   -0.000000   0.000000  -0.000000   0.000000   0.000000   0.000000
    22  H   -0.000000  -0.000000   0.000000  -0.000000   0.000000   0.000000
    23  H    0.000000  -0.000000   0.000000  -0.000000   0.000000  -0.000000
    24  H    0.000000  -0.000000   0.000000   0.000000   0.000000   0.000000
    25  H    0.000000   0.000000   0.000000   0.000000  -0.000000   0.000000
    26  H   -0.000000  -0.000000   0.000000  -0.000000  -0.000000   0.000000
    27  H   -0.000000   0.000000   0.000000   0.000000  -0.000000  -0.000000
    28  H   -0.000000  -0.000005   0.000000  -0.000000  -0.000000  -0.000000
    29  H   -0.000159  -0.000000   0.000000   0.000000  -0.000000   0.000000
    30  H   -0.004795   0.000002  -0.000000  -0.000000   0.000000  -0.000000
    31  H    0.568124   0.000105   0.000000  -0.000000   0.000000  -0.000000
    32  H    0.000105   0.576678   0.005551  -0.000008  -0.000000   0.000002
    33  H    0.000000   0.005551   0.599545  -0.005956  -0.000164   0.000016
    34  H   -0.000000  -0.000008  -0.005956   0.572140  -0.005599  -0.000167
    35  H    0.000000  -0.000000  -0.000164  -0.005599   0.572964  -0.005549
    36  H   -0.000000   0.000002   0.000016  -0.000167  -0.005549   0.570813
    37  H   -0.000243  -0.000072  -0.000171   0.000015  -0.000159  -0.006070
    38  H   -0.000154   0.002107  -0.000086  -0.000001   0.000000   0.000000
              37         38
     1  C    0.000008   0.000879
     2  C    0.000025  -0.001410
     3  C    0.000265   0.019396
     4  C   -0.000950   0.013339
     5  C   -0.038882  -0.021474
     6  C    0.007230  -0.005873
     7  C   -0.005672  -0.000516
     8  C    0.065646  -0.007813
     9  C   -0.092504   0.060860
    10  C    0.045618  -0.049937
    11  C    0.086266   0.014479
    12  N   -0.006494   0.000190
    13  C    0.187350  -0.004448
    14  C    0.115362   0.033432
    15  C   -0.005742  -0.009196
    16  C   -0.018797   0.002550
    17  C   -0.078470  -0.009677
    18  C    0.062769  -0.013060
    19  C   -0.022131   0.258947
    20  H    0.000000  -0.000000
    21  H   -0.000000   0.000000
    22  H    0.000000   0.000000
    23  H   -0.000000  -0.000000
    24  H    0.000000   0.000001
    25  H   -0.000000   0.000118
    26  H    0.000000   0.000001
    27  H   -0.000000   0.000127
    28  H    0.000000   0.002985
    29  H    0.000000  -0.000161
    30  H   -0.000006   0.000018
    31  H   -0.000243  -0.000154
    32  H   -0.000072   0.002107
    33  H   -0.000171  -0.000086
    34  H    0.000015  -0.000001
    35  H   -0.000159   0.000000
    36  H   -0.006070   0.000000
    37  H    0.579045  -0.000032
    38  H   -0.000032   0.603089
 Mulliken charges:
               1
     1  C   -0.689092
     2  C   -0.147593
     3  C   -0.298424
     4  C   -0.404309
     5  C    0.212253
     6  C   -0.131720
     7  C   -0.263111
     8  C   -0.299643
     9  C    0.363205
    10  C    0.292533
    11  C   -0.052815
    12  N   -0.440963
    13  C    0.097859
    14  C   -0.151185
    15  C   -0.222497
    16  C   -0.024246
    17  C   -0.242181
    18  C   -0.063148
    19  C   -0.093508
    20  H    0.145359
    21  H    0.146422
    22  H    0.146436
    23  H    0.136914
    24  H    0.136628
    25  H    0.141630
    26  H    0.140338
    27  H    0.139314
    28  H    0.135881
    29  H    0.119108
    30  H    0.130512
    31  H    0.132891
    32  H    0.169924
    33  H    0.110448
    34  H    0.129727
    35  H    0.128109
    36  H    0.130826
    37  H    0.126798
    38  H    0.111319
 Sum of Mulliken charges =  -0.00000
 Mulliken charges with hydrogens summed into heavy atoms:
               1
     1  C   -0.250874
     2  C    0.125949
     3  C   -0.016456
     4  C   -0.129114
     5  C    0.212253
     6  C   -0.012612
     7  C   -0.132599
     8  C   -0.166752
     9  C    0.363205
    10  C    0.462456
    11  C   -0.052815
    12  N   -0.440963
    13  C    0.097859
    14  C   -0.040737
    15  C   -0.092770
    16  C    0.103863
    17  C   -0.111355
    18  C    0.063650
    19  C    0.017811
 Electronic spatial extent (au):  <R**2>=           6594.1183
 Charge=             -0.0000 electrons
 Dipole moment (field-independent basis, Debye):
    X=              3.8349    Y=              2.8335    Z=             -0.3661  Tot=              4.7822
 Quadrupole moment (field-independent basis, Debye-Ang):
   XX=           -130.7385   YY=           -115.7356   ZZ=           -108.5525
   XY=            -16.0446   XZ=              0.8140   YZ=             -3.5745
 Traceless Quadrupole moment (field-independent basis, Debye-Ang):
   XX=            -12.3963   YY=              2.6066   ZZ=              9.7897
   XY=            -16.0446   XZ=              0.8140   YZ=             -3.5745
 Octapole moment (field-independent basis, Debye-Ang**2):
  XXX=            143.4398  YYY=             41.0251  ZZZ=             -1.3859  XYY=             19.4881
  XXY=             57.3031  XXZ=             -1.3039  XZZ=            -12.8160  YZZ=              6.6932
  YYZ=             16.4425  XYZ=             -3.3898
 Hexadecapole moment (field-independent basis, Debye-Ang**3):
 XXXX=          -6532.2528 YYYY=          -2667.5586 ZZZZ=           -610.2321 XXXY=           -283.0248
 XXXZ=              2.5361 YYYX=           -195.1729 YYYZ=            -56.2277 ZZZX=              1.9998
 ZZZY=             -0.3545 XXYY=          -1563.8185 XXZZ=          -1086.3658 YYZZ=           -526.2160
 XXYZ=            -28.7312 YYXZ=             -5.7605 ZZXY=            -23.6887
 N-N= 1.273047264727D+03 E-N=-4.285423993497D+03  KE= 7.447442394657D+02
 Unable to Open any file for archive entry.
 1\1\GINC-N1\SP\RB3LYP TD-FC\6-31+G(d,p)\C18H19N1\HPCMGAC13\29-Jul-2025
 \0\\# td=(50-50,nstates=3) b3lyp/6-31+g(d,p) geom=connectivity\\Title 
 Card Required\\0,1\C,0,-5.357701,-2.24245,0.459155\C,0,-4.856057,-1.10
 5589,-0.438711\C,0,-3.55884,-0.463877,0.069987\C,0,-3.053267,0.680701,
 -0.83243\C,0,-1.774595,1.315904,-0.329172\C,0,-1.808308,2.371198,0.596
 774\C,0,-0.626747,2.930046,1.081056\C,0,0.614119,2.447171,0.651985\C,0
 ,0.669031,1.396328,-0.267478\C,0,1.991942,0.804448,-0.771786\C,0,3.147
 624,1.666484,-0.467352\N,0,4.067257,2.334989,-0.229455\C,0,2.252621,-0
 .622026,-0.264129\C,0,2.520394,-1.64933,-1.174774\C,0,2.761557,-2.9514
 62,-0.725085\C,0,2.740599,-3.233292,0.641846\C,0,2.476409,-2.208273,1.
 556545\C,0,2.231593,-0.910637,1.106562\C,0,-0.52602,0.844328,-0.749449
 \H,0,-6.283502,-2.679677,0.069942\H,0,-4.615234,-3.045773,0.533089\H,0
 ,-5.560076,-1.884575,1.475553\H,0,-5.633907,-0.333686,-0.520955\H,0,-4
 .696241,-1.486871,-1.456917\H,0,-2.775822,-1.230199,0.150592\H,0,-3.71
 3837,-0.078157,1.08697\H,0,-3.835836,1.446456,-0.909635\H,0,-2.895497,
 0.292544,-1.846776\H,0,-2.767143,2.760335,0.93069\H,0,-0.665702,3.7521
 51,1.789943\H,0,1.528935,2.899708,1.021991\H,0,1.938615,0.756079,-1.86
 6981\H,0,2.545443,-1.434053,-2.240268\H,0,2.966811,-3.740039,-1.443155
 \H,0,2.929333,-4.243116,0.994023\H,0,2.459965,-2.419986,2.621667\H,0,2
 .020445,-0.120657,1.821584\H,0,-0.483681,0.026563,-1.46644\\Version=ES
 64L-G16RevC.02\State=1-A\HF=-752.161235\RMSD=5.829e-09\PG=C01 [X(C18H1
 9N1)]\\@
 The archive entry for this job was punched.


 BULLDOZER: SOMEONE WHO SLEEPS THROUGH SPEECHES.
 Job cpu time:       0 days  1 hours 26 minutes 24.8 seconds.
 Elapsed time:       0 days  0 hours  5 minutes 31.7 seconds.
 File lengths (MBytes):  RWF=   1142 Int=      0 D2E=      0 Chk=     54 Scr=      2
 Normal termination of Gaussian 16 at Tue Jul 29 21:42:55 2025.
