 Entering Gaussian System, Link 0=g16
 Input=M268e.gjf
 Output=M268e.log
 Initial command:
 /hpc/softwares/Gaussian/g16/l1.exe "/hpc/home/hpcmgac13/pbs.15208.admin1.x8z/Gau-258480.inp" -scrdir="/hpc/home/hpcmgac13/pbs.15208.admin1.x8z/"
 Default linda workers: n2
 Default is to use   8 SMP processors on each worker.
 Entering Link 1 = /hpc/softwares/Gaussian/g16/l1.exe PID=    258481.
  
 Copyright (c) 1988-2021, Gaussian, Inc.  All Rights Reserved.
  
 This is part of the Gaussian(R) 16 program.  It is based on
 the Gaussian(R) 09 system (copyright 2009, Gaussian, Inc.),
 the Gaussian(R) 03 system (copyright 2003, Gaussian, Inc.),
 the Gaussian(R) 98 system (copyright 1998, Gaussian, Inc.),
 the Gaussian(R) 94 system (copyright 1995, Gaussian, Inc.),
 the Gaussian 92(TM) system (copyright 1992, Gaussian, Inc.),
 the Gaussian 90(TM) system (copyright 1990, Gaussian, Inc.),
 the Gaussian 88(TM) system (copyright 1988, Gaussian, Inc.),
 the Gaussian 86(TM) system (copyright 1986, Carnegie Mellon
 University), and the Gaussian 82(TM) system (copyright 1983,
 Carnegie Mellon University). Gaussian is a federally registered
 trademark of Gaussian, Inc.
  
 This software contains proprietary and confidential information,
 including trade secrets, belonging to Gaussian, Inc.
  
 This software is provided under written license and may be
 used, copied, transmitted, or stored only in accord with that
 written license.
  
 The following legend is applicable only to US Government
 contracts under FAR:
  
                    RESTRICTED RIGHTS LEGEND
  
 Use, reproduction and disclosure by the US Government is
 subject to restrictions as set forth in subparagraphs (a)
 and (c) of the Commercial Computer Software - Restricted
 Rights clause in FAR 52.227-19.
  
 Gaussian, Inc.
 340 Quinnipiac St., Bldg. 40, Wallingford CT 06492
  
  
 ---------------------------------------------------------------
 Warning -- This program may not be used in any manner that
 competes with the business of Gaussian, Inc. or will provide
 assistance to any competitor of Gaussian, Inc.  The licensee
 of this program is prohibited from giving any competitor of
 Gaussian, Inc. access to this program.  By using this program,
 the user acknowledges that Gaussian, Inc. is engaged in the
 business of creating and licensing software in the field of
 computational chemistry and represents and warrants to the
 licensee that it is not a competitor of Gaussian, Inc. and that
 it will not use this program in any manner prohibited above.
 ---------------------------------------------------------------
  

 Cite this work as:
 Gaussian 16, Revision C.02,
 M. J. Frisch, G. W. Trucks, H. B. Schlegel, G. E. Scuseria, 
 M. A. Robb, J. R. Cheeseman, G. Scalmani, V. Barone, 
 G. A. Petersson, H. Nakatsuji, X. Li, M. Caricato, A. V. Marenich, 
 J. Bloino, B. G. Janesko, R. Gomperts, B. Mennucci, H. P. Hratchian, 
 J. V. Ortiz, A. F. Izmaylov, J. L. Sonnenberg, D. Williams-Young, 
 F. Ding, F. Lipparini, F. Egidi, J. Goings, B. Peng, A. Petrone, 
 T. Henderson, D. Ranasinghe, V. G. Zakrzewski, J. Gao, N. Rega, 
 G. Zheng, W. Liang, M. Hada, M. Ehara, K. Toyota, R. Fukuda, 
 J. Hasegawa, M. Ishida, T. Nakajima, Y. Honda, O. Kitao, H. Nakai, 
 T. Vreven, K. Throssell, J. A. Montgomery, Jr., J. E. Peralta, 
 F. Ogliaro, M. J. Bearpark, J. J. Heyd, E. N. Brothers, K. N. Kudin, 
 V. N. Staroverov, T. A. Keith, R. Kobayashi, J. Normand, 
 K. Raghavachari, A. P. Rendell, J. C. Burant, S. S. Iyengar, 
 J. Tomasi, M. Cossi, J. M. Millam, M. Klene, C. Adamo, R. Cammi, 
 J. W. Ochterski, R. L. Martin, K. Morokuma, O. Farkas, 
 J. B. Foresman, and D. J. Fox, Gaussian, Inc., Wallingford CT, 2019.
 
 ******************************************
 Gaussian 16:  ES64L-G16RevC.02  7-Dec-2021
                 7-Oct-2025 
 ******************************************
 SetLPE:    new flags="-opt 'Tsnet.Node.lindarsharg: ssh'  -nodelist 'n2.head.cm.mguif.local' -env GAUSS_MDEF=1342177280 -env GAUSS_EXEDIR="/hpc/softwares/Gaussian/g16/bsd:/hpc/softwares/Gaussian/g16""
 Will use up to    1 processors via Linda.
 ----------------------------------------------------------
 # td=(50-50,nstates=3) b3lyp/6-31+g(d,p) geom=connectivity
 ----------------------------------------------------------
 1/38=1,57=2,172=1/1;
 2/12=2,17=6,18=5,40=1/2;
 3/5=1,6=6,7=111,11=9,25=1,30=1,74=-5/1,2,3,8;
 4//1;
 5/5=2,38=5/2;
 8/6=1,10=2,108=3/1;
 9/41=3,42=1,48=2,70=2/14;
 6/7=2,8=2,9=2,10=2/1;
 99/5=1,9=1/99;
 -------------------
 Title Card Required
 -------------------
 Symbolic Z-matrix:
 Charge =  0 Multiplicity = 1
 C                    -4.45493   0.46292  -0.00001 
 C                    -3.30313  -0.5274   -0.00005 
 O                    -2.07816   0.19825   0.00001 
 C                    -0.93913  -0.64021   0.00006 
 C                     0.32175   0.1932    0.00002 
 C                     0.27462   1.59352   0.00003 
 C                     1.44401   2.35643   0.00001 
 C                     2.69087   1.72835  -0.00003 
 C                     2.7653    0.33411  -0.00003 
 C                     1.58688  -0.41083  0. 
 Cl                    1.71389  -2.17384  0. 
 H                    -5.4114   -0.07053  -0.00008 
 H                    -4.41507   1.10163   0.8877 
 H                    -4.41502   1.10174  -0.88764 
 H                    -3.34832  -1.17793  -0.88875 
 H                    -3.34835  -1.17802   0.88859 
 H                    -0.94926  -1.2991    0.88417 
 H                    -0.94924  -1.2992   -0.88398 
 H                    -0.69827   2.07109   0.00005 
 H                     1.37872   3.44036   0.00001 
 H                     3.60518   2.31414  -0.00005 
 H                     3.72276  -0.17542  -0.00006 
 
                          Input orientation:                          
 ---------------------------------------------------------------------
 Center     Atomic      Atomic             Coordinates (Angstroms)
 Number     Number       Type             X           Y           Z
 ---------------------------------------------------------------------
      1          6           0       -4.454931    0.462921   -0.000013
      2          6           0       -3.303128   -0.527404   -0.000047
      3          8           0       -2.078159    0.198250    0.000010
      4          6           0       -0.939132   -0.640210    0.000058
      5          6           0        0.321752    0.193197    0.000024
      6          6           0        0.274621    1.593517    0.000030
      7          6           0        1.444007    2.356430    0.000005
      8          6           0        2.690869    1.728351   -0.000025
      9          6           0        2.765295    0.334113   -0.000030
     10          6           0        1.586880   -0.410827   -0.000004
     11         17           0        1.713889   -2.173841   -0.000002
     12          1           0       -5.411398   -0.070525   -0.000079
     13          1           0       -4.415067    1.101625    0.887698
     14          1           0       -4.415020    1.101737   -0.887642
     15          1           0       -3.348318   -1.177926   -0.888753
     16          1           0       -3.348347   -1.178020    0.888591
     17          1           0       -0.949256   -1.299100    0.884168
     18          1           0       -0.949242   -1.299195   -0.883980
     19          1           0       -0.698265    2.071089    0.000048
     20          1           0        1.378719    3.440356    0.000011
     21          1           0        3.605179    2.314139   -0.000045
     22          1           0        3.722763   -0.175417   -0.000055
 ---------------------------------------------------------------------
                    Distance matrix (angstroms):
                    1          2          3          4          5
     1  C    0.000000
     2  C    1.519011   0.000000
     3  O    2.391463   1.423771   0.000000
     4  C    3.684799   2.366686   1.414354   0.000000
     5  C    4.784292   3.695811   2.399916   1.511422   0.000000
     6  C    4.862809   4.159158   2.735387   2.542191   1.401113
     7  C    6.195389   5.554439   4.130786   3.828734   2.437013
     8  C    7.256981   6.404407   5.008477   4.334396   2.823015
     9  C    7.221375   6.129272   4.845359   3.830416   2.447603
    10  C    6.104663   4.891397   3.715304   2.536406   1.401925
    11  Cl   6.708715   5.280267   4.472856   3.064400   2.746073
    12  H    1.095168   2.157207   3.344058   4.508404   5.739212
    13  H    1.094332   2.162923   2.658047   3.987984   4.904147
    14  H    1.094333   2.162921   2.658032   3.988006   4.904121
    15  H    2.169523   1.102279   2.072936   2.623605   4.017377
    16  H    2.169524   1.102281   2.072938   2.623556   4.017389
    17  H    4.021971   2.630221   2.073214   1.102674   2.150377
    18  H    4.021978   2.630167   2.073218   1.102672   2.150377
    19  H    4.086410   3.679331   2.326292   2.721977   2.137034
    20  H    6.549549   6.137003   4.739331   4.692915   3.414853
    21  H    8.269969   7.469878   6.064430   5.420234   3.908873
    22  H    8.202570   7.034702   5.812944   4.685008   3.420929
                    6          7          8          9         10
     6  C    0.000000
     7  C    1.396245   0.000000
     8  C    2.420007   1.396119   0.000000
     9  C    2.790978   2.415692   1.396223   0.000000
    10  C    2.395708   2.770943   2.407255   1.394130   0.000000
    11  Cl   4.032924   4.538303   4.022635   2.719428   1.767583
    12  H    5.924512   7.272323   8.299559   8.186699   7.006547
    13  H    4.798238   6.057333   7.188544   7.275626   6.252911
    14  H    4.798181   6.057258   7.188475   7.275577   6.252884
    15  H    4.647205   6.020626   6.760774   6.360217   5.072918
    16  H    4.647242   6.020679   6.760825   6.360253   5.072933
    17  H    3.262945   4.457842   4.816406   4.152960   2.828918
    18  H    3.262989   4.457877   4.816411   4.152932   2.828874
    19  H    1.083781   2.161192   3.406420   3.874704   3.373692
    20  H    2.151708   1.085890   2.157012   3.401667   3.856805
    21  H    3.407626   2.161586   1.085868   2.150792   3.391013
    22  H    3.875411   3.406314   2.165442   1.084604   2.148817
                   11         12         13         14         15
    11  Cl   0.000000
    12  H    7.429243   0.000000
    13  H    7.005768   1.776164   0.000000
    14  H    7.005772   1.776157   1.775340   0.000000
    15  H    5.235233   2.504472   3.080598   2.516887   0.000000
    16  H    5.235216   2.504488   2.516878   3.080598   1.777344
    17  H    2.939263   4.711900   4.216081   4.573276   2.985537
    18  H    2.939165   4.711873   4.573262   4.216172   2.402144
    19  H    4.882409   5.176885   3.942385   3.942322   4.285889
    20  H    5.624193   7.644081   6.310753   6.310664   6.668081
    21  H    4.870210   9.326590   8.159818   8.159739   7.831695
    22  H    2.833597   9.134763   8.285120   8.285074   7.196874
                   16         17         18         19         20
    16  H    0.000000
    17  H    2.402149   0.000000
    18  H    2.985364   1.768148   0.000000
    19  H    4.285925   3.493256   3.493324   0.000000
    20  H    6.668142   5.353844   5.353894   2.487721   0.000000
    21  H    7.831754   5.880494   5.880499   4.310302   2.495093
    22  H    7.196909   4.885926   4.885881   4.959060   4.309102
                   21         22
    21  H    0.000000
    22  H    2.492331   0.000000
 Stoichiometry    C9H11ClO
 Framework group  C1[X(C9H11ClO)]
 Deg. of freedom    60
 Full point group                 C1      NOp   1
 Largest Abelian subgroup         C1      NOp   1
 Largest concise Abelian subgroup C1      NOp   1
                         Standard orientation:                         
 ---------------------------------------------------------------------
 Center     Atomic      Atomic             Coordinates (Angstroms)
 Number     Number       Type             X           Y           Z
 ---------------------------------------------------------------------
      1          6           0       -4.454931    0.462921   -0.000013
      2          6           0       -3.303128   -0.527404   -0.000047
      3          8           0       -2.078159    0.198250    0.000010
      4          6           0       -0.939132   -0.640210    0.000058
      5          6           0        0.321752    0.193197    0.000024
      6          6           0        0.274621    1.593517    0.000030
      7          6           0        1.444007    2.356430    0.000005
      8          6           0        2.690869    1.728351   -0.000025
      9          6           0        2.765295    0.334113   -0.000030
     10          6           0        1.586880   -0.410827   -0.000004
     11         17           0        1.713889   -2.173841   -0.000002
     12          1           0       -5.411398   -0.070525   -0.000079
     13          1           0       -4.415067    1.101625    0.887698
     14          1           0       -4.415020    1.101737   -0.887642
     15          1           0       -3.348318   -1.177926   -0.888753
     16          1           0       -3.348347   -1.178020    0.888591
     17          1           0       -0.949256   -1.299100    0.884168
     18          1           0       -0.949242   -1.299195   -0.883980
     19          1           0       -0.698265    2.071089    0.000048
     20          1           0        1.378719    3.440356    0.000011
     21          1           0        3.605179    2.314139   -0.000045
     22          1           0        3.722763   -0.175417   -0.000055
 ---------------------------------------------------------------------
 Rotational constants (GHZ):           1.4527195           0.5530759           0.4036140
 Standard basis: 6-31+G(d,p) (6D, 7F)
 There are   268 symmetry adapted cartesian basis functions of A   symmetry.
 There are   268 symmetry adapted basis functions of A   symmetry.
   268 basis functions,   453 primitive gaussians,   268 cartesian basis functions
    45 alpha electrons       45 beta electrons
       nuclear repulsion energy       661.9550701295 Hartrees.
 NAtoms=   22 NActive=   22 NUniq=   22 SFac= 1.00D+00 NAtFMM=   60 NAOKFM=F Big=F
 Integral buffers will be    131072 words long.
 Regular integral format.
 Two-electron integral symmetry is turned on.
 One-electron integrals computed using PRISM.
 NBasis=   268 RedAO= T EigKep=  1.35D-06  NBF=   268
 NBsUse=   268 1.00D-06 EigRej= -1.00D+00 NBFU=   268
 ExpMin= 4.38D-02 ExpMax= 2.52D+04 ExpMxC= 3.78D+03 IAcc=3 IRadAn=         5 AccDes= 0.00D+00
 Harris functional with IExCor=  402 and IRadAn=       5 diagonalized for initial guess.
 HarFok:  IExCor=  402 AccDes= 0.00D+00 IRadAn=         5 IDoV= 1 UseB2=F ITyADJ=14
 ICtDFT=  3500011 ScaDFX=  1.000000  1.000000  1.000000  1.000000
 FoFCou: FMM=F IPFlag=           0 FMFlag=      100000 FMFlg1=           0
         NFxFlg=           0 DoJE=T BraDBF=F KetDBF=T FulRan=T
         wScrn=  0.000000 ICntrl=       500 IOpCl=  0 I1Cent=   200000004 NGrid=           0
         NMat0=    1 NMatS0=      1 NMatT0=    0 NMatD0=    1 NMtDS0=    0 NMtDT0=    0
 Petite list used in FoFCou.
 Requested convergence on RMS density matrix=1.00D-08 within 128 cycles.
 Requested convergence on MAX density matrix=1.00D-06.
 Requested convergence on             energy=1.00D-06.
 No special actions if energy rises.
 SCF Done:  E(RB3LYP) =  -885.026310619     A.U. after   15 cycles
            NFock= 15  Conv=0.27D-08     -V/T= 2.0063
 DoSCS=F DFT=T ScalE2(SS,OS)=  1.000000  1.000000
 ExpMin= 4.38D-02 ExpMax= 2.52D+04 ExpMxC= 3.78D+03 IAcc=3 IRadAn=         5 AccDes= 0.00D+00
 HarFok:  IExCor=  205 AccDes= 0.00D+00 IRadAn=         5 IDoV=-2 UseB2=F ITyADJ=14
 ICtDFT= 12500011 ScaDFX=  1.000000  1.000000  1.000000  1.000000
 Range of M.O.s used for correlation:    16   268
 NBasis=   268 NAE=    45 NBE=    45 NFC=    15 NFV=     0
 NROrb=    253 NOA=    30 NOB=    30 NVA=   223 NVB=   223

 **** Warning!!: The largest alpha MO coefficient is  0.18892408D+03

 Orbital symmetries:
       Occupied  (A) (A) (A) (A) (A) (A) (A) (A) (A) (A) (A) (A)
                 (A) (A) (A) (A) (A) (A) (A) (A) (A) (A) (A) (A)
                 (A) (A) (A) (A) (A) (A) (A) (A) (A) (A) (A) (A)
                 (A) (A) (A) (A) (A) (A) (A) (A) (A)
       Virtual   (A) (A) (A) (A) (A) (A) (A) (A) (A) (A) (A) (A)
                 (A) (A) (A) (A) (A) (A) (A) (A) (A) (A) (A) (A)
                 (A) (A) (A) (A) (A) (A) (A) (A) (A) (A) (A) (A)
                 (A) (A) (A) (A) (A) (A) (A) (A) (A) (A) (A) (A)
                 (A) (A) (A) (A) (A) (A) (A) (A) (A) (A) (A) (A)
                 (A) (A) (A) (A) (A) (A) (A) (A) (A) (A) (A) (A)
                 (A) (A) (A) (A) (A) (A) (A) (A) (A) (A) (A) (A)
                 (A) (A) (A) (A) (A) (A) (A) (A) (A) (A) (A) (A)
                 (A) (A) (A) (A) (A) (A) (A) (A) (A) (A) (A) (A)
                 (A) (A) (A) (A) (A) (A) (A) (A) (A) (A) (A) (A)
                 (A) (A) (A) (A) (A) (A) (A) (A) (A) (A) (A) (A)
                 (A) (A) (A) (A) (A) (A) (A) (A) (A) (A) (A) (A)
                 (A) (A) (A) (A) (A) (A) (A) (A) (A) (A) (A) (A)
                 (A) (A) (A) (A) (A) (A) (A) (A) (A) (A) (A) (A)
                 (A) (A) (A) (A) (A) (A) (A) (A) (A) (A) (A) (A)
                 (A) (A) (A) (A) (A) (A) (A) (A) (A) (A) (A) (A)
                 (A) (A) (A) (A) (A) (A) (A) (A) (A) (A) (A) (A)
                 (A) (A) (A) (A) (A) (A) (A) (A) (A) (A) (A) (A)
                 (A) (A) (A) (A) (A) (A) (A)
    24 initial guesses have been made.
 Convergence on wavefunction:    0.001000000000000
 Iteration     1 Dimension    24 NMult     0 NNew     24
 CISAX will form    24 AO SS matrices at one time.
 New state      1 was old state      2
 New state      2 was old state      4
 New state      3 was old state      8
 New state      4 was old state      6
 New state      5 was old state      3
 New state      6 was old state     10
 New state      7 was old state      9
 New state      8 was old state     16
 New state      9 was old state     15
 New state     10 was old state     12
 New state     12 was old state     14
 Vector   4 SDiff=2.71D+00 TDiff=4.04D+00 assumed to be singlet.
 Vector   6 SDiff=3.88D-05 TDiff=7.15D+00 assumed to be singlet.
 Vector  10 SDiff=2.90D+00 TDiff=3.83D+00 assumed to be singlet.
 Vector  12 SDiff=7.15D+00 TDiff=7.22D-05 assumed to be triplet.
 Iteration     2 Dimension    36 NMult    24 NNew     12
 New state      4 was old state      5
 New state      5 was old state      9
 New state      6 was old state      7
 Iteration     3 Dimension    48 NMult    36 NNew     12
 Iteration     4 Dimension    60 NMult    48 NNew     12
 Iteration     5 Dimension    72 NMult    60 NNew     12
 Iteration     6 Dimension    76 NMult    72 NNew      4
 Iteration     7 Dimension    78 NMult    76 NNew      2
 ***********************************************************************
 Excited states from <AA,BB:AA,BB> singles matrix:
 ***********************************************************************
 
 Ground to excited state transition densities written to RWF  633
 Ground to excited state transition electric dipole moments (Au):
       state          X           Y           Z        Dip. S.      Osc.
         1         0.0000      0.0000      0.0000      0.0000      0.0000
         2        -0.0000      0.0000     -0.0000      0.0000      0.0000
         3        -0.0000     -0.0000     -0.0000      0.0000      0.0000
         4        -0.1001     -0.1070      0.0000      0.0215      0.0027
         5         0.3157     -0.4028     -0.0000      0.2619      0.0368
         6         0.0000      0.0000     -0.0082      0.0001      0.0000
 Ground to excited state transition velocity dipole moments (Au):
       state          X           Y           Z        Dip. S.      Osc.
         1        -0.0000      0.0000     -0.0000      0.0000      0.0000
         2         0.0000      0.0000      0.0000      0.0000      0.0000
         3        -0.0000      0.0000      0.0000      0.0000      0.0000
         4         0.0194      0.0187     -0.0000      0.0007      0.0025
         5        -0.0654      0.0785      0.0000      0.0104      0.0330
         6        -0.0000     -0.0000      0.0068      0.0000      0.0001
 Ground to excited state transition magnetic dipole moments (Au):
       state          X           Y           Z
         1        -0.0000      0.0000     -0.0000
         2         0.0000     -0.0000     -0.0000
         3        -0.0000     -0.0000      0.0000
         4         0.0000      0.0000     -0.0686
         5        -0.0000     -0.0000      0.4136
         6        -0.1778      0.0478      0.0000
 Ground to excited state transition velocity quadrupole moments (Au):
       state          XX          YY          ZZ          XY          XZ          YZ
         1         0.0000      0.0000      0.0000      0.0000     -0.0000     -0.0000
         2         0.0000     -0.0000     -0.0000      0.0000      0.0000      0.0000
         3        -0.0000      0.0000      0.0000      0.0000      0.0000     -0.0000
         4         0.0465      0.0345     -0.0082      0.1129     -0.0000     -0.0000
         5        -0.1401     -0.0066      0.0396      0.3329     -0.0000     -0.0000
         6        -0.0000     -0.0000      0.0000     -0.0000     -0.0570     -0.2966
 <0|del|b> * <b|rxdel|0> + <0|del|b> * <b|delr+rdel|0>
 Rotatory Strengths (R) in cgs (10**-40 erg-esu-cm/Gauss)
       state          XX          YY          ZZ    R(velocity)    E-M Angle
         1         0.0000      0.0000      0.0000      0.0000       90.00
         2        -0.0000      0.0000      0.0000      0.0000       90.00
         3         0.0000      0.0000      0.0000      0.0000       90.00
         4         0.0003      0.0000      0.0001      0.0002       90.00
         5         0.0057      0.0042     -0.0007      0.0031       90.00
         6        -0.0005      0.0029     -0.0006      0.0006       90.00
 1/2[<0|r|b>*<b|rxdel|0> + (<0|rxdel|b>*<b|r|0>)*]
 Rotatory Strengths (R) in cgs (10**-40 erg-esu-cm/Gauss)
       state          XX          YY          ZZ     R(length)
         1         0.0000     -0.0000      0.0000      0.0000
         2         0.0000      0.0000     -0.0000      0.0000
         3        -0.0000     -0.0000      0.0000     -0.0000
         4         0.0000      0.0004      0.0003      0.0003
         5         0.0044     -0.0002      0.0053      0.0031
         6         0.0022     -0.0004      0.0001      0.0006
  1/2[<0|del|b>*<b|r|0> + (<0|r|b>*<b|del|0>)*] (Au)
       state          X           Y           Z        Dip. S.   Osc.(frdel)
         1        -0.0000      0.0000     -0.0000      0.0000      0.0000
         2        -0.0000      0.0000     -0.0000      0.0000      0.0000
         3         0.0000     -0.0000     -0.0000      0.0000      0.0000
         4        -0.0019     -0.0020     -0.0000      0.0039      0.0026
         5        -0.0206     -0.0316     -0.0000      0.0523      0.0348
         6        -0.0000     -0.0000     -0.0001      0.0001      0.0000

 Excitation energies and oscillator strengths:
 
 Excited State   1:      Triplet-A      3.6700 eV  337.83 nm  f=0.0000  <S**2>=2.000
      43 -> 47        -0.12951
      44 -> 46         0.22760
      44 -> 47         0.36517
      45 -> 46         0.47559
      45 -> 47        -0.24424
 This state for optimization and/or second-order correction.
 Total Energy, E(TD-HF/TD-DFT) =  -884.891441961    
 Copying the excited state density for this state as the 1-particle RhoCI density.
 
 Excited State   2:      Triplet-A      4.5342 eV  273.44 nm  f=0.0000  <S**2>=2.000
      43 -> 47         0.11947
      44 -> 46         0.28060
      44 -> 47        -0.22667
      45 -> 46         0.32232
      45 -> 47         0.49465
 
 Excited State   3:      Triplet-A      4.5671 eV  271.47 nm  f=0.0000  <S**2>=2.000
      43 -> 46        -0.11331
      44 -> 46         0.32931
      44 -> 47         0.42175
      45 -> 46        -0.35975
      45 -> 47         0.24854
 
 Excited State   4:      Singlet-A      5.1849 eV  239.13 nm  f=0.0027  <S**2>=0.000
      44 -> 46        -0.37823
      44 -> 47         0.22112
      45 -> 46         0.27564
      45 -> 47         0.47257
 
 Excited State   5:      Singlet-A      5.7418 eV  215.93 nm  f=0.0368  <S**2>=0.000
      43 -> 46        -0.10187
      44 -> 46         0.15279
      44 -> 47         0.30963
      45 -> 46         0.51806
      45 -> 47        -0.30696
 
 Excited State   6:      Singlet-A      5.8636 eV  211.45 nm  f=0.0000  <S**2>=0.000
      45 -> 48         0.66627
      45 -> 49         0.12597
      45 -> 51        -0.13905
 SavETr:  write IOETrn=   770 NScale= 10 NData=  16 NLR=1 NState=    6 LETran=     118.

 **********************************************************************

            Population analysis using the SCF Density.

 **********************************************************************

 Orbital symmetries:
       Occupied  (A) (A) (A) (A) (A) (A) (A) (A) (A) (A) (A) (A)
                 (A) (A) (A) (A) (A) (A) (A) (A) (A) (A) (A) (A)
                 (A) (A) (A) (A) (A) (A) (A) (A) (A) (A) (A) (A)
                 (A) (A) (A) (A) (A) (A) (A) (A) (A)
       Virtual   (A) (A) (A) (A) (A) (A) (A) (A) (A) (A) (A) (A)
                 (A) (A) (A) (A) (A) (A) (A) (A) (A) (A) (A) (A)
                 (A) (A) (A) (A) (A) (A) (A) (A) (A) (A) (A) (A)
                 (A) (A) (A) (A) (A) (A) (A) (A) (A) (A) (A) (A)
                 (A) (A) (A) (A) (A) (A) (A) (A) (A) (A) (A) (A)
                 (A) (A) (A) (A) (A) (A) (A) (A) (A) (A) (A) (A)
                 (A) (A) (A) (A) (A) (A) (A) (A) (A) (A) (A) (A)
                 (A) (A) (A) (A) (A) (A) (A) (A) (A) (A) (A) (A)
                 (A) (A) (A) (A) (A) (A) (A) (A) (A) (A) (A) (A)
                 (A) (A) (A) (A) (A) (A) (A) (A) (A) (A) (A) (A)
                 (A) (A) (A) (A) (A) (A) (A) (A) (A) (A) (A) (A)
                 (A) (A) (A) (A) (A) (A) (A) (A) (A) (A) (A) (A)
                 (A) (A) (A) (A) (A) (A) (A) (A) (A) (A) (A) (A)
                 (A) (A) (A) (A) (A) (A) (A) (A) (A) (A) (A) (A)
                 (A) (A) (A) (A) (A) (A) (A) (A) (A) (A) (A) (A)
                 (A) (A) (A) (A) (A) (A) (A) (A) (A) (A) (A) (A)
                 (A) (A) (A) (A) (A) (A) (A) (A) (A) (A) (A) (A)
                 (A) (A) (A) (A) (A) (A) (A) (A) (A) (A) (A) (A)
                 (A) (A) (A) (A) (A) (A) (A)
 The electronic state is 1-A.
 Alpha  occ. eigenvalues -- -101.55707 -19.16703 -10.25863 -10.24989 -10.24382
 Alpha  occ. eigenvalues --  -10.21799 -10.20878 -10.20534 -10.20222 -10.20064
 Alpha  occ. eigenvalues --  -10.18647  -9.47212  -7.23602  -7.22658  -7.22628
 Alpha  occ. eigenvalues --   -1.04886  -0.89749  -0.84003  -0.79300  -0.75524
 Alpha  occ. eigenvalues --   -0.74038  -0.68468  -0.62882  -0.60426  -0.59567
 Alpha  occ. eigenvalues --   -0.52214  -0.50811  -0.49675  -0.47037  -0.45962
 Alpha  occ. eigenvalues --   -0.44741  -0.44463  -0.43227  -0.39513  -0.39231
 Alpha  occ. eigenvalues --   -0.39136  -0.36542  -0.36406  -0.36071  -0.33775
 Alpha  occ. eigenvalues --   -0.33349  -0.31681  -0.27452  -0.26013  -0.24905
 Alpha virt. eigenvalues --   -0.02225  -0.02034   0.00110   0.00484   0.01503
 Alpha virt. eigenvalues --    0.02552   0.03184   0.03455   0.03662   0.05038
 Alpha virt. eigenvalues --    0.05537   0.06233   0.06236   0.07345   0.07698
 Alpha virt. eigenvalues --    0.07810   0.08834   0.09090   0.10358   0.10666
 Alpha virt. eigenvalues --    0.11380   0.11433   0.12333   0.12820   0.12935
 Alpha virt. eigenvalues --    0.13251   0.14597   0.15705   0.16027   0.16982
 Alpha virt. eigenvalues --    0.17515   0.17661   0.17856   0.19032   0.19425
 Alpha virt. eigenvalues --    0.20148   0.20597   0.21669   0.21768   0.21981
 Alpha virt. eigenvalues --    0.22622   0.22790   0.23390   0.23634   0.23710
 Alpha virt. eigenvalues --    0.24533   0.24905   0.26090   0.26461   0.27527
 Alpha virt. eigenvalues --    0.27842   0.28555   0.29267   0.29305   0.29549
 Alpha virt. eigenvalues --    0.30592   0.31372   0.31842   0.33578   0.34706
 Alpha virt. eigenvalues --    0.36003   0.37119   0.37972   0.38690   0.40951
 Alpha virt. eigenvalues --    0.45777   0.47404   0.53779   0.55552   0.61740
 Alpha virt. eigenvalues --    0.61821   0.62429   0.64118   0.64890   0.65019
 Alpha virt. eigenvalues --    0.66135   0.67569   0.68507   0.69089   0.69419
 Alpha virt. eigenvalues --    0.70834   0.71789   0.72518   0.74084   0.74127
 Alpha virt. eigenvalues --    0.75213   0.76308   0.77686   0.78908   0.79114
 Alpha virt. eigenvalues --    0.82344   0.82375   0.83738   0.86353   0.89098
 Alpha virt. eigenvalues --    0.89141   0.92142   0.93052   0.94127   0.94394
 Alpha virt. eigenvalues --    0.94409   0.96302   0.98028   0.98345   1.01154
 Alpha virt. eigenvalues --    1.02182   1.03252   1.06870   1.07646   1.08495
 Alpha virt. eigenvalues --    1.11370   1.12066   1.14780   1.16162   1.18387
 Alpha virt. eigenvalues --    1.18745   1.18982   1.20404   1.23788   1.24495
 Alpha virt. eigenvalues --    1.29084   1.29466   1.33793   1.34945   1.37834
 Alpha virt. eigenvalues --    1.39059   1.39919   1.40777   1.41254   1.44719
 Alpha virt. eigenvalues --    1.48413   1.53850   1.54290   1.58533   1.65750
 Alpha virt. eigenvalues --    1.70512   1.71348   1.71589   1.77668   1.81231
 Alpha virt. eigenvalues --    1.83022   1.87287   1.89623   1.90487   1.91844
 Alpha virt. eigenvalues --    1.94204   1.95609   1.97519   1.97840   1.98821
 Alpha virt. eigenvalues --    1.99317   1.99523   2.02217   2.03818   2.04595
 Alpha virt. eigenvalues --    2.05938   2.08834   2.09723   2.09756   2.10529
 Alpha virt. eigenvalues --    2.12184   2.16781   2.17730   2.25897   2.27038
 Alpha virt. eigenvalues --    2.27056   2.28561   2.34818   2.37750   2.38867
 Alpha virt. eigenvalues --    2.40022   2.41184   2.44721   2.46466   2.48900
 Alpha virt. eigenvalues --    2.49537   2.51687   2.54831   2.56232   2.57230
 Alpha virt. eigenvalues --    2.58840   2.62953   2.66124   2.67604   2.70223
 Alpha virt. eigenvalues --    2.73152   2.73406   2.75428   2.78910   2.78968
 Alpha virt. eigenvalues --    2.81358   2.84906   2.87429   2.88715   2.89123
 Alpha virt. eigenvalues --    2.93646   3.00806   3.05027   3.12353   3.19946
 Alpha virt. eigenvalues --    3.25595   3.26702   3.29149   3.31128   3.34311
 Alpha virt. eigenvalues --    3.38070   3.38293   3.44226   3.47504   3.49594
 Alpha virt. eigenvalues --    3.52282   3.83402   4.25482   4.29019   4.33503
 Alpha virt. eigenvalues --    4.34682   4.39790   4.44324   4.47365   4.48418
 Alpha virt. eigenvalues --    4.59791   4.69632   4.82889
          Condensed to atoms (all electrons):
               1          2          3          4          5          6
     1  C    5.477492  -0.110484  -0.003608   0.154422  -0.303512   0.092956
     2  C   -0.110484   5.639939  -0.010908   0.210800  -0.282119  -0.118754
     3  O   -0.003608  -0.010908   8.469958   0.265515  -0.130625  -0.361652
     4  C    0.154422   0.210800   0.265515  10.186023  -3.938826  -1.924389
     5  C   -0.303512  -0.282119  -0.130625  -3.938826  16.571403  -0.446111
     6  C    0.092956  -0.118754  -0.361652  -1.924389  -0.446111  14.479423
     7  C    0.016334   0.060553   0.162388   0.642925  -0.674212  -2.234517
     8  C    0.005413   0.003105  -0.006309  -0.059999  -0.626154   0.244263
     9  C   -0.007588  -0.097486   0.030443  -0.824783   1.561575  -1.518503
    10  C   -0.030476   0.003075   0.136008   1.690761  -5.851027  -3.344215
    11  Cl   0.000533   0.005931  -0.002913  -0.156357  -0.133892   0.198962
    12  H    0.430640  -0.073664   0.006632  -0.000608  -0.005160   0.001429
    13  H    0.464956  -0.096223  -0.004906   0.009632  -0.018397   0.007501
    14  H    0.464937  -0.096210  -0.004907   0.009633  -0.018392   0.007500
    15  H    0.005126   0.384875  -0.063041   0.024884  -0.054886   0.017067
    16  H    0.005127   0.384913  -0.063040   0.024870  -0.054908   0.017057
    17  H   -0.002509   0.001963  -0.050603   0.500115  -0.138976  -0.003970
    18  H   -0.002510   0.001948  -0.050609   0.500113  -0.138982  -0.003999
    19  H    0.003123   0.000713  -0.004830  -0.023191   0.006960   0.178189
    20  H   -0.000105  -0.000119   0.000400  -0.002559   0.055496   0.015823
    21  H   -0.000001   0.000016   0.000010  -0.000101  -0.005382   0.034342
    22  H   -0.000000   0.000110   0.000033   0.008584   0.133246   0.013612
               7          8          9         10         11         12
     1  C    0.016334   0.005413  -0.007588  -0.030476   0.000533   0.430640
     2  C    0.060553   0.003105  -0.097486   0.003075   0.005931  -0.073664
     3  O    0.162388  -0.006309   0.030443   0.136008  -0.002913   0.006632
     4  C    0.642925  -0.059999  -0.824783   1.690761  -0.156357  -0.000608
     5  C   -0.674212  -0.626154   1.561575  -5.851027  -0.133892  -0.005160
     6  C   -2.234517   0.244263  -1.518503  -3.344215   0.198962   0.001429
     7  C    7.253874   0.497605   0.402397  -0.250507  -0.021734   0.000035
     8  C    0.497605   5.448056  -0.030423   0.219042   0.056813   0.000001
     9  C    0.402397  -0.030423  10.170854  -3.509026  -0.132573  -0.000017
    10  C   -0.250507   0.219042  -3.509026  17.534563  -0.172681  -0.000326
    11  Cl  -0.021734   0.056813  -0.132573  -0.172681  17.092185   0.000005
    12  H    0.000035   0.000001  -0.000017  -0.000326   0.000005   0.552504
    13  H    0.000952   0.000119  -0.000070  -0.001074   0.000010  -0.026612
    14  H    0.000951   0.000119  -0.000070  -0.001074   0.000010  -0.026612
    15  H    0.001951   0.000131  -0.000588  -0.008404   0.000061  -0.001494
    16  H    0.001950   0.000131  -0.000589  -0.008394   0.000060  -0.001494
    17  H    0.014278  -0.000934  -0.004085  -0.012921  -0.002851   0.000004
    18  H    0.014269  -0.000933  -0.004070  -0.012874  -0.002848   0.000004
    19  H    0.018415   0.005941  -0.004364   0.122609   0.000075  -0.000000
    20  H    0.262444  -0.029054   0.031097  -0.023115  -0.000053   0.000000
    21  H    0.010319   0.284972  -0.048143   0.034498   0.001003  -0.000000
    22  H   -0.021272  -0.037432   0.126925   0.100321  -0.011647  -0.000000
              13         14         15         16         17         18
     1  C    0.464956   0.464937   0.005126   0.005127  -0.002509  -0.002510
     2  C   -0.096223  -0.096210   0.384875   0.384913   0.001963   0.001948
     3  O   -0.004906  -0.004907  -0.063041  -0.063040  -0.050603  -0.050609
     4  C    0.009632   0.009633   0.024884   0.024870   0.500115   0.500113
     5  C   -0.018397  -0.018392  -0.054886  -0.054908  -0.138976  -0.138982
     6  C    0.007501   0.007500   0.017067   0.017057  -0.003970  -0.003999
     7  C    0.000952   0.000951   0.001951   0.001950   0.014278   0.014269
     8  C    0.000119   0.000119   0.000131   0.000131  -0.000934  -0.000933
     9  C   -0.000070  -0.000070  -0.000588  -0.000589  -0.004085  -0.004070
    10  C   -0.001074  -0.001074  -0.008404  -0.008394  -0.012921  -0.012874
    11  Cl   0.000010   0.000010   0.000061   0.000060  -0.002851  -0.002848
    12  H   -0.026612  -0.026612  -0.001494  -0.001494   0.000004   0.000004
    13  H    0.533057  -0.027489   0.004797  -0.006271  -0.000030   0.000004
    14  H   -0.027489   0.533058  -0.006270   0.004797   0.000004  -0.000030
    15  H    0.004797  -0.006270   0.623713  -0.053113  -0.002719   0.009177
    16  H   -0.006271   0.004797  -0.053113   0.623715   0.009176  -0.002720
    17  H   -0.000030   0.000004  -0.002719   0.009176   0.601005  -0.053589
    18  H    0.000004  -0.000030   0.009177  -0.002720  -0.053589   0.601010
    19  H   -0.000006  -0.000006  -0.000022  -0.000022   0.000120   0.000120
    20  H    0.000000   0.000000   0.000000   0.000000   0.000002   0.000002
    21  H    0.000000   0.000000   0.000000   0.000000   0.000000   0.000000
    22  H    0.000000   0.000000  -0.000000  -0.000000  -0.000002  -0.000002
              19         20         21         22
     1  C    0.003123  -0.000105  -0.000001  -0.000000
     2  C    0.000713  -0.000119   0.000016   0.000110
     3  O   -0.004830   0.000400   0.000010   0.000033
     4  C   -0.023191  -0.002559  -0.000101   0.008584
     5  C    0.006960   0.055496  -0.005382   0.133246
     6  C    0.178189   0.015823   0.034342   0.013612
     7  C    0.018415   0.262444   0.010319  -0.021272
     8  C    0.005941  -0.029054   0.284972  -0.037432
     9  C   -0.004364   0.031097  -0.048143   0.126925
    10  C    0.122609  -0.023115   0.034498   0.100321
    11  Cl   0.000075  -0.000053   0.001003  -0.011647
    12  H   -0.000000   0.000000  -0.000000  -0.000000
    13  H   -0.000006   0.000000   0.000000   0.000000
    14  H   -0.000006   0.000000   0.000000   0.000000
    15  H   -0.000022   0.000000   0.000000  -0.000000
    16  H   -0.000022   0.000000   0.000000  -0.000000
    17  H    0.000120   0.000002   0.000000  -0.000002
    18  H    0.000120   0.000002   0.000000  -0.000002
    19  H    0.548188  -0.005513  -0.000167   0.000012
    20  H   -0.005513   0.572122  -0.005213  -0.000155
    21  H   -0.000167  -0.005213   0.570245  -0.005665
    22  H    0.000012  -0.000155  -0.005665   0.550226
 Mulliken charges:
               1
     1  C   -0.660265
     2  C    0.188025
     3  O   -0.313435
     4  C   -1.297464
     5  C    0.492880
     6  C    0.647984
     7  C   -0.159397
     8  C    0.025528
     9  C   -0.140914
    10  C   -0.614762
    11  Cl   0.281904
    12  H    0.144734
    13  H    0.160050
    14  H    0.160050
    15  H    0.118757
    16  H    0.118754
    17  H    0.146522
    18  H    0.146518
    19  H    0.153656
    20  H    0.128500
    21  H    0.129268
    22  H    0.143107
 Sum of Mulliken charges =  -0.00000
 Mulliken charges with hydrogens summed into heavy atoms:
               1
     1  C   -0.195431
     2  C    0.425536
     3  O   -0.313435
     4  C   -1.004425
     5  C    0.492880
     6  C    0.801641
     7  C   -0.030897
     8  C    0.154796
     9  C    0.002192
    10  C   -0.614762
    11  Cl   0.281904
 Electronic spatial extent (au):  <R**2>=           2669.8568
 Charge=             -0.0000 electrons
 Dipole moment (field-independent basis, Debye):
    X=             -0.9975    Y=              0.4613    Z=             -0.0000  Tot=              1.0990
 Quadrupole moment (field-independent basis, Debye-Ang):
   XX=            -64.4895   YY=            -71.8678   ZZ=            -76.4241
   XY=              5.6012   XZ=             -0.0000   YZ=             -0.0000
 Traceless Quadrupole moment (field-independent basis, Debye-Ang):
   XX=              6.4377   YY=             -0.9407   ZZ=             -5.4970
   XY=              5.6012   XZ=             -0.0000   YZ=             -0.0000
 Octapole moment (field-independent basis, Debye-Ang**2):
  XXX=            -10.7864  YYY=              5.7278  ZZZ=              0.0002  XYY=             -1.3670
  XXY=              0.1041  XXZ=             -0.0014  XZZ=             -9.1907  YZZ=             -7.8145
  YYZ=             -0.0000  XYZ=             -0.0002
 Hexadecapole moment (field-independent basis, Debye-Ang**3):
 XXXX=          -2391.4855 YYYY=           -908.6942 ZZZZ=           -110.6528 XXXY=             29.4167
 XXXZ=              0.0003 YYYX=              1.8486 YYYZ=              0.0000 ZZZX=             -0.0002
 ZZZY=             -0.0000 XXYY=           -580.7253 XXZZ=           -465.9313 YYZZ=           -190.2594
 XXYZ=             -0.0003 YYXZ=             -0.0003 ZZXY=            -12.5876
 N-N= 6.619550701295D+02 E-N=-3.402957490842D+03  KE= 8.794614552535D+02
 Unable to Open any file for archive entry.
 1\1\GINC-N2\SP\RB3LYP TD-FC\6-31+G(d,p)\C9H11Cl1O1\HPCMGAC13\07-Oct-20
 25\0\\# td=(50-50,nstates=3) b3lyp/6-31+g(d,p) geom=connectivity\\Titl
 e Card Required\\0,1\C,0,-4.454931,0.462921,-0.000013\C,0,-3.303128,-0
 .527404,-0.000047\O,0,-2.078159,0.19825,0.00001\C,0,-0.939132,-0.64021
 ,0.000058\C,0,0.321752,0.193197,0.000024\C,0,0.274621,1.593517,0.00003
 \C,0,1.444007,2.35643,0.000005\C,0,2.690869,1.728351,-0.000025\C,0,2.7
 65295,0.334113,-0.00003\C,0,1.58688,-0.410827,-0.000004\Cl,0,1.713889,
 -2.173841,-0.000002\H,0,-5.411398,-0.070525,-0.000079\H,0,-4.415067,1.
 101625,0.887698\H,0,-4.41502,1.101737,-0.887642\H,0,-3.348318,-1.17792
 6,-0.888753\H,0,-3.348347,-1.17802,0.888591\H,0,-0.949256,-1.2991,0.88
 4168\H,0,-0.949242,-1.299195,-0.88398\H,0,-0.698265,2.071089,0.000048\
 H,0,1.378719,3.440356,0.000011\H,0,3.605179,2.314139,-0.000045\H,0,3.7
 22763,-0.175417,-0.000055\\Version=ES64L-G16RevC.02\State=1-A\HF=-885.
 0263106\RMSD=2.674e-09\PG=C01 [X(C9H11Cl1O1)]\\@
 The archive entry for this job was punched.


 SILVERMAN'S PARADOX - IF MURPHY'S LAW CAN GO WRONG, IT WILL.
 Job cpu time:       0 days  0 hours 20 minutes  4.6 seconds.
 Elapsed time:       0 days  0 hours  2 minutes 33.4 seconds.
 File lengths (MBytes):  RWF=    465 Int=      0 D2E=      0 Chk=     20 Scr=      2
 Normal termination of Gaussian 16 at Tue Oct  7 11:44:11 2025.
