 Entering Gaussian System, Link 0=g16
 Input=M2704e.gjf
 Output=M2704e.log
 Initial command:
 /hpc/softwares/Gaussian/g16/l1.exe "/hpc/home/hpcmgac13/pbs.12394.admin1.x8z/Gau-1016406.inp" -scrdir="/hpc/home/hpcmgac13/pbs.12394.admin1.x8z/"
 Default linda workers: n2
 Default is to use  16 SMP processors on each worker.
 Entering Link 1 = /hpc/softwares/Gaussian/g16/l1.exe PID=   1016407.
  
 Copyright (c) 1988-2021, Gaussian, Inc.  All Rights Reserved.
  
 This is part of the Gaussian(R) 16 program.  It is based on
 the Gaussian(R) 09 system (copyright 2009, Gaussian, Inc.),
 the Gaussian(R) 03 system (copyright 2003, Gaussian, Inc.),
 the Gaussian(R) 98 system (copyright 1998, Gaussian, Inc.),
 the Gaussian(R) 94 system (copyright 1995, Gaussian, Inc.),
 the Gaussian 92(TM) system (copyright 1992, Gaussian, Inc.),
 the Gaussian 90(TM) system (copyright 1990, Gaussian, Inc.),
 the Gaussian 88(TM) system (copyright 1988, Gaussian, Inc.),
 the Gaussian 86(TM) system (copyright 1986, Carnegie Mellon
 University), and the Gaussian 82(TM) system (copyright 1983,
 Carnegie Mellon University). Gaussian is a federally registered
 trademark of Gaussian, Inc.
  
 This software contains proprietary and confidential information,
 including trade secrets, belonging to Gaussian, Inc.
  
 This software is provided under written license and may be
 used, copied, transmitted, or stored only in accord with that
 written license.
  
 The following legend is applicable only to US Government
 contracts under FAR:
  
                    RESTRICTED RIGHTS LEGEND
  
 Use, reproduction and disclosure by the US Government is
 subject to restrictions as set forth in subparagraphs (a)
 and (c) of the Commercial Computer Software - Restricted
 Rights clause in FAR 52.227-19.
  
 Gaussian, Inc.
 340 Quinnipiac St., Bldg. 40, Wallingford CT 06492
  
  
 ---------------------------------------------------------------
 Warning -- This program may not be used in any manner that
 competes with the business of Gaussian, Inc. or will provide
 assistance to any competitor of Gaussian, Inc.  The licensee
 of this program is prohibited from giving any competitor of
 Gaussian, Inc. access to this program.  By using this program,
 the user acknowledges that Gaussian, Inc. is engaged in the
 business of creating and licensing software in the field of
 computational chemistry and represents and warrants to the
 licensee that it is not a competitor of Gaussian, Inc. and that
 it will not use this program in any manner prohibited above.
 ---------------------------------------------------------------
  

 Cite this work as:
 Gaussian 16, Revision C.02,
 M. J. Frisch, G. W. Trucks, H. B. Schlegel, G. E. Scuseria, 
 M. A. Robb, J. R. Cheeseman, G. Scalmani, V. Barone, 
 G. A. Petersson, H. Nakatsuji, X. Li, M. Caricato, A. V. Marenich, 
 J. Bloino, B. G. Janesko, R. Gomperts, B. Mennucci, H. P. Hratchian, 
 J. V. Ortiz, A. F. Izmaylov, J. L. Sonnenberg, D. Williams-Young, 
 F. Ding, F. Lipparini, F. Egidi, J. Goings, B. Peng, A. Petrone, 
 T. Henderson, D. Ranasinghe, V. G. Zakrzewski, J. Gao, N. Rega, 
 G. Zheng, W. Liang, M. Hada, M. Ehara, K. Toyota, R. Fukuda, 
 J. Hasegawa, M. Ishida, T. Nakajima, Y. Honda, O. Kitao, H. Nakai, 
 T. Vreven, K. Throssell, J. A. Montgomery, Jr., J. E. Peralta, 
 F. Ogliaro, M. J. Bearpark, J. J. Heyd, E. N. Brothers, K. N. Kudin, 
 V. N. Staroverov, T. A. Keith, R. Kobayashi, J. Normand, 
 K. Raghavachari, A. P. Rendell, J. C. Burant, S. S. Iyengar, 
 J. Tomasi, M. Cossi, J. M. Millam, M. Klene, C. Adamo, R. Cammi, 
 J. W. Ochterski, R. L. Martin, K. Morokuma, O. Farkas, 
 J. B. Foresman, and D. J. Fox, Gaussian, Inc., Wallingford CT, 2019.
 
 ******************************************
 Gaussian 16:  ES64L-G16RevC.02  7-Dec-2021
                29-Jul-2025 
 ******************************************
 SetLPE:    new flags="-opt 'Tsnet.Node.lindarsharg: ssh'  -nodelist 'n2.head.cm.mguif.local' -env GAUSS_MDEF=2147483648 -env GAUSS_EXEDIR="/hpc/softwares/Gaussian/g16/bsd:/hpc/softwares/Gaussian/g16""
 Will use up to    1 processors via Linda.
 ----------------------------------------------------------
 # td=(50-50,nstates=3) b3lyp/6-31+g(d,p) geom=connectivity
 ----------------------------------------------------------
 1/38=1,57=2,172=1/1;
 2/12=2,17=6,18=5,40=1/2;
 3/5=1,6=6,7=111,11=9,25=1,30=1,74=-5/1,2,3,8;
 4//1;
 5/5=2,38=5/2;
 8/6=1,10=2,108=3/1;
 9/41=3,42=1,48=2,70=2/14;
 6/7=2,8=2,9=2,10=2/1;
 99/5=1,9=1/99;
 -------------------
 Title Card Required
 -------------------
 Symbolic Z-matrix:
 Charge =  0 Multiplicity = 1
 C                    -3.35437  -1.98101  -0.12614 
 C                    -2.20818  -0.9949   -0.10589 
 C                    -2.43249   0.36644   0.13915 
 C                    -1.40583   1.32987   0.17832 
 C                    -1.67939   2.78783   0.45272 
 C                    -0.1312    0.83264  -0.04858 
 C                     0.13861  -0.51058  -0.30126 
 C                    -0.89053  -1.43827  -0.33098 
 C                     1.63056  -0.63688  -0.51959 
 C                     2.31156  -1.60605   0.34045 
 N                     2.8246   -2.401     1.01274 
 C                     2.12025   0.8231   -0.27978 
 O                     3.24028   1.24242  -0.31556 
 O                     1.02582   1.61667  -0.04626 
 H                    -4.30984  -1.48432   0.06253 
 H                    -3.42655  -2.48789  -1.09522 
 H                    -3.22386  -2.75656   0.63717 
 H                    -3.45227   0.70278   0.31302 
 H                    -0.75891   3.37445   0.44638 
 H                    -2.35497   3.20646  -0.30137 
 H                    -2.15781   2.91692   1.42975 
 H                    -0.68693  -2.48984  -0.51442 
 H                     1.87615  -0.88086  -1.56302 
 
                          Input orientation:                          
 ---------------------------------------------------------------------
 Center     Atomic      Atomic             Coordinates (Angstroms)
 Number     Number       Type             X           Y           Z
 ---------------------------------------------------------------------
      1          6           0       -3.354373   -1.981012   -0.126139
      2          6           0       -2.208184   -0.994895   -0.105887
      3          6           0       -2.432485    0.366443    0.139153
      4          6           0       -1.405833    1.329866    0.178322
      5          6           0       -1.679389    2.787830    0.452719
      6          6           0       -0.131203    0.832642   -0.048583
      7          6           0        0.138608   -0.510579   -0.301261
      8          6           0       -0.890525   -1.438274   -0.330981
      9          6           0        1.630559   -0.636875   -0.519587
     10          6           0        2.311562   -1.606049    0.340453
     11          7           0        2.824600   -2.400997    1.012742
     12          6           0        2.120254    0.823098   -0.279776
     13          8           0        3.240282    1.242415   -0.315564
     14          8           0        1.025824    1.616669   -0.046263
     15          1           0       -4.309840   -1.484319    0.062532
     16          1           0       -3.426552   -2.487891   -1.095221
     17          1           0       -3.223862   -2.756558    0.637165
     18          1           0       -3.452270    0.702776    0.313020
     19          1           0       -0.758908    3.374454    0.446384
     20          1           0       -2.354973    3.206457   -0.301367
     21          1           0       -2.157813    2.916915    1.429749
     22          1           0       -0.686930   -2.489835   -0.514424
     23          1           0        1.876149   -0.880861   -1.563016
 ---------------------------------------------------------------------
                    Distance matrix (angstroms):
                    1          2          3          4          5
     1  C    0.000000
     2  C    1.512146   0.000000
     3  C    2.535903   1.401284   0.000000
     4  C    3.853754   2.475693   1.408450   0.000000
     5  C    5.087485   3.860139   2.555111   1.508571   0.000000
     6  C    4.279193   2.767133   2.355522   1.386867   2.543805
     7  C    3.793911   2.404198   2.752027   2.450007   3.840977
     8  C    2.531219   1.408360   2.419849   2.861386   4.369948
     9  C    5.177939   3.877535   4.236616   3.684403   4.861043
    10  C    5.697467   4.582667   5.141715   4.739716   5.936873
    11  N    6.297074   5.343909   6.004900   5.701943   6.893727
    12  C    6.152900   4.697948   4.594722   3.591651   4.339817
    13  O    7.342740   5.893666   5.757984   4.673110   5.213610
    14  O    5.668846   4.157238   3.682030   2.458790   2.989779
    15  H    1.093260   2.164453   2.637357   4.045529   5.032174
    16  H    1.096018   2.166158   3.264823   4.503386   5.769049
    17  H    1.095964   2.164991   3.259974   4.496068   5.758442
    18  H    2.721243   2.146001   1.087801   2.144595   2.740451
    19  H    5.978732   4.636444   3.455920   2.161182   1.091537
    20  H    5.285768   4.208458   2.875021   2.156980   1.095586
    21  H    5.276574   4.202734   2.871583   2.156448   1.095509
    22  H    2.743158   2.171627   3.410638   3.948016   5.456564
    23  H    5.534737   4.337972   4.797653   4.323306   5.492206
                    6          7          8          9         10
     6  C    0.000000
     7  C    1.393157   0.000000
     8  C    2.411095   1.385863   0.000000
     9  C    2.342036   1.513121   2.652108   0.000000
    10  C    3.473566   2.516661   3.276024   1.463807   0.000000
    11  N    4.507727   3.537632   4.066274   2.624098   1.160656
    12  C    2.263316   2.388740   3.765795   1.558471   2.514366
    13  O    3.406773   3.562804   4.924419   2.482854   3.067022
    14  O    1.397646   2.318914   3.617476   2.380798   3.491215
    15  H    4.779295   4.568282   3.442192   6.028712   6.628350
    16  H    4.793821   4.153372   2.849069   5.415901   5.980364
    17  H    4.787186   4.151056   2.849498   5.421857   5.661504
    18  H    3.343218   3.839789   3.400201   5.321940   6.209121
    19  H    2.664548   4.056845   4.876881   4.767957   5.851873
    20  H    3.262522   4.475969   4.870217   5.541055   6.734144
    21  H    3.261412   4.474110   4.865579   5.548071   6.451285
    22  H    3.400690   2.155088   1.086684   2.967194   3.240810
    23  H    3.042871   2.179033   3.079465   1.099358   2.082949
                   11         12         13         14         15
    11  N    0.000000
    12  C    3.544220   0.000000
    13  O    3.900210   1.196482   0.000000
    14  O    4.527552   1.371882   2.261949   0.000000
    15  H    7.255579   6.840136   8.036316   6.172299   0.000000
    16  H    6.597572   6.511118   7.679175   6.145842   1.768544
    17  H    6.070533   6.497253   7.660590   6.136124   1.768656
    18  H    7.037195   5.605257   6.743633   4.584497   2.362531
    19  H    6.820420   3.914882   4.595615   2.552994   6.030268
    20  H    7.745863   5.070357   5.929970   3.744635   5.094831
    21  H    7.299214   5.060475   5.915192   3.742298   5.086390
    22  H    3.830270   4.348663   5.421460   4.473933   3.803869
    23  H    3.137659   2.147037   2.815190   3.043230   6.424409
                   16         17         18         19         20
    16  H    0.000000
    17  H    1.764774   0.000000
    18  H    3.487716   3.481987   0.000000
    19  H    6.622685   6.610726   3.796031   0.000000
    20  H    5.848426   6.098636   2.801776   1.770530   0.000000
    21  H    6.098943   5.826916   2.797341   1.770108   1.766202
    22  H    2.800510   2.798807   4.304014   5.942913   5.939318
    23  H    5.560577   5.862521   5.866811   5.393414   6.016670
                   21         22         23
    21  H    0.000000
    22  H    5.930957   0.000000
    23  H    6.297031   3.202767   0.000000
 Stoichiometry    C11H9NO2
 Framework group  C1[X(C11H9NO2)]
 Deg. of freedom    63
 Full point group                 C1      NOp   1
 Largest Abelian subgroup         C1      NOp   1
 Largest concise Abelian subgroup C1      NOp   1
                         Standard orientation:                         
 ---------------------------------------------------------------------
 Center     Atomic      Atomic             Coordinates (Angstroms)
 Number     Number       Type             X           Y           Z
 ---------------------------------------------------------------------
      1          6           0       -3.354373   -1.981012   -0.126139
      2          6           0       -2.208184   -0.994895   -0.105887
      3          6           0       -2.432485    0.366443    0.139153
      4          6           0       -1.405833    1.329866    0.178322
      5          6           0       -1.679389    2.787830    0.452719
      6          6           0       -0.131203    0.832642   -0.048583
      7          6           0        0.138608   -0.510579   -0.301261
      8          6           0       -0.890525   -1.438274   -0.330981
      9          6           0        1.630559   -0.636875   -0.519587
     10          6           0        2.311562   -1.606049    0.340453
     11          7           0        2.824600   -2.400997    1.012742
     12          6           0        2.120254    0.823098   -0.279776
     13          8           0        3.240282    1.242415   -0.315564
     14          8           0        1.025824    1.616669   -0.046263
     15          1           0       -4.309840   -1.484319    0.062532
     16          1           0       -3.426552   -2.487891   -1.095221
     17          1           0       -3.223862   -2.756558    0.637165
     18          1           0       -3.452270    0.702776    0.313020
     19          1           0       -0.758908    3.374454    0.446384
     20          1           0       -2.354973    3.206457   -0.301367
     21          1           0       -2.157813    2.916915    1.429749
     22          1           0       -0.686930   -2.489835   -0.514424
     23          1           0        1.876149   -0.880861   -1.563016
 ---------------------------------------------------------------------
 Rotational constants (GHZ):           1.0299980           0.5751233           0.3883344
 Standard basis: 6-31+G(d,p) (6D, 7F)
 There are   311 symmetry adapted cartesian basis functions of A   symmetry.
 There are   311 symmetry adapted basis functions of A   symmetry.
   311 basis functions,   511 primitive gaussians,   311 cartesian basis functions
    49 alpha electrons       49 beta electrons
       nuclear repulsion energy       819.7051652951 Hartrees.
 NAtoms=   23 NActive=   23 NUniq=   23 SFac= 1.00D+00 NAtFMM=   60 NAOKFM=F Big=F
 Integral buffers will be    131072 words long.
 Regular integral format.
 Two-electron integral symmetry is turned on.
 One-electron integrals computed using PRISM.
 NBasis=   311 RedAO= T EigKep=  1.22D-06  NBF=   311
 NBsUse=   310 1.00D-06 EigRej=  3.05D-07 NBFU=   310
 ExpMin= 4.38D-02 ExpMax= 5.48D+03 ExpMxC= 8.25D+02 IAcc=3 IRadAn=         5 AccDes= 0.00D+00
 Harris functional with IExCor=  402 and IRadAn=       5 diagonalized for initial guess.
 HarFok:  IExCor=  402 AccDes= 0.00D+00 IRadAn=         5 IDoV= 1 UseB2=F ITyADJ=14
 ICtDFT=  3500011 ScaDFX=  1.000000  1.000000  1.000000  1.000000
 FoFCou: FMM=F IPFlag=           0 FMFlag=      100000 FMFlg1=           0
         NFxFlg=           0 DoJE=T BraDBF=F KetDBF=T FulRan=T
         wScrn=  0.000000 ICntrl=       500 IOpCl=  0 I1Cent=   200000004 NGrid=           0
         NMat0=    1 NMatS0=      1 NMatT0=    0 NMatD0=    1 NMtDS0=    0 NMtDT0=    0
 Petite list used in FoFCou.
 Requested convergence on RMS density matrix=1.00D-08 within 128 cycles.
 Requested convergence on MAX density matrix=1.00D-06.
 Requested convergence on             energy=1.00D-06.
 No special actions if energy rises.
 SCF Done:  E(RB3LYP) =  -629.819381933     A.U. after   16 cycles
            NFock= 16  Conv=0.60D-08     -V/T= 2.0094
 DoSCS=F DFT=T ScalE2(SS,OS)=  1.000000  1.000000
 ExpMin= 4.38D-02 ExpMax= 5.48D+03 ExpMxC= 8.25D+02 IAcc=3 IRadAn=         5 AccDes= 0.00D+00
 HarFok:  IExCor=  205 AccDes= 0.00D+00 IRadAn=         5 IDoV=-2 UseB2=F ITyADJ=14
 ICtDFT= 12500011 ScaDFX=  1.000000  1.000000  1.000000  1.000000
 Range of M.O.s used for correlation:    15   310
 NBasis=   311 NAE=    49 NBE=    49 NFC=    14 NFV=     0
 NROrb=    296 NOA=    35 NOB=    35 NVA=   261 NVB=   261

 **** Warning!!: The largest alpha MO coefficient is  0.18535048D+03

 Orbital symmetries:
       Occupied  (A) (A) (A) (A) (A) (A) (A) (A) (A) (A) (A) (A)
                 (A) (A) (A) (A) (A) (A) (A) (A) (A) (A) (A) (A)
                 (A) (A) (A) (A) (A) (A) (A) (A) (A) (A) (A) (A)
                 (A) (A) (A) (A) (A) (A) (A) (A) (A) (A) (A) (A)
                 (A)
       Virtual   (A) (A) (A) (A) (A) (A) (A) (A) (A) (A) (A) (A)
                 (A) (A) (A) (A) (A) (A) (A) (A) (A) (A) (A) (A)
                 (A) (A) (A) (A) (A) (A) (A) (A) (A) (A) (A) (A)
                 (A) (A) (A) (A) (A) (A) (A) (A) (A) (A) (A) (A)
                 (A) (A) (A) (A) (A) (A) (A) (A) (A) (A) (A) (A)
                 (A) (A) (A) (A) (A) (A) (A) (A) (A) (A) (A) (A)
                 (A) (A) (A) (A) (A) (A) (A) (A) (A) (A) (A) (A)
                 (A) (A) (A) (A) (A) (A) (A) (A) (A) (A) (A) (A)
                 (A) (A) (A) (A) (A) (A) (A) (A) (A) (A) (A) (A)
                 (A) (A) (A) (A) (A) (A) (A) (A) (A) (A) (A) (A)
                 (A) (A) (A) (A) (A) (A) (A) (A) (A) (A) (A) (A)
                 (A) (A) (A) (A) (A) (A) (A) (A) (A) (A) (A) (A)
                 (A) (A) (A) (A) (A) (A) (A) (A) (A) (A) (A) (A)
                 (A) (A) (A) (A) (A) (A) (A) (A) (A) (A) (A) (A)
                 (A) (A) (A) (A) (A) (A) (A) (A) (A) (A) (A) (A)
                 (A) (A) (A) (A) (A) (A) (A) (A) (A) (A) (A) (A)
                 (A) (A) (A) (A) (A) (A) (A) (A) (A) (A) (A) (A)
                 (A) (A) (A) (A) (A) (A) (A) (A) (A) (A) (A) (A)
                 (A) (A) (A) (A) (A) (A) (A) (A) (A) (A) (A) (A)
                 (A) (A) (A) (A) (A) (A) (A) (A) (A) (A) (A) (A)
                 (A) (A) (A) (A) (A) (A) (A) (A) (A) (A) (A) (A)
                 (A) (A) (A) (A) (A) (A) (A) (A) (A)
    24 initial guesses have been made.
 Convergence on wavefunction:    0.001000000000000
 Iteration     1 Dimension    24 NMult     0 NNew     24
 CISAX will form    24 AO SS matrices at one time.
 New state      1 was old state      2
 New state      2 was old state      4
 New state      3 was old state      6
 New state      4 was old state      1
 New state      5 was old state      8
 New state      6 was old state     10
 New state      7 was old state      3
 New state      8 was old state     14
 New state      9 was old state      5
 New state     10 was old state     12
 New state     11 was old state     13
 New state     12 was old state     16
 Vector   5 SDiff=5.48D+00 TDiff=7.08D+00 assumed to be singlet.
 Vector   6 SDiff=2.87D+00 TDiff=6.48D+00 assumed to be singlet.
 Vector  11 SDiff=5.22D+00 TDiff=5.40D+00 assumed to be singlet.
 Vector  12 SDiff=2.85D+00 TDiff=5.28D+00 assumed to be singlet.
 Iteration     2 Dimension    36 NMult    24 NNew     12
 New state      1 was old state      2
 New state      2 was old state      1
 New state      5 was old state      7
 New state      6 was old state      9
 Iteration     3 Dimension    48 NMult    36 NNew     12
 Iteration     4 Dimension    60 NMult    48 NNew     12
 Iteration     5 Dimension    72 NMult    60 NNew     12
 Iteration     6 Dimension    78 NMult    72 NNew      6
 Iteration     7 Dimension    80 NMult    78 NNew      2
 Iteration     8 Dimension    82 NMult    80 NNew      2
 ***********************************************************************
 Excited states from <AA,BB:AA,BB> singles matrix:
 ***********************************************************************
 
 Ground to excited state transition densities written to RWF  633
 Ground to excited state transition electric dipole moments (Au):
       state          X           Y           Z        Dip. S.      Osc.
         1        -0.0000     -0.0000     -0.0000      0.0000      0.0000
         2         0.0000      0.0000      0.0000      0.0000      0.0000
         3         0.0000     -0.0000      0.0000      0.0000      0.0000
         4        -0.1125     -0.5003     -0.0688      0.2677      0.0305
         5         0.4458      0.0426     -0.0279      0.2013      0.0256
         6         0.5085      0.0496     -0.0884      0.2688      0.0358
 Ground to excited state transition velocity dipole moments (Au):
       state          X           Y           Z        Dip. S.      Osc.
         1        -0.0000      0.0000     -0.0000      0.0000      0.0000
         2         0.0000     -0.0000     -0.0000      0.0000      0.0000
         3        -0.0000      0.0000      0.0000      0.0000      0.0000
         4         0.0161      0.0878      0.0128      0.0081      0.0317
         5        -0.0834     -0.0071      0.0049      0.0070      0.0246
         6        -0.1005     -0.0090      0.0194      0.0106      0.0352
 Ground to excited state transition magnetic dipole moments (Au):
       state          X           Y           Z
         1         0.0000      0.0000      0.0000
         2        -0.0000     -0.0000      0.0000
         3        -0.0000      0.0000      0.0000
         4        -0.0382      0.0735     -0.5057
         5         0.1519      0.0251      0.4443
         6        -0.6590     -0.1789      0.2329
 Ground to excited state transition velocity quadrupole moments (Au):
       state          XX          YY          ZZ          XY          XZ          YZ
         1         0.0000      0.0000      0.0000      0.0000     -0.0000      0.0000
         2        -0.0000      0.0000      0.0000     -0.0000      0.0000     -0.0000
         3         0.0000      0.0000      0.0000     -0.0000     -0.0000      0.0000
         4         0.3346     -0.0174     -0.0231     -0.0486     -0.0573     -0.0321
         5        -0.1433      0.2376      0.0647     -0.1895     -0.0101      0.0703
         6         0.0346      0.0792     -0.0287     -0.0149      0.1110     -0.0283
 <0|del|b> * <b|rxdel|0> + <0|del|b> * <b|delr+rdel|0>
 Rotatory Strengths (R) in cgs (10**-40 erg-esu-cm/Gauss)
       state          XX          YY          ZZ    R(velocity)    E-M Angle
         1         0.0000     -0.0000      0.0000      0.0000       90.00
         2         0.0000     -0.0000      0.0000      0.0000       90.00
         3         0.0000     -0.0000      0.0000      0.0000       90.00
         4         9.0868    -14.4255      2.7374     -0.8671       90.78
         5         1.8623    -28.5473    -12.8061    -13.1637      105.68
         6        12.1104    130.7099    113.2278     85.3494       12.55
 1/2[<0|r|b>*<b|rxdel|0> + (<0|rxdel|b>*<b|r|0>)*]
 Rotatory Strengths (R) in cgs (10**-40 erg-esu-cm/Gauss)
       state          XX          YY          ZZ     R(length)
         1         0.0000      0.0000      0.0000      0.0000
         2         0.0000      0.0000     -0.0000      0.0000
         3         0.0000      0.0000     -0.0000      0.0000
         4        -3.0364     26.0144    -24.6074     -0.5431
         5       -47.8737     -0.7544      8.7775    -13.2835
         6       236.9637      6.2816     14.5535     85.9330
  1/2[<0|del|b>*<b|r|0> + (<0|r|b>*<b|del|0>)*] (Au)
       state          X           Y           Z        Dip. S.   Osc.(frdel)
         1         0.0000     -0.0000      0.0000     -0.0000     -0.0000
         2         0.0000     -0.0000     -0.0000      0.0000      0.0000
         3        -0.0000     -0.0000      0.0000      0.0000      0.0000
         4        -0.0018     -0.0439     -0.0009      0.0466      0.0311
         5        -0.0372     -0.0003     -0.0001      0.0376      0.0251
         6        -0.0511     -0.0004     -0.0017      0.0533      0.0355

 Excitation energies and oscillator strengths:
 
 Excited State   1:      Triplet-A      3.5757 eV  346.74 nm  f=0.0000  <S**2>=2.000
      48 -> 50         0.42850
      48 -> 51         0.23985
      48 -> 52        -0.10836
      49 -> 50        -0.16750
      49 -> 51         0.32933
      49 -> 52         0.30152
 This state for optimization and/or second-order correction.
 Total Energy, E(TD-HF/TD-DFT) =  -629.687978541    
 Copying the excited state density for this state as the 1-particle RhoCI density.
 
 Excited State   2:      Triplet-A      3.9572 eV  313.31 nm  f=0.0000  <S**2>=2.000
      48 -> 51         0.11846
      49 -> 50         0.64910
      49 -> 51         0.22416
 
 Excited State   3:      Triplet-A      4.3901 eV  282.42 nm  f=0.0000  <S**2>=2.000
      48 -> 50        -0.43223
      48 -> 51        -0.16194
      48 -> 52         0.10116
      49 -> 51         0.45440
      49 -> 52         0.22810
 
 Excited State   4:      Singlet-A      4.6559 eV  266.30 nm  f=0.0305  <S**2>=0.000
      48 -> 51        -0.15575
      48 -> 52        -0.12655
      49 -> 50         0.67445
 
 Excited State   5:      Singlet-A      5.1919 eV  238.80 nm  f=0.0256  <S**2>=0.000
      48 -> 50         0.38576
      48 -> 51        -0.19957
      49 -> 51         0.52409
      49 -> 52        -0.10772
 
 Excited State   6:      Singlet-A      5.4392 eV  227.94 nm  f=0.0358  <S**2>=0.000
      47 -> 50         0.49512
      47 -> 51        -0.26368
      47 -> 52         0.12382
      48 -> 50        -0.24563
      48 -> 52        -0.13049
      49 -> 51         0.21509
      49 -> 52        -0.15334
 SavETr:  write IOETrn=   770 NScale= 10 NData=  16 NLR=1 NState=    6 LETran=     118.

 **********************************************************************

            Population analysis using the SCF Density.

 **********************************************************************

 Orbital symmetries:
       Occupied  (A) (A) (A) (A) (A) (A) (A) (A) (A) (A) (A) (A)
                 (A) (A) (A) (A) (A) (A) (A) (A) (A) (A) (A) (A)
                 (A) (A) (A) (A) (A) (A) (A) (A) (A) (A) (A) (A)
                 (A) (A) (A) (A) (A) (A) (A) (A) (A) (A) (A) (A)
                 (A)
       Virtual   (A) (A) (A) (A) (A) (A) (A) (A) (A) (A) (A) (A)
                 (A) (A) (A) (A) (A) (A) (A) (A) (A) (A) (A) (A)
                 (A) (A) (A) (A) (A) (A) (A) (A) (A) (A) (A) (A)
                 (A) (A) (A) (A) (A) (A) (A) (A) (A) (A) (A) (A)
                 (A) (A) (A) (A) (A) (A) (A) (A) (A) (A) (A) (A)
                 (A) (A) (A) (A) (A) (A) (A) (A) (A) (A) (A) (A)
                 (A) (A) (A) (A) (A) (A) (A) (A) (A) (A) (A) (A)
                 (A) (A) (A) (A) (A) (A) (A) (A) (A) (A) (A) (A)
                 (A) (A) (A) (A) (A) (A) (A) (A) (A) (A) (A) (A)
                 (A) (A) (A) (A) (A) (A) (A) (A) (A) (A) (A) (A)
                 (A) (A) (A) (A) (A) (A) (A) (A) (A) (A) (A) (A)
                 (A) (A) (A) (A) (A) (A) (A) (A) (A) (A) (A) (A)
                 (A) (A) (A) (A) (A) (A) (A) (A) (A) (A) (A) (A)
                 (A) (A) (A) (A) (A) (A) (A) (A) (A) (A) (A) (A)
                 (A) (A) (A) (A) (A) (A) (A) (A) (A) (A) (A) (A)
                 (A) (A) (A) (A) (A) (A) (A) (A) (A) (A) (A) (A)
                 (A) (A) (A) (A) (A) (A) (A) (A) (A) (A) (A) (A)
                 (A) (A) (A) (A) (A) (A) (A) (A) (A) (A) (A) (A)
                 (A) (A) (A) (A) (A) (A) (A) (A) (A) (A) (A) (A)
                 (A) (A) (A) (A) (A) (A) (A) (A) (A) (A) (A) (A)
                 (A) (A) (A) (A) (A) (A) (A) (A) (A) (A) (A) (A)
                 (A) (A) (A) (A) (A) (A) (A) (A) (A)
 The electronic state is 1-A.
 Alpha  occ. eigenvalues --  -19.24475 -19.18449 -14.36233 -10.36385 -10.28562
 Alpha  occ. eigenvalues --  -10.27919 -10.25637 -10.23948 -10.23388 -10.22893
 Alpha  occ. eigenvalues --  -10.22460 -10.21897 -10.20704 -10.20584  -1.15368
 Alpha  occ. eigenvalues --   -1.07510  -0.93099  -0.89759  -0.85092  -0.81130
 Alpha  occ. eigenvalues --   -0.77105  -0.71790  -0.71742  -0.66406  -0.62332
 Alpha  occ. eigenvalues --   -0.60917  -0.56791  -0.54816  -0.51508  -0.50215
 Alpha  occ. eigenvalues --   -0.47959  -0.47052  -0.46500  -0.44694  -0.44418
 Alpha  occ. eigenvalues --   -0.43507  -0.43007  -0.41781  -0.40145  -0.40042
 Alpha  occ. eigenvalues --   -0.38765  -0.38166  -0.37318  -0.35863  -0.35171
 Alpha  occ. eigenvalues --   -0.34801  -0.31225  -0.27749  -0.25697
 Alpha virt. eigenvalues --   -0.05839  -0.03822  -0.02194  -0.01487  -0.00131
 Alpha virt. eigenvalues --    0.00104   0.00823   0.01454   0.02603   0.02702
 Alpha virt. eigenvalues --    0.02999   0.03958   0.04919   0.05213   0.05414
 Alpha virt. eigenvalues --    0.06253   0.06984   0.07791   0.08127   0.08566
 Alpha virt. eigenvalues --    0.09044   0.09558   0.09857   0.10569   0.11083
 Alpha virt. eigenvalues --    0.11806   0.12295   0.12927   0.13517   0.13722
 Alpha virt. eigenvalues --    0.14272   0.14730   0.14884   0.15486   0.16397
 Alpha virt. eigenvalues --    0.16539   0.16864   0.17492   0.17681   0.18159
 Alpha virt. eigenvalues --    0.18937   0.19159   0.20191   0.20523   0.21371
 Alpha virt. eigenvalues --    0.21536   0.22583   0.22818   0.23391   0.23455
 Alpha virt. eigenvalues --    0.23897   0.24244   0.24759   0.25038   0.26110
 Alpha virt. eigenvalues --    0.26333   0.27016   0.27330   0.28028   0.28879
 Alpha virt. eigenvalues --    0.29007   0.29408   0.29841   0.30873   0.31092
 Alpha virt. eigenvalues --    0.31194   0.32190   0.32744   0.33276   0.34175
 Alpha virt. eigenvalues --    0.34440   0.35058   0.36343   0.37679   0.39093
 Alpha virt. eigenvalues --    0.39354   0.40353   0.41414   0.43477   0.44355
 Alpha virt. eigenvalues --    0.48657   0.50691   0.55523   0.57348   0.60244
 Alpha virt. eigenvalues --    0.63733   0.65006   0.65921   0.67460   0.68193
 Alpha virt. eigenvalues --    0.68315   0.69257   0.69806   0.71364   0.71682
 Alpha virt. eigenvalues --    0.72137   0.73448   0.75418   0.76008   0.76881
 Alpha virt. eigenvalues --    0.77701   0.78503   0.79424   0.80172   0.82781
 Alpha virt. eigenvalues --    0.83565   0.83770   0.84546   0.86835   0.87561
 Alpha virt. eigenvalues --    0.89900   0.90468   0.93124   0.93408   0.95227
 Alpha virt. eigenvalues --    0.97595   0.99249   1.01331   1.02405   1.03046
 Alpha virt. eigenvalues --    1.04490   1.05111   1.07609   1.09704   1.10850
 Alpha virt. eigenvalues --    1.12022   1.12553   1.15370   1.16054   1.17786
 Alpha virt. eigenvalues --    1.18977   1.20090   1.21591   1.22807   1.24000
 Alpha virt. eigenvalues --    1.24677   1.26473   1.28524   1.28726   1.29716
 Alpha virt. eigenvalues --    1.31077   1.32652   1.34736   1.35336   1.37176
 Alpha virt. eigenvalues --    1.38989   1.39090   1.39975   1.45320   1.48340
 Alpha virt. eigenvalues --    1.52027   1.53547   1.55895   1.57710   1.58741
 Alpha virt. eigenvalues --    1.60283   1.65006   1.67659   1.69272   1.70233
 Alpha virt. eigenvalues --    1.70774   1.72928   1.75614   1.76563   1.78215
 Alpha virt. eigenvalues --    1.79433   1.80696   1.80979   1.82621   1.84433
 Alpha virt. eigenvalues --    1.85504   1.87952   1.89923   1.91522   1.94221
 Alpha virt. eigenvalues --    1.94733   1.95515   1.98647   1.99649   2.00147
 Alpha virt. eigenvalues --    2.02562   2.02892   2.03059   2.05137   2.07038
 Alpha virt. eigenvalues --    2.08020   2.09398   2.09990   2.10994   2.14640
 Alpha virt. eigenvalues --    2.15966   2.17713   2.19861   2.21958   2.24183
 Alpha virt. eigenvalues --    2.25519   2.26277   2.28563   2.30786   2.34908
 Alpha virt. eigenvalues --    2.36252   2.38087   2.39235   2.40197   2.42375
 Alpha virt. eigenvalues --    2.45231   2.51708   2.52731   2.54750   2.55492
 Alpha virt. eigenvalues --    2.60911   2.62142   2.63376   2.64051   2.65181
 Alpha virt. eigenvalues --    2.67395   2.67634   2.70721   2.73165   2.76163
 Alpha virt. eigenvalues --    2.78812   2.79982   2.83381   2.83983   2.86268
 Alpha virt. eigenvalues --    2.86823   2.88595   2.92049   2.94559   2.96659
 Alpha virt. eigenvalues --    3.01263   3.05006   3.11115   3.13956   3.21975
 Alpha virt. eigenvalues --    3.22603   3.24513   3.27437   3.28449   3.29485
 Alpha virt. eigenvalues --    3.39390   3.41103   3.41810   3.42096   3.46888
 Alpha virt. eigenvalues --    3.49600   3.68394   4.24039   4.26331   4.29414
 Alpha virt. eigenvalues --    4.33429   4.34510   4.41589   4.42236   4.48835
 Alpha virt. eigenvalues --    4.53845   4.57313   4.63909   4.76807   4.85040
 Alpha virt. eigenvalues --    4.94381
          Condensed to atoms (all electrons):
               1          2          3          4          5          6
     1  C    6.595638  -0.864812  -0.272026   0.212453  -0.052235  -0.252954
     2  C   -0.864812   8.757499  -0.921767   0.598544  -0.167878  -2.806697
     3  C   -0.272026  -0.921767  12.598016  -1.030623  -0.529565  -0.404056
     4  C    0.212453   0.598544  -1.030623   9.765999  -0.484948   1.114094
     5  C   -0.052235  -0.167878  -0.529565  -0.484948   6.636544   0.182294
     6  C   -0.252954  -2.806697  -0.404056   1.114094   0.182294  32.307733
     7  C   -0.939549   1.486629  -2.421252  -2.782010  -0.192370 -19.184860
     8  C    0.850609   1.122281  -1.625244   0.631620  -0.116763 -10.209324
     9  C   -0.123644  -1.358990   1.181032  -0.803613  -0.137011   8.727044
    10  C   -0.049395  -0.278437   0.142270  -0.111498   0.027090   0.989708
    11  N    0.000897  -0.003158  -0.008083   0.003717  -0.001075   0.031194
    12  C   -0.036123   0.263427  -0.214029   0.062450   0.003178  -2.709154
    13  O    0.000570  -0.003174   0.012956   0.069141  -0.008891   0.056807
    14  O   -0.010558   0.010936  -0.132763  -0.744134  -0.001060  -0.982061
    15  H    0.529810  -0.121781  -0.064778   0.004892  -0.000605  -0.014856
    16  H    0.445068  -0.128302   0.034751  -0.012678   0.000153   0.009004
    17  H    0.467518  -0.135995   0.038764  -0.007967   0.000023  -0.006168
    18  H   -0.027696   0.014000   0.092528   0.110807   0.009694   0.054855
    19  H   -0.000069  -0.013632   0.106893  -0.007995   0.456903  -0.115171
    20  H   -0.001936  -0.004226  -0.052008  -0.106072   0.468457   0.046755
    21  H   -0.001988  -0.009832  -0.070205  -0.113409   0.481854   0.039074
    22  H   -0.000357   0.034135   0.079559  -0.009132   0.001501   0.073131
    23  H   -0.000478   0.017741   0.002195  -0.006840  -0.000280  -0.334890
               7          8          9         10         11         12
     1  C   -0.939549   0.850609  -0.123644  -0.049395   0.000897  -0.036123
     2  C    1.486629   1.122281  -1.358990  -0.278437  -0.003158   0.263427
     3  C   -2.421252  -1.625244   1.181032   0.142270  -0.008083  -0.214029
     4  C   -2.782010   0.631620  -0.803613  -0.111498   0.003717   0.062450
     5  C   -0.192370  -0.116763  -0.137011   0.027090  -0.001075   0.003178
     6  C  -19.184860 -10.209324   8.727044   0.989708   0.031194  -2.709154
     7  C   36.784401  -0.503609 -10.745377  -0.898624   0.031687   3.175381
     8  C   -0.503609  18.896074  -3.091162  -1.209655  -0.132329   0.541430
     9  C  -10.745377  -3.091162  14.020214   0.448944  -0.034363  -1.996497
    10  C   -0.898624  -1.209655   0.448944   7.029069   0.511671  -0.552437
    11  N    0.031687  -0.132329  -0.034363   0.511671   7.023128  -0.001867
    12  C    3.175381   0.541430  -1.996497  -0.552437  -0.001867   6.262096
    13  O   -0.215053  -0.000825   0.002349   0.045722  -0.003992   0.358012
    14  O    1.702704   0.032518  -0.561752   0.102656  -0.005279   0.205620
    15  H   -0.039419   0.061358  -0.000252  -0.000102   0.000001  -0.000199
    16  H    0.020265  -0.020031   0.000916   0.000159   0.000007  -0.000344
    17  H   -0.005851  -0.001449   0.000702   0.000174  -0.000032  -0.000153
    18  H    0.011195   0.022738   0.003039  -0.000558   0.000004   0.000385
    19  H   -0.068730  -0.001434   0.001359  -0.000095   0.000002  -0.000381
    20  H   -0.003147  -0.002117   0.004813  -0.000016   0.000000  -0.002548
    21  H    0.021721   0.000469   0.000297   0.000350  -0.000003  -0.000374
    22  H    0.102120   0.044027  -0.023288   0.004364  -0.000357  -0.004660
    23  H    0.192146   0.188909   0.201889  -0.043712   0.000882   0.058855
              13         14         15         16         17         18
     1  C    0.000570  -0.010558   0.529810   0.445068   0.467518  -0.027696
     2  C   -0.003174   0.010936  -0.121781  -0.128302  -0.135995   0.014000
     3  C    0.012956  -0.132763  -0.064778   0.034751   0.038764   0.092528
     4  C    0.069141  -0.744134   0.004892  -0.012678  -0.007967   0.110807
     5  C   -0.008891  -0.001060  -0.000605   0.000153   0.000023   0.009694
     6  C    0.056807  -0.982061  -0.014856   0.009004  -0.006168   0.054855
     7  C   -0.215053   1.702704  -0.039419   0.020265  -0.005851   0.011195
     8  C   -0.000825   0.032518   0.061358  -0.020031  -0.001449   0.022738
     9  C    0.002349  -0.561752  -0.000252   0.000916   0.000702   0.003039
    10  C    0.045722   0.102656  -0.000102   0.000159   0.000174  -0.000558
    11  N   -0.003992  -0.005279   0.000001   0.000007  -0.000032   0.000004
    12  C    0.358012   0.205620  -0.000199  -0.000344  -0.000153   0.000385
    13  O    8.171699  -0.059126   0.000000  -0.000000   0.000000  -0.000001
    14  O   -0.059126   8.762205  -0.000005  -0.000000   0.000003  -0.000375
    15  H    0.000000  -0.000005   0.541182  -0.025967  -0.025527   0.003776
    16  H   -0.000000  -0.000000  -0.025967   0.538746  -0.030349   0.000147
    17  H    0.000000   0.000003  -0.025527  -0.030349   0.534485   0.000144
    18  H   -0.000001  -0.000375   0.003776   0.000147   0.000144   0.578146
    19  H   -0.000110   0.001946   0.000000  -0.000000  -0.000000   0.000099
    20  H   -0.000002   0.000804  -0.000000  -0.000000   0.000000   0.000850
    21  H   -0.000002   0.001331  -0.000000   0.000000  -0.000000   0.000860
    22  H    0.000048  -0.000788   0.000079   0.000820   0.000798  -0.000163
    23  H   -0.003050   0.010882   0.000000  -0.000001   0.000000   0.000000
              19         20         21         22         23
     1  C   -0.000069  -0.001936  -0.001988  -0.000357  -0.000478
     2  C   -0.013632  -0.004226  -0.009832   0.034135   0.017741
     3  C    0.106893  -0.052008  -0.070205   0.079559   0.002195
     4  C   -0.007995  -0.106072  -0.113409  -0.009132  -0.006840
     5  C    0.456903   0.468457   0.481854   0.001501  -0.000280
     6  C   -0.115171   0.046755   0.039074   0.073131  -0.334890
     7  C   -0.068730  -0.003147   0.021721   0.102120   0.192146
     8  C   -0.001434  -0.002117   0.000469   0.044027   0.188909
     9  C    0.001359   0.004813   0.000297  -0.023288   0.201889
    10  C   -0.000095  -0.000016   0.000350   0.004364  -0.043712
    11  N    0.000002   0.000000  -0.000003  -0.000357   0.000882
    12  C   -0.000381  -0.002548  -0.000374  -0.004660   0.058855
    13  O   -0.000110  -0.000002  -0.000002   0.000048  -0.003050
    14  O    0.001946   0.000804   0.001331  -0.000788   0.010882
    15  H    0.000000  -0.000000  -0.000000   0.000079   0.000000
    16  H   -0.000000  -0.000000   0.000000   0.000820  -0.000001
    17  H   -0.000000   0.000000  -0.000000   0.000798   0.000000
    18  H    0.000099   0.000850   0.000860  -0.000163   0.000000
    19  H    0.511554  -0.024514  -0.024324  -0.000000   0.000000
    20  H   -0.024514   0.534695  -0.028969   0.000000  -0.000000
    21  H   -0.024324  -0.028969   0.532780   0.000000   0.000000
    22  H   -0.000000   0.000000   0.000000   0.558998   0.000351
    23  H    0.000000  -0.000000   0.000000   0.000351   0.488478
 Mulliken charges:
               1
     1  C   -0.468744
     2  C    0.513487
     3  C   -0.542563
     4  C   -0.352798
     5  C   -0.575010
     6  C   -0.611503
     7  C    0.471599
     8  C    0.521910
     9  C    0.283351
    10  C   -0.157648
    11  N   -0.412651
    12  C    0.587934
    13  O   -0.423079
    14  O   -0.333706
    15  H    0.152393
    16  H    0.167639
    17  H    0.170877
    18  H    0.125525
    19  H    0.177699
    20  H    0.169181
    21  H    0.170370
    22  H    0.138811
    23  H    0.226924
 Sum of Mulliken charges =  -0.00000
 Mulliken charges with hydrogens summed into heavy atoms:
               1
     1  C    0.022166
     2  C    0.513487
     3  C   -0.417038
     4  C   -0.352798
     5  C   -0.057760
     6  C   -0.611503
     7  C    0.471599
     8  C    0.660721
     9  C    0.510275
    10  C   -0.157648
    11  N   -0.412651
    12  C    0.587934
    13  O   -0.423079
    14  O   -0.333706
 Electronic spatial extent (au):  <R**2>=           2806.6752
 Charge=             -0.0000 electrons
 Dipole moment (field-independent basis, Debye):
    X=             -6.0281    Y=              0.3651    Z=             -2.0586  Tot=              6.3804
 Quadrupole moment (field-independent basis, Debye-Ang):
   XX=            -92.1921   YY=            -85.0666   ZZ=            -81.8340
   XY=              1.5531   XZ=             -6.2257   YZ=              6.6347
 Traceless Quadrupole moment (field-independent basis, Debye-Ang):
   XX=             -5.8279   YY=              1.2977   ZZ=              4.5302
   XY=              1.5531   XZ=             -6.2257   YZ=              6.6347
 Octapole moment (field-independent basis, Debye-Ang**2):
  XXX=            -80.4835  YYY=             28.1732  ZZZ=             -6.8921  XYY=            -41.5414
  XXY=              9.5828  XXZ=            -11.0745  XZZ=              5.2967  YZZ=              8.8821
  YYZ=            -11.8422  XYZ=             13.3618
 Hexadecapole moment (field-independent basis, Debye-Ang**3):
 XXXX=          -2475.5837 YYYY=          -1359.9760 ZZZZ=           -185.2100 XXXY=             40.9923
 XXXZ=            -44.4477 YYYX=             74.2641 YYYZ=             38.9995 ZZZX=            -21.8506
 ZZZY=             11.6265 XXYY=           -683.5985 XXZZ=           -428.1232 YYZZ=           -261.1371
 XXYZ=             50.3311 YYXZ=            -36.0598 ZZXY=             19.9230
 N-N= 8.197051652951D+02 E-N=-3.102520670989D+03  KE= 6.239284684750D+02
 Unable to Open any file for archive entry.
 1\1\GINC-N2\SP\RB3LYP TD-FC\6-31+G(d,p)\C11H9N1O2\HPCMGAC13\29-Jul-202
 5\0\\# td=(50-50,nstates=3) b3lyp/6-31+g(d,p) geom=connectivity\\Title
  Card Required\\0,1\C,0,-3.354373,-1.981012,-0.126139\C,0,-2.208184,-0
 .994895,-0.105887\C,0,-2.432485,0.366443,0.139153\C,0,-1.405833,1.3298
 66,0.178322\C,0,-1.679389,2.78783,0.452719\C,0,-0.131203,0.832642,-0.0
 48583\C,0,0.138608,-0.510579,-0.301261\C,0,-0.890525,-1.438274,-0.3309
 81\C,0,1.630559,-0.636875,-0.519587\C,0,2.311562,-1.606049,0.340453\N,
 0,2.8246,-2.400997,1.012742\C,0,2.120254,0.823098,-0.279776\O,0,3.2402
 82,1.242415,-0.315564\O,0,1.025824,1.616669,-0.046263\H,0,-4.30984,-1.
 484319,0.062532\H,0,-3.426552,-2.487891,-1.095221\H,0,-3.223862,-2.756
 558,0.637165\H,0,-3.45227,0.702776,0.31302\H,0,-0.758908,3.374454,0.44
 6384\H,0,-2.354973,3.206457,-0.301367\H,0,-2.157813,2.916915,1.429749\
 H,0,-0.68693,-2.489835,-0.514424\H,0,1.876149,-0.880861,-1.563016\\Ver
 sion=ES64L-G16RevC.02\State=1-A\HF=-629.8193819\RMSD=6.003e-09\PG=C01 
 [X(C11H9N1O2)]\\@
 The archive entry for this job was punched.


 YOU KNOW YOU'RE A TEACHER WHEN YOU SAY 2, WRITE 3, AND MEAN 4.
 -- RONALD ANSTROM, HIGH SCHOOL TEACHER, UNDERWOOD, N.D. 1974
 Job cpu time:       0 days  0 hours 36 minutes 51.3 seconds.
 Elapsed time:       0 days  0 hours  2 minutes 23.1 seconds.
 File lengths (MBytes):  RWF=    619 Int=      0 D2E=      0 Chk=     26 Scr=      2
 Normal termination of Gaussian 16 at Tue Jul 29 17:46:38 2025.
