 Entering Gaussian System, Link 0=g16
 Input=M2717e.gjf
 Output=M2717e.log
 Initial command:
 /hpc/softwares/Gaussian/g16/l1.exe "/hpc/home/hpcmgac13/pbs.12393.admin1.x8z/Gau-1755992.inp" -scrdir="/hpc/home/hpcmgac13/pbs.12393.admin1.x8z/"
 Default linda workers: n1
 Default is to use  16 SMP processors on each worker.
 Entering Link 1 = /hpc/softwares/Gaussian/g16/l1.exe PID=   1755993.
  
 Copyright (c) 1988-2021, Gaussian, Inc.  All Rights Reserved.
  
 This is part of the Gaussian(R) 16 program.  It is based on
 the Gaussian(R) 09 system (copyright 2009, Gaussian, Inc.),
 the Gaussian(R) 03 system (copyright 2003, Gaussian, Inc.),
 the Gaussian(R) 98 system (copyright 1998, Gaussian, Inc.),
 the Gaussian(R) 94 system (copyright 1995, Gaussian, Inc.),
 the Gaussian 92(TM) system (copyright 1992, Gaussian, Inc.),
 the Gaussian 90(TM) system (copyright 1990, Gaussian, Inc.),
 the Gaussian 88(TM) system (copyright 1988, Gaussian, Inc.),
 the Gaussian 86(TM) system (copyright 1986, Carnegie Mellon
 University), and the Gaussian 82(TM) system (copyright 1983,
 Carnegie Mellon University). Gaussian is a federally registered
 trademark of Gaussian, Inc.
  
 This software contains proprietary and confidential information,
 including trade secrets, belonging to Gaussian, Inc.
  
 This software is provided under written license and may be
 used, copied, transmitted, or stored only in accord with that
 written license.
  
 The following legend is applicable only to US Government
 contracts under FAR:
  
                    RESTRICTED RIGHTS LEGEND
  
 Use, reproduction and disclosure by the US Government is
 subject to restrictions as set forth in subparagraphs (a)
 and (c) of the Commercial Computer Software - Restricted
 Rights clause in FAR 52.227-19.
  
 Gaussian, Inc.
 340 Quinnipiac St., Bldg. 40, Wallingford CT 06492
  
  
 ---------------------------------------------------------------
 Warning -- This program may not be used in any manner that
 competes with the business of Gaussian, Inc. or will provide
 assistance to any competitor of Gaussian, Inc.  The licensee
 of this program is prohibited from giving any competitor of
 Gaussian, Inc. access to this program.  By using this program,
 the user acknowledges that Gaussian, Inc. is engaged in the
 business of creating and licensing software in the field of
 computational chemistry and represents and warrants to the
 licensee that it is not a competitor of Gaussian, Inc. and that
 it will not use this program in any manner prohibited above.
 ---------------------------------------------------------------
  

 Cite this work as:
 Gaussian 16, Revision C.02,
 M. J. Frisch, G. W. Trucks, H. B. Schlegel, G. E. Scuseria, 
 M. A. Robb, J. R. Cheeseman, G. Scalmani, V. Barone, 
 G. A. Petersson, H. Nakatsuji, X. Li, M. Caricato, A. V. Marenich, 
 J. Bloino, B. G. Janesko, R. Gomperts, B. Mennucci, H. P. Hratchian, 
 J. V. Ortiz, A. F. Izmaylov, J. L. Sonnenberg, D. Williams-Young, 
 F. Ding, F. Lipparini, F. Egidi, J. Goings, B. Peng, A. Petrone, 
 T. Henderson, D. Ranasinghe, V. G. Zakrzewski, J. Gao, N. Rega, 
 G. Zheng, W. Liang, M. Hada, M. Ehara, K. Toyota, R. Fukuda, 
 J. Hasegawa, M. Ishida, T. Nakajima, Y. Honda, O. Kitao, H. Nakai, 
 T. Vreven, K. Throssell, J. A. Montgomery, Jr., J. E. Peralta, 
 F. Ogliaro, M. J. Bearpark, J. J. Heyd, E. N. Brothers, K. N. Kudin, 
 V. N. Staroverov, T. A. Keith, R. Kobayashi, J. Normand, 
 K. Raghavachari, A. P. Rendell, J. C. Burant, S. S. Iyengar, 
 J. Tomasi, M. Cossi, J. M. Millam, M. Klene, C. Adamo, R. Cammi, 
 J. W. Ochterski, R. L. Martin, K. Morokuma, O. Farkas, 
 J. B. Foresman, and D. J. Fox, Gaussian, Inc., Wallingford CT, 2019.
 
 ******************************************
 Gaussian 16:  ES64L-G16RevC.02  7-Dec-2021
                29-Jul-2025 
 ******************************************
 SetLPE:    new flags="-opt 'Tsnet.Node.lindarsharg: ssh'  -nodelist 'n1' -env GAUSS_MDEF=2147483648 -env GAUSS_EXEDIR="/hpc/softwares/Gaussian/g16/bsd:/hpc/softwares/Gaussian/g16""
 Will use up to    1 processors via Linda.
 ----------------------------------------------------------
 # td=(50-50,nstates=3) b3lyp/6-31+g(d,p) geom=connectivity
 ----------------------------------------------------------
 1/38=1,57=2,172=1/1;
 2/12=2,17=6,18=5,40=1/2;
 3/5=1,6=6,7=111,11=9,25=1,30=1,74=-5/1,2,3,8;
 4//1;
 5/5=2,38=5/2;
 8/6=1,10=2,108=3/1;
 9/41=3,42=1,48=2,70=2/14;
 6/7=2,8=2,9=2,10=2/1;
 99/5=1,9=1/99;
 -------------------
 Title Card Required
 -------------------
 Symbolic Z-matrix:
 Charge =  0 Multiplicity = 1
 C                    -2.86721  -2.59427   1.34865 
 N                    -2.17997  -1.52056   0.63496 
 C                    -1.20345  -1.92301  -0.37461 
 C                     0.10993  -1.18553  -0.25741 
 C                     0.59436  -0.48877   0.81668 
 C                     1.90049   0.02867   0.56303 
 S                     3.04661   0.98031   1.46802 
 C                     4.17479   0.94031   0.13128 
 C                     3.70687   0.24286  -0.95084 
 C                     2.40355  -0.27675  -0.69715 
 S                     1.24764  -1.21887  -1.60759 
 N                    -2.97692  -0.44067   0.42712 
 C                    -2.68909   0.45689  -0.44459 
 C                    -3.631     1.63201  -0.58803 
 C                    -2.97183   2.92168  -0.33466 
 N                    -2.4419    3.93723  -0.14279 
 H                    -3.49592  -2.14471   2.11771 
 H                    -3.50209  -3.20155   0.68439 
 H                    -2.1284   -3.2431    1.82641 
 H                    -1.63065  -1.78587  -1.3835 
 H                    -1.03352  -2.99866  -0.25307 
 H                     0.02765  -0.35163   1.72933 
 H                     5.12652   1.44467   0.22895 
 H                     4.265     0.11418  -1.87015 
 H                    -1.79435   0.44838  -1.06846 
 H                    -4.05332   1.669    -1.60145 
 H                    -4.46188   1.50966   0.11393 
 
                          Input orientation:                          
 ---------------------------------------------------------------------
 Center     Atomic      Atomic             Coordinates (Angstroms)
 Number     Number       Type             X           Y           Z
 ---------------------------------------------------------------------
      1          6           0       -2.867210   -2.594268    1.348645
      2          7           0       -2.179967   -1.520555    0.634960
      3          6           0       -1.203445   -1.923011   -0.374609
      4          6           0        0.109933   -1.185527   -0.257408
      5          6           0        0.594361   -0.488770    0.816677
      6          6           0        1.900488    0.028672    0.563033
      7         16           0        3.046608    0.980307    1.468020
      8          6           0        4.174787    0.940308    0.131283
      9          6           0        3.706873    0.242857   -0.950844
     10          6           0        2.403551   -0.276754   -0.697148
     11         16           0        1.247635   -1.218867   -1.607592
     12          7           0       -2.976917   -0.440669    0.427119
     13          6           0       -2.689092    0.456891   -0.444591
     14          6           0       -3.630996    1.632011   -0.588032
     15          6           0       -2.971829    2.921684   -0.334664
     16          7           0       -2.441898    3.937229   -0.142792
     17          1           0       -3.495919   -2.144707    2.117710
     18          1           0       -3.502087   -3.201550    0.684390
     19          1           0       -2.128396   -3.243101    1.826405
     20          1           0       -1.630645   -1.785874   -1.383496
     21          1           0       -1.033516   -2.998663   -0.253065
     22          1           0        0.027653   -0.351625    1.729326
     23          1           0        5.126521    1.444665    0.228948
     24          1           0        4.265001    0.114175   -1.870151
     25          1           0       -1.794345    0.448379   -1.068457
     26          1           0       -4.053320    1.669003   -1.601446
     27          1           0       -4.461878    1.509664    0.113925
 ---------------------------------------------------------------------
                    Distance matrix (angstroms):
                    1          2          3          4          5
     1  C    0.000000
     2  N    1.460996   0.000000
     3  C    2.487630   1.461094   0.000000
     4  C    3.664333   2.480364   1.510821   0.000000
     5  C    4.086390   2.965552   2.590042   1.368868   0.000000
     6  C    5.497995   4.365248   3.784526   2.313761   1.427603
     7  S    6.911229   5.853664   5.466945   4.036335   2.931885
     8  C    7.972761   6.833186   6.113911   4.603617   3.915543
     9  C    7.520339   6.346596   5.397616   3.931808   3.653374
    10  C    6.110406   4.932564   3.978016   2.505977   2.368499
    11  S    5.250049   4.107129   2.832642   1.765920   2.614744
    12  N    2.345045   1.358117   2.446489   3.248389   3.592784
    13  C    3.543585   2.309747   2.806417   3.250710   3.642271
    14  C    4.711212   3.679656   4.310074   4.694932   4.931994
    15  C    5.768033   4.615269   5.157504   5.135407   5.067000
    16  N    6.713101   5.519141   5.994157   5.724300   5.452423
    17  H    1.090340   2.078423   3.393559   4.423051   4.600566
    18  H    1.101406   2.139203   2.835471   4.242407   4.915034
    19  H    1.093199   2.095081   2.728119   3.685920   4.002411
    20  H    3.105992   2.108628   1.104156   2.158264   3.387313
    21  H    2.468085   2.070686   1.095754   2.143585   3.177089
    22  H    3.681657   2.727200   2.900241   2.156218   1.083003
    23  H    9.025876   7.895704   7.195415   5.685122   4.962265
    24  H    8.280383   7.105317   6.024174   4.642710   4.588702
    25  H    4.031268   2.631926   2.540488   2.636991   3.184006
    26  H    5.318400   4.322527   4.746523   5.223740   5.666061
    27  H    4.572719   3.828945   4.758078   5.320094   5.482075
                    6          7          8          9         10
     6  C    0.000000
     7  S    1.743044   0.000000
     8  C    2.487956   1.749644   0.000000
     9  C    2.366585   2.613558   1.369810   0.000000
    10  C    1.390832   2.584894   2.303218   1.425835   0.000000
    11  S    2.587312   4.187130   4.031618   2.935269   1.747177
    12  N    4.901819   6.275787   7.289821   6.858501   5.499116
    13  C    4.718360   6.068797   6.904937   6.419538   5.151411
    14  C    5.873071   7.017297   7.869315   7.477012   6.330170
    15  C    5.737147   6.575728   7.430819   7.222247   6.265470
    16  N    5.884838   6.439084   7.268918   7.218637   6.445412
    17  H    6.021778   7.279593   8.503114   8.185151   6.798266
    18  H    6.295783   7.809444   8.740441   8.155184   6.733472
    19  H    5.341583   6.689266   7.752707   7.342709   5.975456
    20  H    4.421589   6.136742   6.590119   5.726433   4.361566
    21  H    4.294083   5.953297   6.541379   5.784949   4.406748
    22  H    2.238834   3.310047   4.628342   4.590575   3.396803
    23  H    3.538918   2.465150   1.081532   2.202647   3.351940
    24  H    3.393909   3.657602   2.167112   1.083140   2.234672
    25  H    4.060752   5.491037   6.108347   5.506312   4.276216
    26  H    6.543966   7.765623   8.440088   7.916929   6.804036
    27  H    6.547880   7.647951   8.655429   8.334688   7.140255
                   11         12         13         14         15
    11  S    0.000000
    12  N    4.753155   0.000000
    13  C    4.433797   1.283875   0.000000
    14  C    5.741781   2.398823   1.512834   0.000000
    15  C    6.047180   3.447573   2.483391   1.470358   0.000000
    16  N    6.507197   4.447138   3.502134   2.631772   1.161453
    17  H    6.102160   2.455851   3.739608   4.647890   5.653063
    18  H    5.634188   2.822137   3.914045   4.999899   6.230059
    19  H    5.223739   3.245245   4.377413   5.643937   6.586818
    20  H    2.942144   2.626852   2.651763   4.039320   5.005989
    21  H    3.194694   3.283716   3.836466   5.319986   6.230106
    22  H    3.657251   3.275838   3.572159   4.763473   4.896070
    23  H    5.051043   8.322227   7.906526   8.797537   8.251213
    24  H    3.309144   7.617787   7.106974   8.142139   7.912745
    25  H    3.510558   2.103718   1.090804   2.237204   2.835870
    26  H    6.036552   3.118403   2.160705   1.098514   2.084123
    27  H    6.557975   2.471234   2.136128   1.094567   2.101256
                   16         17         18         19         20
    16  N    0.000000
    17  H    6.573490   0.000000
    18  H    7.264324   1.780832   0.000000
    19  H    7.452057   1.778046   1.786883   0.000000
    20  H    5.911970   3.983271   3.127713   3.560159   0.000000
    21  H    7.078298   3.523243   2.648363   2.362775   1.762185
    22  H    5.291293   3.972599   4.655430   3.608130   3.807451
    23  H    7.976969   9.528771   9.810587   8.784124   7.661309
    24  H    7.910879   9.013183   8.823116   8.112420   6.213345
    25  H    3.667186   4.446472   4.394410   4.703067   2.262285
    26  H    3.141529   5.356043   5.408437   6.291602   4.225285
    27  H    3.168485   4.278161   4.841711   5.564755   4.595511
                   21         22         23         24         25
    21  H    0.000000
    22  H    3.473149   0.000000
    23  H    7.610621   5.610370   0.000000
    24  H    6.354448   5.579276   2.630330   0.000000
    25  H    3.622958   3.433260   7.111556   6.121281   0.000000
    26  H    5.720529   5.641925   9.363234   8.466650   2.622397
    27  H    5.675681   5.121504   9.589309   9.057724   3.104849
                   26         27
    26  H    0.000000
    27  H    1.770538   0.000000
 Stoichiometry    C11H11N3S2
 Framework group  C1[X(C11H11N3S2)]
 Deg. of freedom    75
 Full point group                 C1      NOp   1
 Largest Abelian subgroup         C1      NOp   1
 Largest concise Abelian subgroup C1      NOp   1
                         Standard orientation:                         
 ---------------------------------------------------------------------
 Center     Atomic      Atomic             Coordinates (Angstroms)
 Number     Number       Type             X           Y           Z
 ---------------------------------------------------------------------
      1          6           0       -2.867210   -2.594268    1.348645
      2          7           0       -2.179967   -1.520555    0.634960
      3          6           0       -1.203445   -1.923011   -0.374609
      4          6           0        0.109933   -1.185527   -0.257408
      5          6           0        0.594361   -0.488770    0.816677
      6          6           0        1.900488    0.028672    0.563033
      7         16           0        3.046608    0.980307    1.468020
      8          6           0        4.174787    0.940308    0.131283
      9          6           0        3.706873    0.242857   -0.950844
     10          6           0        2.403551   -0.276754   -0.697148
     11         16           0        1.247635   -1.218867   -1.607592
     12          7           0       -2.976917   -0.440669    0.427119
     13          6           0       -2.689092    0.456891   -0.444591
     14          6           0       -3.630996    1.632011   -0.588032
     15          6           0       -2.971829    2.921684   -0.334664
     16          7           0       -2.441898    3.937229   -0.142792
     17          1           0       -3.495919   -2.144707    2.117710
     18          1           0       -3.502087   -3.201550    0.684390
     19          1           0       -2.128396   -3.243101    1.826405
     20          1           0       -1.630645   -1.785874   -1.383496
     21          1           0       -1.033516   -2.998663   -0.253065
     22          1           0        0.027653   -0.351625    1.729326
     23          1           0        5.126521    1.444665    0.228948
     24          1           0        4.265001    0.114175   -1.870151
     25          1           0       -1.794345    0.448379   -1.068457
     26          1           0       -4.053320    1.669003   -1.601446
     27          1           0       -4.461878    1.509664    0.113925
 ---------------------------------------------------------------------
 Rotational constants (GHZ):           0.5551266           0.2608241           0.2136201
 Standard basis: 6-31+G(d,p) (6D, 7F)
 There are   367 symmetry adapted cartesian basis functions of A   symmetry.
 There are   367 symmetry adapted basis functions of A   symmetry.
   367 basis functions,   637 primitive gaussians,   367 cartesian basis functions
    65 alpha electrons       65 beta electrons
       nuclear repulsion energy      1223.5447676159 Hartrees.
 NAtoms=   27 NActive=   27 NUniq=   27 SFac= 1.00D+00 NAtFMM=   60 NAOKFM=F Big=F
 Integral buffers will be    131072 words long.
 Regular integral format.
 Two-electron integral symmetry is turned on.
 One-electron integrals computed using PRISM.
 NBasis=   367 RedAO= T EigKep=  1.05D-06  NBF=   367
 NBsUse=   367 1.00D-06 EigRej= -1.00D+00 NBFU=   367
 ExpMin= 4.05D-02 ExpMax= 2.19D+04 ExpMxC= 3.30D+03 IAcc=3 IRadAn=         5 AccDes= 0.00D+00
 Harris functional with IExCor=  402 and IRadAn=       5 diagonalized for initial guess.
 HarFok:  IExCor=  402 AccDes= 0.00D+00 IRadAn=         5 IDoV= 1 UseB2=F ITyADJ=14
 ICtDFT=  3500011 ScaDFX=  1.000000  1.000000  1.000000  1.000000
 FoFCou: FMM=F IPFlag=           0 FMFlag=      100000 FMFlg1=           0
         NFxFlg=           0 DoJE=T BraDBF=F KetDBF=T FulRan=T
         wScrn=  0.000000 ICntrl=       500 IOpCl=  0 I1Cent=   200000004 NGrid=           0
         NMat0=    1 NMatS0=      1 NMatT0=    0 NMatD0=    1 NMtDS0=    0 NMtDT0=    0
 Petite list used in FoFCou.
 Requested convergence on RMS density matrix=1.00D-08 within 128 cycles.
 Requested convergence on MAX density matrix=1.00D-06.
 Requested convergence on             energy=1.00D-06.
 No special actions if energy rises.
 SCF Done:  E(RB3LYP) =  -1386.38074375     A.U. after   16 cycles
            NFock= 16  Conv=0.61D-08     -V/T= 2.0061
 DoSCS=F DFT=T ScalE2(SS,OS)=  1.000000  1.000000
 ExpMin= 4.05D-02 ExpMax= 2.19D+04 ExpMxC= 3.30D+03 IAcc=3 IRadAn=         5 AccDes= 0.00D+00
 HarFok:  IExCor=  205 AccDes= 0.00D+00 IRadAn=         5 IDoV=-2 UseB2=F ITyADJ=14
 ICtDFT= 12500011 ScaDFX=  1.000000  1.000000  1.000000  1.000000
 GSVD:  LWork=        -768 too small for GESVD, short by        3240 words or        3240 for optimal perf.
 Range of M.O.s used for correlation:    25   367
 NBasis=   367 NAE=    65 NBE=    65 NFC=    24 NFV=     0
 NROrb=    343 NOA=    41 NOB=    41 NVA=   302 NVB=   302

 **** Warning!!: The largest alpha MO coefficient is  0.21349238D+03

 Orbital symmetries:
       Occupied  (A) (A) (A) (A) (A) (A) (A) (A) (A) (A) (A) (A)
                 (A) (A) (A) (A) (A) (A) (A) (A) (A) (A) (A) (A)
                 (A) (A) (A) (A) (A) (A) (A) (A) (A) (A) (A) (A)
                 (A) (A) (A) (A) (A) (A) (A) (A) (A) (A) (A) (A)
                 (A) (A) (A) (A) (A) (A) (A) (A) (A) (A) (A) (A)
                 (A) (A) (A) (A) (A)
       Virtual   (A) (A) (A) (A) (A) (A) (A) (A) (A) (A) (A) (A)
                 (A) (A) (A) (A) (A) (A) (A) (A) (A) (A) (A) (A)
                 (A) (A) (A) (A) (A) (A) (A) (A) (A) (A) (A) (A)
                 (A) (A) (A) (A) (A) (A) (A) (A) (A) (A) (A) (A)
                 (A) (A) (A) (A) (A) (A) (A) (A) (A) (A) (A) (A)
                 (A) (A) (A) (A) (A) (A) (A) (A) (A) (A) (A) (A)
                 (A) (A) (A) (A) (A) (A) (A) (A) (A) (A) (A) (A)
                 (A) (A) (A) (A) (A) (A) (A) (A) (A) (A) (A) (A)
                 (A) (A) (A) (A) (A) (A) (A) (A) (A) (A) (A) (A)
                 (A) (A) (A) (A) (A) (A) (A) (A) (A) (A) (A) (A)
                 (A) (A) (A) (A) (A) (A) (A) (A) (A) (A) (A) (A)
                 (A) (A) (A) (A) (A) (A) (A) (A) (A) (A) (A) (A)
                 (A) (A) (A) (A) (A) (A) (A) (A) (A) (A) (A) (A)
                 (A) (A) (A) (A) (A) (A) (A) (A) (A) (A) (A) (A)
                 (A) (A) (A) (A) (A) (A) (A) (A) (A) (A) (A) (A)
                 (A) (A) (A) (A) (A) (A) (A) (A) (A) (A) (A) (A)
                 (A) (A) (A) (A) (A) (A) (A) (A) (A) (A) (A) (A)
                 (A) (A) (A) (A) (A) (A) (A) (A) (A) (A) (A) (A)
                 (A) (A) (A) (A) (A) (A) (A) (A) (A) (A) (A) (A)
                 (A) (A) (A) (A) (A) (A) (A) (A) (A) (A) (A) (A)
                 (A) (A) (A) (A) (A) (A) (A) (A) (A) (A) (A) (A)
                 (A) (A) (A) (A) (A) (A) (A) (A) (A) (A) (A) (A)
                 (A) (A) (A) (A) (A) (A) (A) (A) (A) (A) (A) (A)
                 (A) (A) (A) (A) (A) (A) (A) (A) (A) (A) (A) (A)
                 (A) (A) (A) (A) (A) (A) (A) (A) (A) (A) (A) (A)
                 (A) (A)
    24 initial guesses have been made.
 Convergence on wavefunction:    0.001000000000000
 Iteration     1 Dimension    24 NMult     0 NNew     24
 CISAX will form    24 AO SS matrices at one time.
 New state      1 was old state      2
 New state      2 was old state     10
 New state      3 was old state      6
 New state      5 was old state      3
 New state      6 was old state      8
 New state      8 was old state     12
 New state      9 was old state     11
 New state     10 was old state     18
 New state     11 was old state     20
 New state     12 was old state     14
 Vector   4 SDiff=8.64D+00 TDiff=8.98D+00 assumed to be singlet.
 Vector   6 SDiff=8.04D+00 TDiff=3.11D+00 assumed to be triplet.
 Vector  10 SDiff=8.65D+00 TDiff=8.85D+00 assumed to be singlet.
 Vector  12 SDiff=8.07D+00 TDiff=2.93D+00 assumed to be triplet.
 Iteration     2 Dimension    36 NMult    24 NNew     12
 New state      4 was old state      5
 New state      5 was old state      7
 New state      6 was old state      9
 Iteration     3 Dimension    48 NMult    36 NNew     12
 Iteration     4 Dimension    60 NMult    48 NNew     12
 New state      5 was old state      6
 New state      6 was old state      5
 Iteration     5 Dimension    72 NMult    60 NNew     12
 Iteration     6 Dimension    80 NMult    72 NNew      8
 Iteration     7 Dimension    84 NMult    80 NNew      4
 Iteration     8 Dimension    88 NMult    84 NNew      4
 Iteration     9 Dimension    90 NMult    88 NNew      2
 ***********************************************************************
 Excited states from <AA,BB:AA,BB> singles matrix:
 ***********************************************************************
 
 Ground to excited state transition densities written to RWF  633
 Ground to excited state transition electric dipole moments (Au):
       state          X           Y           Z        Dip. S.      Osc.
         1        -0.0000      0.0000     -0.0000      0.0000      0.0000
         2        -0.0000     -0.0000     -0.0000      0.0000      0.0000
         3         0.0000     -0.0000      0.0000      0.0000      0.0000
         4         0.8344      0.3917      0.2315      0.9033      0.1011
         5        -1.3058     -0.5452     -0.3425      2.1196      0.2399
         6         0.0717      0.0805     -0.0003      0.0116      0.0013
 Ground to excited state transition velocity dipole moments (Au):
       state          X           Y           Z        Dip. S.      Osc.
         1        -0.0000     -0.0000      0.0000      0.0000      0.0000
         2         0.0000      0.0000     -0.0000      0.0000      0.0000
         3        -0.0000      0.0000     -0.0000      0.0000      0.0000
         4        -0.1347     -0.0655     -0.0352      0.0237      0.0941
         5         0.2150      0.0875      0.0565      0.0571      0.2242
         6        -0.0127     -0.0113      0.0002      0.0003      0.0011
 Ground to excited state transition magnetic dipole moments (Au):
       state          X           Y           Z
         1         0.0000      0.0000      0.0000
         2        -0.0000     -0.0000      0.0000
         3        -0.0000      0.0000     -0.0000
         4        -0.0011      0.1983     -0.3917
         5        -0.0339     -0.0738      0.6982
         6         0.0673      0.2424     -0.0733
 Ground to excited state transition velocity quadrupole moments (Au):
       state          XX          YY          ZZ          XY          XZ          YZ
         1         0.0000      0.0000     -0.0000      0.0000     -0.0000     -0.0000
         2         0.0000      0.0000     -0.0000      0.0000      0.0000      0.0000
         3        -0.0000     -0.0000      0.0000     -0.0000     -0.0000      0.0000
         4        -0.7319      0.2501     -0.0202     -0.2698     -0.2049     -0.0030
         5         1.1562     -0.2257     -0.0471      0.3466      0.1057     -0.0476
         6        -0.0397      0.0245     -0.0147     -0.0208     -0.0644      0.0142
 <0|del|b> * <b|rxdel|0> + <0|del|b> * <b|delr+rdel|0>
 Rotatory Strengths (R) in cgs (10**-40 erg-esu-cm/Gauss)
       state          XX          YY          ZZ    R(velocity)    E-M Angle
         1         0.0000     -0.0000     -0.0000      0.0000       90.00
         2        -0.0000      0.0000     -0.0000     -0.0000       90.00
         3         0.0000      0.0000      0.0000      0.0000       90.00
         4        -6.5830     10.2002      0.3602      1.3258       89.20
         5        90.3485      4.9186     11.9094     35.7255       81.19
         6        -7.0778     -2.1310     -5.4567     -4.8885      144.04
 1/2[<0|r|b>*<b|rxdel|0> + (<0|rxdel|b>*<b|r|0>)*]
 Rotatory Strengths (R) in cgs (10**-40 erg-esu-cm/Gauss)
       state          XX          YY          ZZ     R(length)
         1         0.0000     -0.0000      0.0000      0.0000
         2        -0.0000     -0.0000      0.0000     -0.0000
         3         0.0000      0.0000      0.0000      0.0000
         4         0.6318    -54.9232     64.1341      3.2809
         5       -31.3222    -28.4674    169.1087     36.4397
         6        -3.4150    -13.7933     -0.0152     -5.7412
  1/2[<0|del|b>*<b|r|0> + (<0|r|b>*<b|del|0>)*] (Au)
       state          X           Y           Z        Dip. S.   Osc.(frdel)
         1         0.0000     -0.0000     -0.0000      0.0000      0.0000
         2        -0.0000     -0.0000      0.0000      0.0000      0.0000
         3        -0.0000     -0.0000     -0.0000      0.0000      0.0000
         4        -0.1124     -0.0257     -0.0082      0.1463      0.0975
         5        -0.2808     -0.0477     -0.0194      0.3478      0.2319
         6        -0.0009     -0.0009     -0.0000      0.0018      0.0012

 Excitation energies and oscillator strengths:
 
 Excited State   1:      Triplet-A      2.8827 eV  430.10 nm  f=0.0000  <S**2>=2.000
      65 -> 66         0.68428
 This state for optimization and/or second-order correction.
 Total Energy, E(TD-HF/TD-DFT) =  -1386.27480698    
 Copying the excited state density for this state as the 1-particle RhoCI density.
 
 Excited State   2:      Triplet-A      3.4343 eV  361.02 nm  f=0.0000  <S**2>=2.000
      54 -> 67        -0.11626
      63 -> 67         0.20332
      64 -> 67         0.59354
      64 -> 68        -0.22275
 
 Excited State   3:      Triplet-A      3.8729 eV  320.13 nm  f=0.0000  <S**2>=2.000
      63 -> 66         0.63986
      64 -> 66        -0.25894
 
 Excited State   4:      Singlet-A      4.5689 eV  271.37 nm  f=0.1011  <S**2>=0.000
      63 -> 66         0.10928
      64 -> 66         0.55019
      65 -> 66        -0.41398
 
 Excited State   5:      Singlet-A      4.6198 eV  268.38 nm  f=0.2399  <S**2>=0.000
      63 -> 66         0.13452
      64 -> 66         0.39985
      65 -> 66         0.55309
 
 Excited State   6:      Singlet-A      4.7202 eV  262.66 nm  f=0.0013  <S**2>=0.000
      65 -> 67         0.65043
      65 -> 68         0.22490
      65 -> 69        -0.10333
 SavETr:  write IOETrn=   770 NScale= 10 NData=  16 NLR=1 NState=    6 LETran=     118.

 **********************************************************************

            Population analysis using the SCF Density.

 **********************************************************************

 Orbital symmetries:
       Occupied  (A) (A) (A) (A) (A) (A) (A) (A) (A) (A) (A) (A)
                 (A) (A) (A) (A) (A) (A) (A) (A) (A) (A) (A) (A)
                 (A) (A) (A) (A) (A) (A) (A) (A) (A) (A) (A) (A)
                 (A) (A) (A) (A) (A) (A) (A) (A) (A) (A) (A) (A)
                 (A) (A) (A) (A) (A) (A) (A) (A) (A) (A) (A) (A)
                 (A) (A) (A) (A) (A)
       Virtual   (A) (A) (A) (A) (A) (A) (A) (A) (A) (A) (A) (A)
                 (A) (A) (A) (A) (A) (A) (A) (A) (A) (A) (A) (A)
                 (A) (A) (A) (A) (A) (A) (A) (A) (A) (A) (A) (A)
                 (A) (A) (A) (A) (A) (A) (A) (A) (A) (A) (A) (A)
                 (A) (A) (A) (A) (A) (A) (A) (A) (A) (A) (A) (A)
                 (A) (A) (A) (A) (A) (A) (A) (A) (A) (A) (A) (A)
                 (A) (A) (A) (A) (A) (A) (A) (A) (A) (A) (A) (A)
                 (A) (A) (A) (A) (A) (A) (A) (A) (A) (A) (A) (A)
                 (A) (A) (A) (A) (A) (A) (A) (A) (A) (A) (A) (A)
                 (A) (A) (A) (A) (A) (A) (A) (A) (A) (A) (A) (A)
                 (A) (A) (A) (A) (A) (A) (A) (A) (A) (A) (A) (A)
                 (A) (A) (A) (A) (A) (A) (A) (A) (A) (A) (A) (A)
                 (A) (A) (A) (A) (A) (A) (A) (A) (A) (A) (A) (A)
                 (A) (A) (A) (A) (A) (A) (A) (A) (A) (A) (A) (A)
                 (A) (A) (A) (A) (A) (A) (A) (A) (A) (A) (A) (A)
                 (A) (A) (A) (A) (A) (A) (A) (A) (A) (A) (A) (A)
                 (A) (A) (A) (A) (A) (A) (A) (A) (A) (A) (A) (A)
                 (A) (A) (A) (A) (A) (A) (A) (A) (A) (A) (A) (A)
                 (A) (A) (A) (A) (A) (A) (A) (A) (A) (A) (A) (A)
                 (A) (A) (A) (A) (A) (A) (A) (A) (A) (A) (A) (A)
                 (A) (A) (A) (A) (A) (A) (A) (A) (A) (A) (A) (A)
                 (A) (A) (A) (A) (A) (A) (A) (A) (A) (A) (A) (A)
                 (A) (A) (A) (A) (A) (A) (A) (A) (A) (A) (A) (A)
                 (A) (A) (A) (A) (A) (A) (A) (A) (A) (A) (A) (A)
                 (A) (A) (A) (A) (A) (A) (A) (A) (A) (A) (A) (A)
                 (A) (A)
 The electronic state is 1-A.
 Alpha  occ. eigenvalues --  -88.92488 -88.92235 -14.40217 -14.38912 -14.34195
 Alpha  occ. eigenvalues --  -10.25655 -10.24710 -10.24177 -10.24044 -10.23609
 Alpha  occ. eigenvalues --  -10.23182 -10.23122 -10.23087 -10.22982 -10.21410
 Alpha  occ. eigenvalues --  -10.21270  -7.98360  -7.98115  -5.94811  -5.94558
 Alpha  occ. eigenvalues --   -5.94457  -5.94196  -5.94012  -5.93785  -1.03307
 Alpha  occ. eigenvalues --   -0.91582  -0.91044  -0.87743  -0.85195  -0.79004
 Alpha  occ. eigenvalues --   -0.77348  -0.76548  -0.71628  -0.70139  -0.68076
 Alpha  occ. eigenvalues --   -0.60119  -0.57926  -0.56572  -0.55409  -0.53440
 Alpha  occ. eigenvalues --   -0.51730  -0.50316  -0.49780  -0.48593  -0.46828
 Alpha  occ. eigenvalues --   -0.44434  -0.44045  -0.43170  -0.42074  -0.41476
 Alpha  occ. eigenvalues --   -0.40788  -0.39427  -0.39098  -0.37404  -0.37179
 Alpha  occ. eigenvalues --   -0.36369  -0.34495  -0.33812  -0.33509  -0.33067
 Alpha  occ. eigenvalues --   -0.29569  -0.28994  -0.24094  -0.23751  -0.22389
 Alpha virt. eigenvalues --   -0.04357  -0.02508  -0.01117  -0.00676  -0.00047
 Alpha virt. eigenvalues --    0.00008   0.00799   0.01254   0.01830   0.02278
 Alpha virt. eigenvalues --    0.02473   0.02571   0.03187   0.03685   0.03869
 Alpha virt. eigenvalues --    0.04371   0.04561   0.04946   0.05395   0.05696
 Alpha virt. eigenvalues --    0.06177   0.06961   0.07364   0.07732   0.08089
 Alpha virt. eigenvalues --    0.08311   0.08994   0.09378   0.09451   0.09886
 Alpha virt. eigenvalues --    0.10224   0.10380   0.11185   0.12065   0.12315
 Alpha virt. eigenvalues --    0.12696   0.12773   0.13496   0.13618   0.14176
 Alpha virt. eigenvalues --    0.14308   0.15215   0.15791   0.16081   0.16884
 Alpha virt. eigenvalues --    0.17091   0.17292   0.17723   0.18076   0.18383
 Alpha virt. eigenvalues --    0.18569   0.18947   0.19671   0.19838   0.20505
 Alpha virt. eigenvalues --    0.20659   0.20995   0.21277   0.21766   0.22127
 Alpha virt. eigenvalues --    0.22430   0.23031   0.23241   0.23688   0.23975
 Alpha virt. eigenvalues --    0.24338   0.24960   0.25214   0.25674   0.25885
 Alpha virt. eigenvalues --    0.26378   0.26655   0.27837   0.28089   0.28481
 Alpha virt. eigenvalues --    0.28620   0.29677   0.29897   0.29985   0.30525
 Alpha virt. eigenvalues --    0.31494   0.31994   0.32376   0.33207   0.34855
 Alpha virt. eigenvalues --    0.35315   0.36603   0.37471   0.38508   0.38994
 Alpha virt. eigenvalues --    0.41071   0.41876   0.42160   0.43740   0.45050
 Alpha virt. eigenvalues --    0.47334   0.50640   0.51380   0.52026   0.53077
 Alpha virt. eigenvalues --    0.54702   0.56846   0.58864   0.59294   0.61924
 Alpha virt. eigenvalues --    0.63502   0.64717   0.64936   0.65662   0.66024
 Alpha virt. eigenvalues --    0.66289   0.67582   0.67868   0.68619   0.69265
 Alpha virt. eigenvalues --    0.70015   0.71326   0.73221   0.73335   0.73776
 Alpha virt. eigenvalues --    0.74509   0.75446   0.77827   0.78605   0.79937
 Alpha virt. eigenvalues --    0.80807   0.81174   0.81710   0.83283   0.84847
 Alpha virt. eigenvalues --    0.86030   0.86432   0.87152   0.87738   0.89132
 Alpha virt. eigenvalues --    0.89428   0.91946   0.92346   0.93063   0.93915
 Alpha virt. eigenvalues --    0.94181   0.94915   0.95803   0.96584   0.97132
 Alpha virt. eigenvalues --    0.97796   0.99075   0.99724   1.01119   1.01944
 Alpha virt. eigenvalues --    1.02088   1.03476   1.04046   1.05096   1.05577
 Alpha virt. eigenvalues --    1.07013   1.08124   1.09354   1.11049   1.11747
 Alpha virt. eigenvalues --    1.11815   1.12542   1.13412   1.14885   1.16941
 Alpha virt. eigenvalues --    1.18631   1.19937   1.22297   1.23157   1.24377
 Alpha virt. eigenvalues --    1.26491   1.28718   1.29804   1.31370   1.31435
 Alpha virt. eigenvalues --    1.32702   1.35261   1.37220   1.38593   1.41053
 Alpha virt. eigenvalues --    1.42196   1.43791   1.47597   1.48158   1.48523
 Alpha virt. eigenvalues --    1.51321   1.52131   1.53311   1.54563   1.55641
 Alpha virt. eigenvalues --    1.58805   1.61099   1.61706   1.63391   1.67527
 Alpha virt. eigenvalues --    1.69172   1.72263   1.75294   1.78934   1.79726
 Alpha virt. eigenvalues --    1.82028   1.83554   1.84208   1.85585   1.87146
 Alpha virt. eigenvalues --    1.89580   1.90527   1.91748   1.93737   1.95238
 Alpha virt. eigenvalues --    1.95794   1.98801   2.00397   2.01024   2.02550
 Alpha virt. eigenvalues --    2.02793   2.03180   2.04903   2.07873   2.09992
 Alpha virt. eigenvalues --    2.11370   2.13441   2.14052   2.14573   2.15773
 Alpha virt. eigenvalues --    2.16598   2.17660   2.18768   2.20724   2.21761
 Alpha virt. eigenvalues --    2.24663   2.26781   2.28437   2.29618   2.33697
 Alpha virt. eigenvalues --    2.34114   2.35065   2.38111   2.42655   2.43021
 Alpha virt. eigenvalues --    2.44279   2.45706   2.46895   2.47976   2.48853
 Alpha virt. eigenvalues --    2.51649   2.54288   2.54451   2.57355   2.58843
 Alpha virt. eigenvalues --    2.61233   2.63185   2.63444   2.64861   2.65838
 Alpha virt. eigenvalues --    2.69475   2.70935   2.73246   2.74093   2.76381
 Alpha virt. eigenvalues --    2.77290   2.80755   2.87182   2.87826   2.90319
 Alpha virt. eigenvalues --    2.91587   2.92264   2.93740   2.94381   2.97353
 Alpha virt. eigenvalues --    3.02332   3.05929   3.09645   3.13854   3.22496
 Alpha virt. eigenvalues --    3.24967   3.28090   3.31323   3.35842   3.42883
 Alpha virt. eigenvalues --    3.44772   3.46555   3.47870   3.50640   3.55058
 Alpha virt. eigenvalues --    3.61958   3.96602   3.98684   4.11552   4.16488
 Alpha virt. eigenvalues --    4.27568   4.29373   4.31324   4.34872   4.40910
 Alpha virt. eigenvalues --    4.41517   4.48782   4.55189   4.59701   4.63102
 Alpha virt. eigenvalues --    4.68856   4.77544
          Condensed to atoms (all electrons):
               1          2          3          4          5          6
     1  C    5.203959   0.261207  -0.307704   0.238648   0.045491  -0.187718
     2  N    0.261207   7.656671  -0.493837   0.317477   0.362390  -0.344852
     3  C   -0.307704  -0.493837  15.865512  -7.875917  -2.493336   2.607045
     4  C    0.238648   0.317477  -7.875917  17.895652  -5.242113   1.835190
     5  C    0.045491   0.362390  -2.493336  -5.242113  25.412361 -13.830897
     6  C   -0.187718  -0.344852   2.607045   1.835190 -13.830897  20.523064
     7  S   -0.000899   0.008549   0.040324  -0.166877  -0.108549   0.236022
     8  C   -0.002480  -0.007786   0.023514   0.380227  -1.271841   0.514142
     9  C    0.019518   0.048957  -1.152388  -3.512169   7.858205  -4.808035
    10  C    0.035072   0.069349  -1.498773   2.700937  -3.514234  -1.271194
    11  S    0.019382  -0.022831   0.487459   0.246873  -1.434564   0.774749
    12  N   -0.273214  -0.595532   0.657035  -0.826891  -0.173514   0.569580
    13  C   -0.010302   0.244924  -0.368373   0.145486   0.222080  -0.216814
    14  C   -0.031857  -0.292915   0.179876  -0.168571  -0.246009   0.258343
    15  C    0.012262   0.071071  -0.102095   0.088046   0.067534  -0.126040
    16  N   -0.000550  -0.004596   0.008716  -0.007121  -0.004429   0.007479
    17  H    0.419581   0.014147   0.003027   0.003989  -0.002380   0.000301
    18  H    0.399506  -0.146608   0.158608  -0.132503   0.007711   0.004948
    19  H    0.416063  -0.040719  -0.082364   0.068261   0.000624  -0.016230
    20  H   -0.013064  -0.095142   0.555577  -0.258758   0.083405   0.020718
    21  H    0.007095  -0.094459   0.876355  -0.406461  -0.067201   0.024653
    22  H    0.001982  -0.002593  -0.136022   0.133261   0.231001   0.000443
    23  H   -0.000001  -0.000001   0.000177   0.008234  -0.030917  -0.006870
    24  H   -0.000001  -0.000001  -0.000249  -0.004716  -0.030263   0.008773
    25  H    0.002118  -0.028487  -0.033656  -0.015967   0.059630  -0.020718
    26  H    0.001293   0.013238  -0.011923   0.009841   0.000827  -0.002746
    27  H   -0.000041  -0.021789  -0.000928  -0.001797   0.001007   0.000155
               7          8          9         10         11         12
     1  C   -0.000899  -0.002480   0.019518   0.035072   0.019382  -0.273214
     2  N    0.008549  -0.007786   0.048957   0.069349  -0.022831  -0.595532
     3  C    0.040324   0.023514  -1.152388  -1.498773   0.487459   0.657035
     4  C   -0.166877   0.380227  -3.512169   2.700937   0.246873  -0.826891
     5  C   -0.108549  -1.271841   7.858205  -3.514234  -1.434564  -0.173514
     6  C    0.236022   0.514142  -4.808035  -1.271194   0.774749   0.569580
     7  S   15.980902   0.201884   0.072695  -0.526570   0.188527   0.003262
     8  C    0.201884   5.835072  -1.370979   1.425510  -0.008226   0.004745
     9  C    0.072695  -1.370979  20.808202 -11.524613  -0.069968  -0.048513
    10  C   -0.526570   1.425510 -11.524613  20.529053  -0.891655  -0.149188
    11  S    0.188527  -0.008226  -0.069968  -0.891655  16.675211  -0.038996
    12  N    0.003262   0.004745  -0.048513  -0.149188  -0.038996   7.572248
    13  C   -0.006249  -0.000727   0.025196   0.141137  -0.051969   0.350430
    14  C   -0.001213   0.007028  -0.042131  -0.010321  -0.020564   0.084472
    15  C   -0.004203  -0.001063   0.018065   0.029016  -0.006211  -0.016002
    16  N   -0.000456   0.000117  -0.001362  -0.002302  -0.000941  -0.002529
    17  H   -0.000086   0.000001   0.000022   0.000732   0.000581  -0.067535
    18  H    0.000078  -0.000001  -0.000143  -0.003484  -0.000398   0.055390
    19  H   -0.000130  -0.000025   0.000223   0.002744  -0.000292   0.005630
    20  H    0.001239  -0.000301  -0.001972  -0.014015  -0.025257   0.043473
    21  H    0.000073  -0.000064  -0.006845  -0.047202   0.033847   0.006282
    22  H   -0.004109   0.000804   0.009927   0.032217   0.009239   0.009858
    23  H   -0.017525   0.378532  -0.106906   0.108604  -0.004031   0.000000
    24  H    0.016924   0.007728   0.254535   0.044678   0.010346  -0.000001
    25  H    0.000297  -0.000353   0.006930   0.013922   0.004754  -0.016193
    26  H   -0.000050  -0.000002   0.000134   0.001434   0.000101  -0.003205
    27  H   -0.000011   0.000001  -0.000003  -0.000049  -0.000101  -0.003348
              13         14         15         16         17         18
     1  C   -0.010302  -0.031857   0.012262  -0.000550   0.419581   0.399506
     2  N    0.244924  -0.292915   0.071071  -0.004596   0.014147  -0.146608
     3  C   -0.368373   0.179876  -0.102095   0.008716   0.003027   0.158608
     4  C    0.145486  -0.168571   0.088046  -0.007121   0.003989  -0.132503
     5  C    0.222080  -0.246009   0.067534  -0.004429  -0.002380   0.007711
     6  C   -0.216814   0.258343  -0.126040   0.007479   0.000301   0.004948
     7  S   -0.006249  -0.001213  -0.004203  -0.000456  -0.000086   0.000078
     8  C   -0.000727   0.007028  -0.001063   0.000117   0.000001  -0.000001
     9  C    0.025196  -0.042131   0.018065  -0.001362   0.000022  -0.000143
    10  C    0.141137  -0.010321   0.029016  -0.002302   0.000732  -0.003484
    11  S   -0.051969  -0.020564  -0.006211  -0.000941   0.000581  -0.000398
    12  N    0.350430   0.084472  -0.016002  -0.002529  -0.067535   0.055390
    13  C    6.231002  -0.651116  -0.377753   0.008145  -0.001440  -0.005357
    14  C   -0.651116   6.483166   0.052310  -0.026137  -0.004712   0.001373
    15  C   -0.377753   0.052310   5.800458   0.411882   0.000882  -0.000958
    16  N    0.008145  -0.026137   0.411882   7.111778  -0.000010   0.000004
    17  H   -0.001440  -0.004712   0.000882  -0.000010   0.512770  -0.029969
    18  H   -0.005357   0.001373  -0.000958   0.000004  -0.029969   0.593625
    19  H    0.000532  -0.000845   0.000219  -0.000001  -0.018879  -0.042165
    20  H    0.019704  -0.009696  -0.003521   0.000050  -0.000301   0.002206
    21  H   -0.012124   0.000412  -0.000383   0.000003   0.000492   0.000106
    22  H    0.014826   0.000834   0.002212  -0.000038  -0.000003  -0.000006
    23  H   -0.000001   0.000002  -0.000003   0.000000   0.000000   0.000000
    24  H   -0.000030  -0.000002  -0.000003   0.000000   0.000000  -0.000000
    25  H    0.389340  -0.089160  -0.003459   0.000143   0.000006   0.000000
    26  H   -0.050661   0.403859  -0.049809  -0.004989   0.000002  -0.000005
    27  H   -0.048204   0.478804  -0.078222   0.000852  -0.000003   0.000004
              19         20         21         22         23         24
     1  C    0.416063  -0.013064   0.007095   0.001982  -0.000001  -0.000001
     2  N   -0.040719  -0.095142  -0.094459  -0.002593  -0.000001  -0.000001
     3  C   -0.082364   0.555577   0.876355  -0.136022   0.000177  -0.000249
     4  C    0.068261  -0.258758  -0.406461   0.133261   0.008234  -0.004716
     5  C    0.000624   0.083405  -0.067201   0.231001  -0.030917  -0.030263
     6  C   -0.016230   0.020718   0.024653   0.000443  -0.006870   0.008773
     7  S   -0.000130   0.001239   0.000073  -0.004109  -0.017525   0.016924
     8  C   -0.000025  -0.000301  -0.000064   0.000804   0.378532   0.007728
     9  C    0.000223  -0.001972  -0.006845   0.009927  -0.106906   0.254535
    10  C    0.002744  -0.014015  -0.047202   0.032217   0.108604   0.044678
    11  S   -0.000292  -0.025257   0.033847   0.009239  -0.004031   0.010346
    12  N    0.005630   0.043473   0.006282   0.009858   0.000000  -0.000001
    13  C    0.000532   0.019704  -0.012124   0.014826  -0.000001  -0.000030
    14  C   -0.000845  -0.009696   0.000412   0.000834   0.000002  -0.000002
    15  C    0.000219  -0.003521  -0.000383   0.002212  -0.000003  -0.000003
    16  N   -0.000001   0.000050   0.000003  -0.000038   0.000000   0.000000
    17  H   -0.018879  -0.000301   0.000492  -0.000003   0.000000   0.000000
    18  H   -0.042165   0.002206   0.000106  -0.000006   0.000000  -0.000000
    19  H    0.555083  -0.000222  -0.000147  -0.000057   0.000000  -0.000000
    20  H   -0.000222   0.574673  -0.033195  -0.000004   0.000000  -0.000000
    21  H   -0.000147  -0.033195   0.550148   0.000027   0.000000   0.000000
    22  H   -0.000057  -0.000004   0.000027   0.551468  -0.000000   0.000001
    23  H    0.000000   0.000000   0.000000  -0.000000   0.508067  -0.002962
    24  H   -0.000000  -0.000000   0.000000   0.000001  -0.002962   0.554114
    25  H    0.000017   0.000903  -0.000012  -0.000158  -0.000000  -0.000000
    26  H    0.000000  -0.000088  -0.000001   0.000000  -0.000000  -0.000000
    27  H    0.000000   0.000002   0.000000   0.000001  -0.000000  -0.000000
              25         26         27
     1  C    0.002118   0.001293  -0.000041
     2  N   -0.028487   0.013238  -0.021789
     3  C   -0.033656  -0.011923  -0.000928
     4  C   -0.015967   0.009841  -0.001797
     5  C    0.059630   0.000827   0.001007
     6  C   -0.020718  -0.002746   0.000155
     7  S    0.000297  -0.000050  -0.000011
     8  C   -0.000353  -0.000002   0.000001
     9  C    0.006930   0.000134  -0.000003
    10  C    0.013922   0.001434  -0.000049
    11  S    0.004754   0.000101  -0.000101
    12  N   -0.016193  -0.003205  -0.003348
    13  C    0.389340  -0.050661  -0.048204
    14  C   -0.089160   0.403859   0.478804
    15  C   -0.003459  -0.049809  -0.078222
    16  N    0.000143  -0.004989   0.000852
    17  H    0.000006   0.000002  -0.000003
    18  H    0.000000  -0.000005   0.000004
    19  H    0.000017   0.000000   0.000000
    20  H    0.000903  -0.000088   0.000002
    21  H   -0.000012  -0.000001   0.000000
    22  H   -0.000158   0.000000   0.000001
    23  H   -0.000000  -0.000000  -0.000000
    24  H   -0.000000  -0.000000  -0.000000
    25  H    0.578271  -0.000442   0.003257
    26  H   -0.000442   0.525449  -0.024469
    27  H    0.003257  -0.024469   0.490451
 Mulliken charges:
               1
     1  C   -0.255346
     2  N    0.124167
     3  C   -0.905661
     4  C    0.547739
     5  C    0.097980
     6  C   -0.553490
     7  S    0.086150
     8  C   -0.115457
     9  C   -0.476581
    10  C    0.319194
    11  S    0.124936
    12  N   -0.147746
    13  C    0.008317
    14  C   -0.355232
    15  C    0.215766
    16  N   -0.493709
    17  H    0.168786
    18  H    0.138040
    19  H    0.152683
    20  H    0.153586
    21  H    0.168602
    22  H    0.144890
    23  H    0.165598
    24  H    0.141129
    25  H    0.149014
    26  H    0.192213
    27  H    0.204432
 Sum of Mulliken charges =  -0.00000
 Mulliken charges with hydrogens summed into heavy atoms:
               1
     1  C    0.204162
     2  N    0.124167
     3  C   -0.583473
     4  C    0.547739
     5  C    0.242870
     6  C   -0.553490
     7  S    0.086150
     8  C    0.050140
     9  C   -0.335451
    10  C    0.319194
    11  S    0.124936
    12  N   -0.147746
    13  C    0.157331
    14  C    0.041413
    15  C    0.215766
    16  N   -0.493709
 Electronic spatial extent (au):  <R**2>=           5222.0070
 Charge=             -0.0000 electrons
 Dipole moment (field-independent basis, Debye):
    X=             -0.5192    Y=             -4.9083    Z=             -1.0812  Tot=              5.0527
 Quadrupole moment (field-independent basis, Debye-Ang):
   XX=            -95.3967   YY=           -124.4534   ZZ=           -105.6076
   XY=             12.2623   XZ=              0.6604   YZ=             -1.9659
 Traceless Quadrupole moment (field-independent basis, Debye-Ang):
   XX=             13.0892   YY=            -15.9675   ZZ=              2.8783
   XY=             12.2623   XZ=              0.6604   YZ=             -1.9659
 Octapole moment (field-independent basis, Debye-Ang**2):
  XXX=              9.7481  YYY=           -124.7122  ZZZ=              2.3292  XYY=             19.2978
  XXY=             15.0625  XXZ=            -23.7465  XZZ=             -7.4180  YZZ=             -3.6875
  YYZ=              6.7664  XYZ=             12.2504
 Hexadecapole moment (field-independent basis, Debye-Ang**3):
 XXXX=          -4220.7100 YYYY=          -2332.0102 ZZZZ=           -752.4650 XXXY=             89.9966
 XXXZ=            -12.4281 YYYX=            277.0063 YYYZ=            -11.0794 ZZZX=            -21.9145
 ZZZY=             -8.1058 XXYY=          -1123.2321 XXZZ=           -853.9118 YYZZ=           -440.9396
 XXYZ=            -16.4777 YYXZ=              0.8157 ZZXY=             10.5567
 N-N= 1.223544767616D+03 E-N=-5.706115224495D+03  KE= 1.377958690058D+03
 Unable to Open any file for archive entry.
 1\1\GINC-N1\SP\RB3LYP TD-FC\6-31+G(d,p)\C11H11N3S2\HPCMGAC13\29-Jul-20
 25\0\\# td=(50-50,nstates=3) b3lyp/6-31+g(d,p) geom=connectivity\\Titl
 e Card Required\\0,1\C,0,-2.86721,-2.594268,1.348645\N,0,-2.179967,-1.
 520555,0.63496\C,0,-1.203445,-1.923011,-0.374609\C,0,0.109933,-1.18552
 7,-0.257408\C,0,0.594361,-0.48877,0.816677\C,0,1.900488,0.028672,0.563
 033\S,0,3.046608,0.980307,1.46802\C,0,4.174787,0.940308,0.131283\C,0,3
 .706873,0.242857,-0.950844\C,0,2.403551,-0.276754,-0.697148\S,0,1.2476
 35,-1.218867,-1.607592\N,0,-2.976917,-0.440669,0.427119\C,0,-2.689092,
 0.456891,-0.444591\C,0,-3.630996,1.632011,-0.588032\C,0,-2.971829,2.92
 1684,-0.334664\N,0,-2.441898,3.937229,-0.142792\H,0,-3.495919,-2.14470
 7,2.11771\H,0,-3.502087,-3.20155,0.68439\H,0,-2.128396,-3.243101,1.826
 405\H,0,-1.630645,-1.785874,-1.383496\H,0,-1.033516,-2.998663,-0.25306
 5\H,0,0.027653,-0.351625,1.729326\H,0,5.126521,1.444665,0.228948\H,0,4
 .265001,0.114175,-1.870151\H,0,-1.794345,0.448379,-1.068457\H,0,-4.053
 32,1.669003,-1.601446\H,0,-4.461878,1.509664,0.113925\\Version=ES64L-G
 16RevC.02\State=1-A\HF=-1386.3807437\RMSD=6.145e-09\PG=C01 [X(C11H11N3
 S2)]\\@
 The archive entry for this job was punched.


 THEREFORE SHALL EVIL COME UPON THEE...
 THOU SHALT NOT KNOW FROM WHENCE IT RISETH...
 AND MISCHIEF SHALL FALL UPON THEE...
 THOU SHALT NOT BE ABLE TO PUT IT OFF...
 AND DESOLATION SHALL COME UPON THEE SUDDENLY...
 WHICH THOU SHALT NOT KNOW...

                                         ISAIAH 47.11
 Job cpu time:       0 days  0 hours 50 minutes 51.3 seconds.
 Elapsed time:       0 days  0 hours  3 minutes 17.3 seconds.
 File lengths (MBytes):  RWF=    777 Int=      0 D2E=      0 Chk=     36 Scr=      2
 Normal termination of Gaussian 16 at Tue Jul 29 17:46:10 2025.
