 Entering Gaussian System, Link 0=g16
 Input=M2753e.gjf
 Output=M2753e.log
 Initial command:
 /hpc/softwares/Gaussian/g16/l1.exe "/hpc/home/hpcmgac13/pbs.12375.admin1.x8z/Gau-1726376.inp" -scrdir="/hpc/home/hpcmgac13/pbs.12375.admin1.x8z/"
 Default linda workers: n1
 Default is to use  16 SMP processors on each worker.
 Entering Link 1 = /hpc/softwares/Gaussian/g16/l1.exe PID=   1726377.
  
 Copyright (c) 1988-2021, Gaussian, Inc.  All Rights Reserved.
  
 This is part of the Gaussian(R) 16 program.  It is based on
 the Gaussian(R) 09 system (copyright 2009, Gaussian, Inc.),
 the Gaussian(R) 03 system (copyright 2003, Gaussian, Inc.),
 the Gaussian(R) 98 system (copyright 1998, Gaussian, Inc.),
 the Gaussian(R) 94 system (copyright 1995, Gaussian, Inc.),
 the Gaussian 92(TM) system (copyright 1992, Gaussian, Inc.),
 the Gaussian 90(TM) system (copyright 1990, Gaussian, Inc.),
 the Gaussian 88(TM) system (copyright 1988, Gaussian, Inc.),
 the Gaussian 86(TM) system (copyright 1986, Carnegie Mellon
 University), and the Gaussian 82(TM) system (copyright 1983,
 Carnegie Mellon University). Gaussian is a federally registered
 trademark of Gaussian, Inc.
  
 This software contains proprietary and confidential information,
 including trade secrets, belonging to Gaussian, Inc.
  
 This software is provided under written license and may be
 used, copied, transmitted, or stored only in accord with that
 written license.
  
 The following legend is applicable only to US Government
 contracts under FAR:
  
                    RESTRICTED RIGHTS LEGEND
  
 Use, reproduction and disclosure by the US Government is
 subject to restrictions as set forth in subparagraphs (a)
 and (c) of the Commercial Computer Software - Restricted
 Rights clause in FAR 52.227-19.
  
 Gaussian, Inc.
 340 Quinnipiac St., Bldg. 40, Wallingford CT 06492
  
  
 ---------------------------------------------------------------
 Warning -- This program may not be used in any manner that
 competes with the business of Gaussian, Inc. or will provide
 assistance to any competitor of Gaussian, Inc.  The licensee
 of this program is prohibited from giving any competitor of
 Gaussian, Inc. access to this program.  By using this program,
 the user acknowledges that Gaussian, Inc. is engaged in the
 business of creating and licensing software in the field of
 computational chemistry and represents and warrants to the
 licensee that it is not a competitor of Gaussian, Inc. and that
 it will not use this program in any manner prohibited above.
 ---------------------------------------------------------------
  

 Cite this work as:
 Gaussian 16, Revision C.02,
 M. J. Frisch, G. W. Trucks, H. B. Schlegel, G. E. Scuseria, 
 M. A. Robb, J. R. Cheeseman, G. Scalmani, V. Barone, 
 G. A. Petersson, H. Nakatsuji, X. Li, M. Caricato, A. V. Marenich, 
 J. Bloino, B. G. Janesko, R. Gomperts, B. Mennucci, H. P. Hratchian, 
 J. V. Ortiz, A. F. Izmaylov, J. L. Sonnenberg, D. Williams-Young, 
 F. Ding, F. Lipparini, F. Egidi, J. Goings, B. Peng, A. Petrone, 
 T. Henderson, D. Ranasinghe, V. G. Zakrzewski, J. Gao, N. Rega, 
 G. Zheng, W. Liang, M. Hada, M. Ehara, K. Toyota, R. Fukuda, 
 J. Hasegawa, M. Ishida, T. Nakajima, Y. Honda, O. Kitao, H. Nakai, 
 T. Vreven, K. Throssell, J. A. Montgomery, Jr., J. E. Peralta, 
 F. Ogliaro, M. J. Bearpark, J. J. Heyd, E. N. Brothers, K. N. Kudin, 
 V. N. Staroverov, T. A. Keith, R. Kobayashi, J. Normand, 
 K. Raghavachari, A. P. Rendell, J. C. Burant, S. S. Iyengar, 
 J. Tomasi, M. Cossi, J. M. Millam, M. Klene, C. Adamo, R. Cammi, 
 J. W. Ochterski, R. L. Martin, K. Morokuma, O. Farkas, 
 J. B. Foresman, and D. J. Fox, Gaussian, Inc., Wallingford CT, 2019.
 
 ******************************************
 Gaussian 16:  ES64L-G16RevC.02  7-Dec-2021
                29-Jul-2025 
 ******************************************
 SetLPE:    new flags="-opt 'Tsnet.Node.lindarsharg: ssh'  -nodelist 'n1' -env GAUSS_MDEF=2147483648 -env GAUSS_EXEDIR="/hpc/softwares/Gaussian/g16/bsd:/hpc/softwares/Gaussian/g16""
 Will use up to    1 processors via Linda.
 ----------------------------------------------------------
 # td=(50-50,nstates=3) b3lyp/6-31+g(d,p) geom=connectivity
 ----------------------------------------------------------
 1/38=1,57=2,172=1/1;
 2/12=2,17=6,18=5,40=1/2;
 3/5=1,6=6,7=111,11=9,25=1,30=1,74=-5/1,2,3,8;
 4//1;
 5/5=2,38=5/2;
 8/6=1,10=2,108=3/1;
 9/41=3,42=1,48=2,70=2/14;
 6/7=2,8=2,9=2,10=2/1;
 99/5=1,9=1/99;
 -------------------
 Title Card Required
 -------------------
 Symbolic Z-matrix:
 Charge =  0 Multiplicity = 1
 C                    -4.0527    0.01152   0.28825 
 C                    -2.93659   0.76106   0.2219 
 C                    -2.93077   2.09132   0.77865 
 N                    -2.92219   3.15844   1.24102 
 C                    -1.67793   0.30306  -0.39629 
 C                    -0.9414   -0.80984  -0.22753 
 C                    -1.22996  -1.98601   0.67468 
 C                    -1.42077  -3.28309  -0.13984 
 C                    -0.161    -2.18214   1.77046 
 C                     0.24593  -0.69318  -1.16947 
 C                     1.6376   -0.73937  -0.52351 
 O                     2.42864  -1.64059  -0.70514 
 O                     1.8379    0.33243   0.25197 
 C                     3.1478    0.4873    0.90444 
 C                     4.11789   1.13199  -0.07829 
 C                     2.89218   1.32036   2.15115 
 C                     0.00774   0.66406  -1.84604 
 O                     0.65434   1.20987  -2.69576 
 O                    -1.14201   1.209    -1.3208 
 H                    -4.08739  -0.97481  -0.16025 
 H                    -4.9453    0.37868   0.78259 
 H                    -2.17546  -1.76796   1.1834 
 H                    -1.70396  -4.10707   0.52343 
 H                    -2.20379  -3.1726   -0.89774 
 H                    -0.49427  -3.57255  -0.6478 
 H                    -0.48138  -2.97202   2.45806 
 H                    -0.01395  -1.26639   2.35077 
 H                     0.80187  -2.48617   1.34918 
 H                     0.24439  -1.47446  -1.93697 
 H                     3.49079  -0.51697   1.16857 
 H                     5.09369   1.26198   0.40155 
 H                     4.25469   0.50602  -0.96347 
 H                     3.75237   2.11471  -0.39237 
 H                     3.82968   1.45935   2.69887 
 H                     2.17655   0.8269    2.81504 
 H                     2.49778   2.30648   1.88653 
 
                          Input orientation:                          
 ---------------------------------------------------------------------
 Center     Atomic      Atomic             Coordinates (Angstroms)
 Number     Number       Type             X           Y           Z
 ---------------------------------------------------------------------
      1          6           0       -4.052696    0.011515    0.288250
      2          6           0       -2.936594    0.761055    0.221900
      3          6           0       -2.930770    2.091321    0.778647
      4          7           0       -2.922193    3.158445    1.241024
      5          6           0       -1.677933    0.303064   -0.396291
      6          6           0       -0.941397   -0.809836   -0.227532
      7          6           0       -1.229963   -1.986011    0.674678
      8          6           0       -1.420773   -3.283087   -0.139843
      9          6           0       -0.160995   -2.182144    1.770463
     10          6           0        0.245931   -0.693180   -1.169470
     11          6           0        1.637602   -0.739366   -0.523513
     12          8           0        2.428635   -1.640594   -0.705140
     13          8           0        1.837896    0.332425    0.251969
     14          6           0        3.147803    0.487297    0.904439
     15          6           0        4.117890    1.131989   -0.078290
     16          6           0        2.892180    1.320359    2.151147
     17          6           0        0.007736    0.664060   -1.846039
     18          8           0        0.654343    1.209865   -2.695762
     19          8           0       -1.142012    1.208997   -1.320797
     20          1           0       -4.087391   -0.974811   -0.160245
     21          1           0       -4.945300    0.378677    0.782591
     22          1           0       -2.175461   -1.767958    1.183399
     23          1           0       -1.703958   -4.107070    0.523426
     24          1           0       -2.203788   -3.172602   -0.897739
     25          1           0       -0.494272   -3.572548   -0.647798
     26          1           0       -0.481377   -2.972021    2.458062
     27          1           0       -0.013945   -1.266388    2.350771
     28          1           0        0.801871   -2.486168    1.349183
     29          1           0        0.244388   -1.474456   -1.936966
     30          1           0        3.490786   -0.516971    1.168573
     31          1           0        5.093693    1.261977    0.401545
     32          1           0        4.254686    0.506020   -0.963473
     33          1           0        3.752367    2.114714   -0.392370
     34          1           0        3.829681    1.459352    2.698866
     35          1           0        2.176554    0.826896    2.815039
     36          1           0        2.497784    2.306483    1.886525
 ---------------------------------------------------------------------
                    Distance matrix (angstroms):
                    1          2          3          4          5
     1  C    0.000000
     2  C    1.346067   0.000000
     3  C    2.413462   1.442085   0.000000
     4  N    3.476922   2.605053   1.163022   0.000000
     5  C    2.488593   1.475176   2.479505   3.518833   0.000000
     6  C    3.258961   2.578856   3.658786   4.671987   1.345181
     7  C    3.479549   3.265573   4.419071   5.445165   2.566616
     8  C    4.238477   4.334012   5.657559   6.756803   3.604494
     9  C    4.706849   4.331791   5.188242   6.035430   3.629350
    10  C    4.593445   3.765525   4.651885   5.539179   2.300339
    11  C    5.796747   4.871363   5.529777   6.252859   3.477876
    12  O    6.761948   5.950883   6.697166   7.446455   4.553800
    13  O    5.899438   4.793786   5.109920   5.623439   3.575214
    14  C    7.242461   6.128678   6.287906   6.640269   5.001357
    15  C    8.255198   7.070605   7.165073   7.443781   5.863430
    16  C    7.308540   6.165178   6.031989   6.165535   5.330128
    17  C    4.633369   3.599286   4.190569   4.933194   2.252458
    18  O    5.700578   4.648549   5.069666   5.664526   3.398436
    19  O    3.534838   2.408545   2.895827   3.678630   1.400942
    20  H    1.084062   2.117451   3.408879   4.517195   2.737548
    21  H    1.084400   2.120256   2.644144   3.468463   3.474359
    22  H    2.737120   2.810642   3.953271   4.983009   2.651808
    23  H    4.747064   5.030800   6.323785   7.401807   4.505090
    24  H    3.868285   4.155027   5.572043   6.721054   3.550807
    25  H    5.136543   5.049894   6.328561   7.400589   4.060133
    26  H    5.134578   4.996435   5.870042   6.709797   4.506136
    27  H    4.711533   4.145418   4.717378   5.410045   3.574687
    28  H    5.561548   5.078518   5.933930   6.763284   4.120185
    29  H    5.062077   4.447118   5.492809   6.449080   3.037857
    30  H    7.613041   6.621235   6.942018   7.391903   5.462318
    31  H    9.232168   8.047901   8.076015   8.279840   6.885563
    32  H    8.415696   7.292781   7.561676   7.962585   5.963125
    33  H    8.112071   6.852147   6.784994   6.950331   5.724530
    34  H    8.368941   7.239161   7.056226   7.113369   6.422679
    35  H    6.771489   5.733497   5.641846   5.823304   5.044216
    36  H    7.122510   5.889974   5.544627   5.524370   5.163482
                    6          7          8          9         10
     6  C    0.000000
     7  C    1.510179   0.000000
     8  C    2.520806   1.543457   0.000000
     9  C    2.546417   1.543342   2.539367   0.000000
    10  C    1.520067   2.692686   3.247407   3.320513   0.000000
    11  C    2.596884   3.348539   3.996421   3.252520   1.534973
    12  O    3.503624   3.925373   4.223184   3.623268   2.424333
    13  O    3.042885   3.868538   4.883069   3.553090   2.367849
    14  C    4.436831   5.033376   6.014832   4.338670   3.757058
    15  C    5.421194   6.236058   7.083324   5.719285   4.417463
    16  C    4.989204   5.486721   6.711327   4.662009   4.699305
    17  C    2.385956   3.861190   4.531193   4.605262   1.535117
    18  O    3.566194   5.012394   5.570049   5.667245   2.473449
    19  O    2.304596   3.767988   4.653083   4.692347   2.359568
    20  H    3.151035   3.143965   3.526954   4.538928   4.458198
    21  H    4.296993   4.405352   5.165432   5.515729   5.648743
    22  H    2.105146   1.095587   2.148520   2.138754   3.543202
    23  H    3.466582   2.178633   1.095019   2.764268   4.280492
    24  H    2.761426   2.197460   1.095320   3.503329   3.496068
    25  H    2.830039   2.192552   1.095541   2.809321   3.018411
    26  H    3.478373   2.170957   2.779989   1.095145   4.345237
    27  H    2.777814   2.192224   3.499914   1.094070   3.576059
    28  H    2.887058   2.198514   2.791491   1.094083   3.141256
    29  H    2.184026   3.042381   3.045252   3.796075   1.095192
    30  H    4.656085   4.968650   5.786775   4.058396   4.003321
    31  H    6.411744   7.114257   7.961719   6.430214   5.458161
    32  H    5.410394   6.243007   6.873611   5.847980   4.189347
    33  H    5.532774   6.540501   7.480735   6.201229   4.558865
    34  H    6.039553   6.447314   7.623402   5.481598   5.695672
    35  H    4.653789   4.908966   6.209996   3.950898   4.681266
    36  H    5.099867   5.812932   7.120713   5.218271   4.838174
                   11         12         13         14         15
    11  C    0.000000
    12  O    1.212820   0.000000
    13  O    1.337993   2.271087   0.000000
    14  C    2.413391   2.763307   1.471584   0.000000
    15  C    3.138793   3.306621   2.438595   1.523960   0.000000
    16  C    3.601422   4.140108   2.386295   1.521058   2.551125
    17  C    2.524905   3.531831   2.803766   4.178085   4.498584
    18  O    3.079767   3.903307   3.295424   4.438569   4.342048
    19  O    3.486837   4.609634   3.481641   4.886209   5.405213
    20  H    5.741336   6.572577   6.081761   7.457838   8.471833
    21  H    6.803714   7.788820   6.804076   8.094749   9.135098
    22  H    4.302441   4.978002   4.624522   5.788016   7.043282
    23  H    4.858347   4.967011   5.685731   6.692755   7.855171
    24  H    4.562561   4.882979   5.471951   6.729207   7.691854
    25  H    3.547852   3.504157   4.636529   5.670669   6.612794
    26  H    4.285395   4.499635   4.600569   5.248959   6.665526
    27  H    3.356616   3.929990   3.223428   3.894090   5.359534
    28  H    2.693836   2.753470   3.197138   3.813488   5.111235
    29  H    2.116424   2.513152   3.255077   4.511305   5.025162
    30  H    2.519307   2.429299   2.072120   1.093599   2.160323
    31  H    4.099472   4.092946   3.389197   2.153954   1.095139
    32  H    2.931498   2.830044   2.710776   2.171321   1.092748
    33  H    3.554603   3.994049   2.693868   2.166956   1.094533
    34  H    4.474740   4.812468   3.350295   2.151701   2.811197
    35  H    3.726872   4.306241   2.632208   2.170033   3.497602
    36  H    3.978114   4.722386   2.646532   2.167131   2.804403
                   16         17         18         19         20
    16  C    0.000000
    17  C    4.972750   0.000000
    18  O    5.339724   1.199180   0.000000
    19  O    5.323674   1.376501   2.262172   0.000000
    20  H    7.702256   4.722061   5.803938   3.845927   0.000000
    21  H    8.011604   5.614597   6.644232   4.424779   1.859268
    22  H    6.012921   4.456294   5.650054   4.025081   2.467780
    23  H    7.295954   5.595350   6.647898   5.654866   3.994897
    24  H    7.446563   4.528806   5.532433   4.528218   2.986996
    25  H    6.575917   4.431325   5.327753   4.871926   4.460544
    26  H    5.468054   5.655581   6.733493   5.674251   4.883412
    27  H    3.895725   4.619558   5.660913   4.569516   4.794078
    28  H    4.416128   4.556757   5.481241   4.955978   5.335490
    29  H    5.615555   2.153491   2.819470   3.082643   4.708576
    30  H    2.167847   4.755456   5.095140   5.535228   7.707408
    31  H    2.812681   5.592504   5.413303   6.469412   9.466316
    32  H    3.495773   4.340563   4.056931   5.454008   8.510481
    33  H    2.800071   4.270809   3.965113   5.063324   8.429760
    34  H    1.094634   5.991320   6.264745   6.398289   8.762402
    35  H    1.093791   5.143533   5.729984   5.316392   7.164878
    36  H    1.094538   4.778067   5.059466   4.973882   7.636798
                   21         22         23         24         25
    21  H    0.000000
    22  H    3.527137   0.000000
    23  H    5.540342   2.475747   0.000000
    24  H    4.790718   2.510968   1.772786   0.000000
    25  H    6.121261   3.071844   1.766584   1.773379   0.000000
    26  H    5.827606   2.438125   2.554576   3.777345   3.163410
    27  H    5.429889   2.507286   3.776878   4.356820   3.813201
    28  H    6.446576   3.067216   3.096510   3.814949   2.616895
    29  H    6.145157   3.959607   4.096369   3.155512   2.570907
    30  H    8.492274   5.802719   6.347471   6.614393   5.340079
    31  H   10.084979   7.914064   8.663116   8.637526   7.463183
    32  H    9.365079   7.150302   7.680944   7.432931   6.267932
    33  H    8.946718   7.259293   8.325909   7.980407   7.102403
    34  H    9.046561   6.983831   8.144861   8.413876   7.430797
    35  H    7.419741   5.323115   6.682356   6.997721   6.203197
    36  H    7.767535   6.239766   7.787576   7.738041   7.066696
                   26         27         28         29         30
    26  H    0.000000
    27  H    1.771775   0.000000
    28  H    1.764197   1.776682   0.000000
    29  H    4.699543   4.300548   3.483263   0.000000
    30  H    4.844392   3.773905   3.337757   4.593501   0.000000
    31  H    7.296397   6.023295   5.776361   6.039243   2.514418
    32  H    6.799556   5.687429   5.120888   4.577386   2.485090
    33  H    7.205860   5.756890   5.736423   5.251079   3.070950
    34  H    6.187105   4.724859   5.153291   6.553815   2.522399
    35  H    4.650140   3.065235   3.874904   5.622369   2.498807
    36  H    6.088075   4.392006   5.112178   5.830298   3.077889
                   31         32         33         34         35
    31  H    0.000000
    32  H    1.771631   0.000000
    33  H    1.776687   1.779432   0.000000
    34  H    2.629518   3.808175   3.160889   0.000000
    35  H    3.811030   4.324205   3.798570   1.773788   0.000000
    36  H    3.167791   3.801429   2.608470   1.775240   1.776093
                   36
    36  H    0.000000
 Stoichiometry    C14H17NO4
 Framework group  C1[X(C14H17NO4)]
 Deg. of freedom   102
 Full point group                 C1      NOp   1
 Largest Abelian subgroup         C1      NOp   1
 Largest concise Abelian subgroup C1      NOp   1
                         Standard orientation:                         
 ---------------------------------------------------------------------
 Center     Atomic      Atomic             Coordinates (Angstroms)
 Number     Number       Type             X           Y           Z
 ---------------------------------------------------------------------
      1          6           0       -4.052696   -0.011516   -0.288250
      2          6           0       -2.936594   -0.761055   -0.221900
      3          6           0       -2.930770   -2.091321   -0.778647
      4          7           0       -2.922192   -3.158445   -1.241024
      5          6           0       -1.677933   -0.303064    0.396291
      6          6           0       -0.941397    0.809836    0.227532
      7          6           0       -1.229963    1.986011   -0.674678
      8          6           0       -1.420773    3.283087    0.139843
      9          6           0       -0.160995    2.182144   -1.770463
     10          6           0        0.245931    0.693180    1.169470
     11          6           0        1.637602    0.739366    0.523513
     12          8           0        2.428635    1.640594    0.705140
     13          8           0        1.837896   -0.332425   -0.251969
     14          6           0        3.147803   -0.487297   -0.904439
     15          6           0        4.117890   -1.131988    0.078290
     16          6           0        2.892180   -1.320359   -2.151147
     17          6           0        0.007736   -0.664060    1.846039
     18          8           0        0.654343   -1.209865    2.695762
     19          8           0       -1.142012   -1.208997    1.320797
     20          1           0       -4.087391    0.974810    0.160245
     21          1           0       -4.945300   -0.378678   -0.782591
     22          1           0       -2.175461    1.767958   -1.183399
     23          1           0       -1.703959    4.107070   -0.523426
     24          1           0       -2.203788    3.172602    0.897739
     25          1           0       -0.494272    3.572548    0.647798
     26          1           0       -0.481377    2.972021   -2.458062
     27          1           0       -0.013945    1.266388   -2.350771
     28          1           0        0.801871    2.486168   -1.349183
     29          1           0        0.244388    1.474456    1.936966
     30          1           0        3.490786    0.516972   -1.168573
     31          1           0        5.093693   -1.261976   -0.401545
     32          1           0        4.254686   -0.506019    0.963473
     33          1           0        3.752367   -2.114713    0.392370
     34          1           0        3.829681   -1.459351   -2.698866
     35          1           0        2.176554   -0.826896   -2.815039
     36          1           0        2.497784   -2.306483   -1.886525
 ---------------------------------------------------------------------
 Rotational constants (GHZ):           0.4761515           0.2817101           0.2451374
 Standard basis: 6-31+G(d,p) (6D, 7F)
 There are   446 symmetry adapted cartesian basis functions of A   symmetry.
 There are   446 symmetry adapted basis functions of A   symmetry.
   446 basis functions,   727 primitive gaussians,   446 cartesian basis functions
    70 alpha electrons       70 beta electrons
       nuclear repulsion energy      1475.0738294087 Hartrees.
 NAtoms=   36 NActive=   36 NUniq=   36 SFac= 1.00D+00 NAtFMM=   60 NAOKFM=F Big=F
 Integral buffers will be    131072 words long.
 Regular integral format.
 Two-electron integral symmetry is turned on.
 One-electron integrals computed using PRISM.
 NBasis=   446 RedAO= T EigKep=  2.74D-06  NBF=   446
 NBsUse=   445 1.00D-06 EigRej=  7.78D-07 NBFU=   445
 ExpMin= 4.38D-02 ExpMax= 5.48D+03 ExpMxC= 8.25D+02 IAcc=3 IRadAn=         5 AccDes= 0.00D+00
 Harris functional with IExCor=  402 and IRadAn=       5 diagonalized for initial guess.
 HarFok:  IExCor=  402 AccDes= 0.00D+00 IRadAn=         5 IDoV= 1 UseB2=F ITyADJ=14
 ICtDFT=  3500011 ScaDFX=  1.000000  1.000000  1.000000  1.000000
 FoFCou: FMM=F IPFlag=           0 FMFlag=      100000 FMFlg1=           0
         NFxFlg=           0 DoJE=T BraDBF=F KetDBF=T FulRan=T
         wScrn=  0.000000 ICntrl=       500 IOpCl=  0 I1Cent=   200000004 NGrid=           0
         NMat0=    1 NMatS0=      1 NMatT0=    0 NMatD0=    1 NMtDS0=    0 NMtDT0=    0
 Petite list used in FoFCou.
 Requested convergence on RMS density matrix=1.00D-08 within 128 cycles.
 Requested convergence on MAX density matrix=1.00D-06.
 Requested convergence on             energy=1.00D-06.
 No special actions if energy rises.
 SCF Done:  E(RB3LYP) =  -899.403218650     A.U. after   16 cycles
            NFock= 16  Conv=0.44D-08     -V/T= 2.0094
 DoSCS=F DFT=T ScalE2(SS,OS)=  1.000000  1.000000
 ExpMin= 4.38D-02 ExpMax= 5.48D+03 ExpMxC= 8.25D+02 IAcc=3 IRadAn=         5 AccDes= 0.00D+00
 HarFok:  IExCor=  205 AccDes= 0.00D+00 IRadAn=         5 IDoV=-2 UseB2=F ITyADJ=14
 ICtDFT= 12500011 ScaDFX=  1.000000  1.000000  1.000000  1.000000
 Range of M.O.s used for correlation:    20   445
 NBasis=   446 NAE=    70 NBE=    70 NFC=    19 NFV=     0
 NROrb=    426 NOA=    51 NOB=    51 NVA=   375 NVB=   375

 **** Warning!!: The largest alpha MO coefficient is  0.11502578D+03

 Orbital symmetries:
       Occupied  (A) (A) (A) (A) (A) (A) (A) (A) (A) (A) (A) (A)
                 (A) (A) (A) (A) (A) (A) (A) (A) (A) (A) (A) (A)
                 (A) (A) (A) (A) (A) (A) (A) (A) (A) (A) (A) (A)
                 (A) (A) (A) (A) (A) (A) (A) (A) (A) (A) (A) (A)
                 (A) (A) (A) (A) (A) (A) (A) (A) (A) (A) (A) (A)
                 (A) (A) (A) (A) (A) (A) (A) (A) (A) (A)
       Virtual   (A) (A) (A) (A) (A) (A) (A) (A) (A) (A) (A) (A)
                 (A) (A) (A) (A) (A) (A) (A) (A) (A) (A) (A) (A)
                 (A) (A) (A) (A) (A) (A) (A) (A) (A) (A) (A) (A)
                 (A) (A) (A) (A) (A) (A) (A) (A) (A) (A) (A) (A)
                 (A) (A) (A) (A) (A) (A) (A) (A) (A) (A) (A) (A)
                 (A) (A) (A) (A) (A) (A) (A) (A) (A) (A) (A) (A)
                 (A) (A) (A) (A) (A) (A) (A) (A) (A) (A) (A) (A)
                 (A) (A) (A) (A) (A) (A) (A) (A) (A) (A) (A) (A)
                 (A) (A) (A) (A) (A) (A) (A) (A) (A) (A) (A) (A)
                 (A) (A) (A) (A) (A) (A) (A) (A) (A) (A) (A) (A)
                 (A) (A) (A) (A) (A) (A) (A) (A) (A) (A) (A) (A)
                 (A) (A) (A) (A) (A) (A) (A) (A) (A) (A) (A) (A)
                 (A) (A) (A) (A) (A) (A) (A) (A) (A) (A) (A) (A)
                 (A) (A) (A) (A) (A) (A) (A) (A) (A) (A) (A) (A)
                 (A) (A) (A) (A) (A) (A) (A) (A) (A) (A) (A) (A)
                 (A) (A) (A) (A) (A) (A) (A) (A) (A) (A) (A) (A)
                 (A) (A) (A) (A) (A) (A) (A) (A) (A) (A) (A) (A)
                 (A) (A) (A) (A) (A) (A) (A) (A) (A) (A) (A) (A)
                 (A) (A) (A) (A) (A) (A) (A) (A) (A) (A) (A) (A)
                 (A) (A) (A) (A) (A) (A) (A) (A) (A) (A) (A) (A)
                 (A) (A) (A) (A) (A) (A) (A) (A) (A) (A) (A) (A)
                 (A) (A) (A) (A) (A) (A) (A) (A) (A) (A) (A) (A)
                 (A) (A) (A) (A) (A) (A) (A) (A) (A) (A) (A) (A)
                 (A) (A) (A) (A) (A) (A) (A) (A) (A) (A) (A) (A)
                 (A) (A) (A) (A) (A) (A) (A) (A) (A) (A) (A) (A)
                 (A) (A) (A) (A) (A) (A) (A) (A) (A) (A) (A) (A)
                 (A) (A) (A) (A) (A) (A) (A) (A) (A) (A) (A) (A)
                 (A) (A) (A) (A) (A) (A) (A) (A) (A) (A) (A) (A)
                 (A) (A) (A) (A) (A) (A) (A) (A) (A) (A) (A) (A)
                 (A) (A) (A) (A) (A) (A) (A) (A) (A) (A) (A) (A)
                 (A) (A) (A) (A) (A) (A) (A) (A) (A) (A) (A) (A)
                 (A) (A) (A)
    24 initial guesses have been made.
 Convergence on wavefunction:    0.001000000000000
 Iteration     1 Dimension    24 NMult     0 NNew     24
 CISAX will form    24 AO SS matrices at one time.
 New state      1 was old state      2
 New state      2 was old state     10
 New state      3 was old state      1
 New state      4 was old state      6
 New state      5 was old state      4
 New state      6 was old state      3
 New state      7 was old state     12
 New state      9 was old state      7
 New state     10 was old state     11
 New state     11 was old state     18
 New state     12 was old state      5
 Vector   5 SDiff=8.76D+00 TDiff=9.92D+00 assumed to be singlet.
 Vector  11 SDiff=8.72D+00 TDiff=9.58D+00 assumed to be singlet.
 Iteration     2 Dimension    36 NMult    24 NNew     12
 New state      5 was old state      6
 New state      6 was old state      9
 Iteration     3 Dimension    48 NMult    36 NNew     12
 Iteration     4 Dimension    60 NMult    48 NNew     12
 Iteration     5 Dimension    72 NMult    60 NNew     12
 Iteration     6 Dimension    80 NMult    72 NNew      8
 Iteration     7 Dimension    84 NMult    80 NNew      4
 Iteration     8 Dimension    86 NMult    84 NNew      2
 Iteration     9 Dimension    88 NMult    86 NNew      2
 Convergence on energies, max DE= 7.85D-06.
 ***********************************************************************
 Excited states from <AA,BB:AA,BB> singles matrix:
 ***********************************************************************
 
 Ground to excited state transition densities written to RWF  633
 Ground to excited state transition electric dipole moments (Au):
       state          X           Y           Z        Dip. S.      Osc.
         1        -0.0000      0.0000      0.0000      0.0000      0.0000
         2        -0.0000     -0.0000     -0.0000      0.0000      0.0000
         3         0.8170      0.3699      0.0362      0.8055      0.0801
         4        -0.0000      0.0000      0.0000      0.0000      0.0000
         5         0.2081      0.0161      0.0824      0.0504      0.0061
         6         0.2329      0.4864     -0.3265      0.3974      0.0504
 Ground to excited state transition velocity dipole moments (Au):
       state          X           Y           Z        Dip. S.      Osc.
         1         0.0000     -0.0000      0.0000      0.0000      0.0000
         2         0.0000      0.0000     -0.0000      0.0000      0.0000
         3        -0.1191     -0.0572     -0.0040      0.0175      0.0781
         4         0.0000     -0.0000      0.0000      0.0000      0.0000
         5        -0.0358     -0.0038     -0.0157      0.0015      0.0056
         6        -0.0435     -0.0895      0.0602      0.0135      0.0474
 Ground to excited state transition magnetic dipole moments (Au):
       state          X           Y           Z
         1        -0.0000      0.0000      0.0000
         2        -0.0000     -0.0000     -0.0000
         3         0.0024     -0.0757      0.0260
         4        -0.0000     -0.0000     -0.0000
         5        -0.1895     -0.0096     -0.4096
         6        -0.1246      0.1281      0.5117
 Ground to excited state transition velocity quadrupole moments (Au):
       state          XX          YY          ZZ          XY          XZ          YZ
         1        -0.0000      0.0000      0.0000      0.0000      0.0000      0.0000
         2        -0.0000      0.0000      0.0000     -0.0000      0.0000     -0.0000
         3         0.8979     -0.2203     -0.0374      0.1231      0.1047     -0.0094
         4        -0.0000     -0.0000      0.0000     -0.0000      0.0000     -0.0000
         5         0.4763     -0.1243     -0.0746      0.0091     -0.0007     -0.0218
         6         0.0951     -0.2255      0.2622      0.0092      0.1503     -0.1987
 <0|del|b> * <b|rxdel|0> + <0|del|b> * <b|delr+rdel|0>
 Rotatory Strengths (R) in cgs (10**-40 erg-esu-cm/Gauss)
       state          XX          YY          ZZ    R(velocity)    E-M Angle
         1         0.0000     -0.0000     -0.0000     -0.0000       90.00
         2        -0.0000     -0.0000     -0.0000     -0.0000       90.00
         3        23.0549      2.9039     -7.2747      6.2280       68.16
         4        -0.0000      0.0000     -0.0000     -0.0000       90.00
         5        12.2465     27.3549     11.6804     17.0939       41.60
         6        62.0091     82.4107    -52.3405     30.6931       66.88
 1/2[<0|r|b>*<b|rxdel|0> + (<0|rxdel|b>*<b|r|0>)*]
 Rotatory Strengths (R) in cgs (10**-40 erg-esu-cm/Gauss)
       state          XX          YY          ZZ     R(length)
         1        -0.0000     -0.0000     -0.0000     -0.0000
         2        -0.0000     -0.0000     -0.0000     -0.0000
         3        -1.4072     19.8073     -0.6660      5.9114
         4        -0.0000      0.0000      0.0000     -0.0000
         5        27.8829      0.1097     23.8787     17.2904
         6        20.5187    -44.0568    118.1546     31.5388
  1/2[<0|del|b>*<b|r|0> + (<0|r|b>*<b|del|0>)*] (Au)
       state          X           Y           Z        Dip. S.   Osc.(frdel)
         1        -0.0000     -0.0000      0.0000      0.0000      0.0000
         2        -0.0000     -0.0000      0.0000      0.0000      0.0000
         3        -0.0973     -0.0212     -0.0001      0.1186      0.0791
         4        -0.0000     -0.0000      0.0000      0.0000      0.0000
         5        -0.0074     -0.0001     -0.0013      0.0088      0.0059
         6        -0.0101     -0.0435     -0.0197      0.0733      0.0489

 Excitation energies and oscillator strengths:
 
 Excited State   1:      Triplet-A      2.8072 eV  441.66 nm  f=0.0000  <S**2>=2.000
      67 -> 71        -0.28014
      69 -> 71         0.15596
      70 -> 71         0.59579
      70 -> 72         0.11647
 This state for optimization and/or second-order correction.
 Total Energy, E(TD-HF/TD-DFT) =  -899.300054220    
 Copying the excited state density for this state as the 1-particle RhoCI density.
 
 Excited State   2:      Triplet-A      3.6097 eV  343.47 nm  f=0.0000  <S**2>=2.000
      67 -> 71         0.47172
      68 -> 71        -0.13918
      69 -> 71        -0.20305
      70 -> 71         0.18495
      70 -> 72         0.34612
      70 -> 75        -0.10549
 
 Excited State   3:      Singlet-A      4.0573 eV  305.59 nm  f=0.0801  <S**2>=0.000
      70 -> 71         0.69216
 
 Excited State   4:      Triplet-A      4.4752 eV  277.05 nm  f=0.0000  <S**2>=2.000
      67 -> 71        -0.23230
      67 -> 72         0.10469
      69 -> 71         0.15296
      70 -> 71        -0.30391
      70 -> 72         0.53159
 
 Excited State   5:      Singlet-A      4.9747 eV  249.23 nm  f=0.0061  <S**2>=0.000
      67 -> 71         0.15786
      68 -> 71         0.14652
      69 -> 71         0.62904
      69 -> 72         0.18705
 
 Excited State   6:      Singlet-A      5.1743 eV  239.61 nm  f=0.0504  <S**2>=0.000
      68 -> 71         0.16116
      70 -> 72         0.66226
 SavETr:  write IOETrn=   770 NScale= 10 NData=  16 NLR=1 NState=    6 LETran=     118.

 **********************************************************************

            Population analysis using the SCF Density.

 **********************************************************************

 Orbital symmetries:
       Occupied  (A) (A) (A) (A) (A) (A) (A) (A) (A) (A) (A) (A)
                 (A) (A) (A) (A) (A) (A) (A) (A) (A) (A) (A) (A)
                 (A) (A) (A) (A) (A) (A) (A) (A) (A) (A) (A) (A)
                 (A) (A) (A) (A) (A) (A) (A) (A) (A) (A) (A) (A)
                 (A) (A) (A) (A) (A) (A) (A) (A) (A) (A) (A) (A)
                 (A) (A) (A) (A) (A) (A) (A) (A) (A) (A)
       Virtual   (A) (A) (A) (A) (A) (A) (A) (A) (A) (A) (A) (A)
                 (A) (A) (A) (A) (A) (A) (A) (A) (A) (A) (A) (A)
                 (A) (A) (A) (A) (A) (A) (A) (A) (A) (A) (A) (A)
                 (A) (A) (A) (A) (A) (A) (A) (A) (A) (A) (A) (A)
                 (A) (A) (A) (A) (A) (A) (A) (A) (A) (A) (A) (A)
                 (A) (A) (A) (A) (A) (A) (A) (A) (A) (A) (A) (A)
                 (A) (A) (A) (A) (A) (A) (A) (A) (A) (A) (A) (A)
                 (A) (A) (A) (A) (A) (A) (A) (A) (A) (A) (A) (A)
                 (A) (A) (A) (A) (A) (A) (A) (A) (A) (A) (A) (A)
                 (A) (A) (A) (A) (A) (A) (A) (A) (A) (A) (A) (A)
                 (A) (A) (A) (A) (A) (A) (A) (A) (A) (A) (A) (A)
                 (A) (A) (A) (A) (A) (A) (A) (A) (A) (A) (A) (A)
                 (A) (A) (A) (A) (A) (A) (A) (A) (A) (A) (A) (A)
                 (A) (A) (A) (A) (A) (A) (A) (A) (A) (A) (A) (A)
                 (A) (A) (A) (A) (A) (A) (A) (A) (A) (A) (A) (A)
                 (A) (A) (A) (A) (A) (A) (A) (A) (A) (A) (A) (A)
                 (A) (A) (A) (A) (A) (A) (A) (A) (A) (A) (A) (A)
                 (A) (A) (A) (A) (A) (A) (A) (A) (A) (A) (A) (A)
                 (A) (A) (A) (A) (A) (A) (A) (A) (A) (A) (A) (A)
                 (A) (A) (A) (A) (A) (A) (A) (A) (A) (A) (A) (A)
                 (A) (A) (A) (A) (A) (A) (A) (A) (A) (A) (A) (A)
                 (A) (A) (A) (A) (A) (A) (A) (A) (A) (A) (A) (A)
                 (A) (A) (A) (A) (A) (A) (A) (A) (A) (A) (A) (A)
                 (A) (A) (A) (A) (A) (A) (A) (A) (A) (A) (A) (A)
                 (A) (A) (A) (A) (A) (A) (A) (A) (A) (A) (A) (A)
                 (A) (A) (A) (A) (A) (A) (A) (A) (A) (A) (A) (A)
                 (A) (A) (A) (A) (A) (A) (A) (A) (A) (A) (A) (A)
                 (A) (A) (A) (A) (A) (A) (A) (A) (A) (A) (A) (A)
                 (A) (A) (A) (A) (A) (A) (A) (A) (A) (A) (A) (A)
                 (A) (A) (A) (A) (A) (A) (A) (A) (A) (A) (A) (A)
                 (A) (A) (A) (A) (A) (A) (A) (A) (A) (A) (A) (A)
                 (A) (A) (A)
 The electronic state is 1-A.
 Alpha  occ. eigenvalues --  -19.23430 -19.21885 -19.17301 -19.16852 -14.36117
 Alpha  occ. eigenvalues --  -10.34956 -10.34949 -10.29148 -10.27907 -10.26783
 Alpha  occ. eigenvalues --  -10.25222 -10.25065 -10.24944 -10.23865 -10.23121
 Alpha  occ. eigenvalues --  -10.20370 -10.19905 -10.19689 -10.19217  -1.14467
 Alpha  occ. eigenvalues --   -1.12763  -1.06379  -1.04406  -0.92829  -0.87559
 Alpha  occ. eigenvalues --   -0.85306  -0.82013  -0.79924  -0.75614  -0.70983
 Alpha  occ. eigenvalues --   -0.70916  -0.69771  -0.65880  -0.64397  -0.61801
 Alpha  occ. eigenvalues --   -0.58703  -0.57394  -0.56345  -0.53120  -0.50750
 Alpha  occ. eigenvalues --   -0.50538  -0.49003  -0.48194  -0.47898  -0.47209
 Alpha  occ. eigenvalues --   -0.46218  -0.45495  -0.44512  -0.43861  -0.43195
 Alpha  occ. eigenvalues --   -0.42190  -0.42168  -0.41262  -0.40603  -0.40122
 Alpha  occ. eigenvalues --   -0.40024  -0.38422  -0.38193  -0.37802  -0.37604
 Alpha  occ. eigenvalues --   -0.37433  -0.36760  -0.35942  -0.35418  -0.35163
 Alpha  occ. eigenvalues --   -0.32346  -0.31323  -0.30932  -0.29692  -0.26208
 Alpha virt. eigenvalues --   -0.08939  -0.04309  -0.03112  -0.01573  -0.00198
 Alpha virt. eigenvalues --   -0.00079   0.00910   0.01104   0.01446   0.02302
 Alpha virt. eigenvalues --    0.02614   0.02860   0.03248   0.04237   0.04317
 Alpha virt. eigenvalues --    0.04507   0.04985   0.05552   0.05878   0.06664
 Alpha virt. eigenvalues --    0.06718   0.07206   0.07299   0.07601   0.08130
 Alpha virt. eigenvalues --    0.08445   0.08614   0.09046   0.09423   0.10161
 Alpha virt. eigenvalues --    0.10693   0.10898   0.10944   0.11793   0.12057
 Alpha virt. eigenvalues --    0.12271   0.12573   0.13192   0.13480   0.13752
 Alpha virt. eigenvalues --    0.14016   0.14403   0.15089   0.15323   0.15718
 Alpha virt. eigenvalues --    0.16389   0.16749   0.17167   0.17381   0.17609
 Alpha virt. eigenvalues --    0.17953   0.18217   0.18561   0.19017   0.19162
 Alpha virt. eigenvalues --    0.19682   0.20236   0.20414   0.20769   0.20960
 Alpha virt. eigenvalues --    0.21595   0.21621   0.22286   0.22528   0.22821
 Alpha virt. eigenvalues --    0.23243   0.23517   0.24170   0.24714   0.24878
 Alpha virt. eigenvalues --    0.25161   0.25344   0.25745   0.25869   0.26592
 Alpha virt. eigenvalues --    0.26903   0.27387   0.27568   0.27798   0.28136
 Alpha virt. eigenvalues --    0.28487   0.29547   0.30206   0.30490   0.31135
 Alpha virt. eigenvalues --    0.31606   0.32374   0.32708   0.33311   0.33526
 Alpha virt. eigenvalues --    0.34221   0.34594   0.35106   0.35245   0.35717
 Alpha virt. eigenvalues --    0.36326   0.36784   0.37073   0.38181   0.38376
 Alpha virt. eigenvalues --    0.39230   0.40688   0.40734   0.41074   0.41660
 Alpha virt. eigenvalues --    0.42999   0.43453   0.44228   0.45012   0.45497
 Alpha virt. eigenvalues --    0.46874   0.48384   0.48716   0.51057   0.51851
 Alpha virt. eigenvalues --    0.57219   0.60602   0.61772   0.63470   0.66028
 Alpha virt. eigenvalues --    0.66390   0.67197   0.67684   0.68255   0.68463
 Alpha virt. eigenvalues --    0.70139   0.70665   0.71790   0.73169   0.74048
 Alpha virt. eigenvalues --    0.74520   0.75728   0.76270   0.76436   0.76949
 Alpha virt. eigenvalues --    0.77848   0.78875   0.80007   0.80167   0.81212
 Alpha virt. eigenvalues --    0.81978   0.82410   0.83364   0.83960   0.84357
 Alpha virt. eigenvalues --    0.86265   0.86405   0.86700   0.89759   0.90901
 Alpha virt. eigenvalues --    0.91581   0.92153   0.93114   0.94210   0.95435
 Alpha virt. eigenvalues --    0.96049   0.96623   0.97555   0.98233   0.98973
 Alpha virt. eigenvalues --    1.00103   1.00515   1.01040   1.01241   1.02172
 Alpha virt. eigenvalues --    1.02957   1.03822   1.05477   1.06008   1.06854
 Alpha virt. eigenvalues --    1.08057   1.08605   1.10382   1.11937   1.12595
 Alpha virt. eigenvalues --    1.13930   1.14547   1.15534   1.16729   1.17310
 Alpha virt. eigenvalues --    1.18190   1.19339   1.21789   1.23039   1.24066
 Alpha virt. eigenvalues --    1.24235   1.25241   1.26882   1.27441   1.29830
 Alpha virt. eigenvalues --    1.31034   1.32228   1.33113   1.34021   1.35171
 Alpha virt. eigenvalues --    1.36836   1.36987   1.38554   1.38892   1.39523
 Alpha virt. eigenvalues --    1.40902   1.41870   1.42530   1.43897   1.45200
 Alpha virt. eigenvalues --    1.45849   1.47300   1.50067   1.51689   1.52417
 Alpha virt. eigenvalues --    1.53699   1.54304   1.55322   1.56373   1.57331
 Alpha virt. eigenvalues --    1.58802   1.59975   1.61781   1.62602   1.66112
 Alpha virt. eigenvalues --    1.66730   1.68540   1.69633   1.71215   1.73817
 Alpha virt. eigenvalues --    1.75536   1.76650   1.77041   1.79146   1.79763
 Alpha virt. eigenvalues --    1.81775   1.82467   1.83416   1.83990   1.85289
 Alpha virt. eigenvalues --    1.85785   1.86330   1.86937   1.88371   1.88573
 Alpha virt. eigenvalues --    1.90082   1.90590   1.91681   1.92743   1.93248
 Alpha virt. eigenvalues --    1.94307   1.96638   1.97227   1.98790   2.00557
 Alpha virt. eigenvalues --    2.00659   2.02386   2.02446   2.03111   2.03610
 Alpha virt. eigenvalues --    2.03856   2.04542   2.06356   2.07481   2.08937
 Alpha virt. eigenvalues --    2.09551   2.10019   2.10677   2.11128   2.11584
 Alpha virt. eigenvalues --    2.12349   2.12797   2.12857   2.13857   2.14505
 Alpha virt. eigenvalues --    2.16670   2.17517   2.18461   2.20566   2.22882
 Alpha virt. eigenvalues --    2.24407   2.27086   2.28657   2.30196   2.31589
 Alpha virt. eigenvalues --    2.32367   2.33845   2.34796   2.35947   2.36578
 Alpha virt. eigenvalues --    2.38099   2.39595   2.41224   2.44014   2.45966
 Alpha virt. eigenvalues --    2.47379   2.48057   2.49497   2.50515   2.51284
 Alpha virt. eigenvalues --    2.52783   2.53821   2.57052   2.58911   2.59874
 Alpha virt. eigenvalues --    2.61937   2.63544   2.64875   2.65463   2.67581
 Alpha virt. eigenvalues --    2.69564   2.71160   2.71210   2.71849   2.72281
 Alpha virt. eigenvalues --    2.73585   2.74886   2.75182   2.77191   2.77810
 Alpha virt. eigenvalues --    2.80274   2.81326   2.83895   2.85694   2.86887
 Alpha virt. eigenvalues --    2.87066   2.88508   2.89010   2.89169   2.90112
 Alpha virt. eigenvalues --    2.91259   2.94537   2.96484   2.97759   2.98454
 Alpha virt. eigenvalues --    3.02800   3.05481   3.09952   3.13971   3.14374
 Alpha virt. eigenvalues --    3.21596   3.23676   3.25995   3.26344   3.26866
 Alpha virt. eigenvalues --    3.27553   3.28460   3.28950   3.36400   3.37666
 Alpha virt. eigenvalues --    3.38479   3.43375   3.44315   3.44895   3.48667
 Alpha virt. eigenvalues --    3.48725   3.49446   3.50755   3.53135   3.55058
 Alpha virt. eigenvalues --    3.59628   4.22994   4.28092   4.34163   4.38340
 Alpha virt. eigenvalues --    4.39551   4.42125   4.43702   4.44864   4.49074
 Alpha virt. eigenvalues --    4.54207   4.55878   4.58077   4.68417   4.71052
 Alpha virt. eigenvalues --    4.74346   4.75638   4.79784   4.89315   5.00585
          Condensed to atoms (all electrons):
               1          2          3          4          5          6
     1  C    7.544986  -1.595440  -1.901005   0.035034   2.168839  -1.029524
     2  C   -1.595440  15.751525   1.364975   0.023326  -9.970340   2.603589
     3  C   -1.901005   1.364975  11.021660   0.004399  -4.524354   0.708489
     4  N    0.035034   0.023326   0.004399   7.206609   0.228275  -0.028249
     5  C    2.168839  -9.970340  -4.524354   0.228275  21.745244  -4.413964
     6  C   -1.029524   2.603589   0.708489  -0.028249  -4.413964  10.823157
     7  C    0.404714  -0.690848  -0.284457   0.002660   2.256865  -2.824795
     8  C    0.034821  -0.225867  -0.055370   0.000809   0.409511  -0.073658
     9  C   -0.127311   0.528253   0.061039   0.001541  -0.799970   0.530794
    10  C   -0.273680  -1.222612   0.063714  -0.000392  -2.784466   1.146183
    11  C   -0.000755  -0.259572   0.019425  -0.003500   0.238187  -0.695654
    12  O    0.001254  -0.000901  -0.001521   0.000014  -0.005842  -0.090984
    13  O   -0.001649   0.059344   0.008906   0.000224   0.096208   0.049208
    14  C   -0.006808  -0.073357   0.015508  -0.000161   0.029331  -0.011384
    15  C    0.001169  -0.015384  -0.001065  -0.000195   0.024239  -0.038558
    16  C    0.002889   0.026361  -0.011917   0.000128  -0.029626   0.002871
    17  C    0.147132  -0.252357  -0.316246   0.013460   0.744170  -0.426231
    18  O   -0.002630   0.023477  -0.001628   0.000070  -0.052713  -0.006669
    19  O   -0.023329  -0.123599   0.012408  -0.000085   0.042941   0.079761
    20  H    0.451856  -0.078123  -0.018956  -0.000119   0.004809  -0.008781
    21  H    0.476334  -0.114636  -0.032286   0.000255   0.028077  -0.005136
    22  H    0.007423  -0.007677  -0.020923   0.000246   0.016785  -0.003040
    23  H   -0.004407   0.012913   0.000748   0.000001  -0.029038  -0.011656
    24  H   -0.003131   0.017263   0.000179   0.000006  -0.018197   0.011914
    25  H    0.000677  -0.010521  -0.000550   0.000001   0.033221   0.095289
    26  H   -0.002272  -0.004131  -0.001056   0.000012  -0.010375   0.020066
    27  H   -0.000425   0.016480  -0.003924   0.000000  -0.011244  -0.016979
    28  H   -0.000200  -0.003636   0.000391  -0.000006   0.012678   0.055915
    29  H    0.003543   0.008701  -0.003262   0.000008   0.084799   0.024660
    30  H   -0.000016   0.000066   0.000062   0.000000   0.000101  -0.000028
    31  H    0.000001  -0.000026  -0.000002  -0.000000  -0.000053  -0.000363
    32  H   -0.000001  -0.000037  -0.000006   0.000000   0.000073   0.000732
    33  H   -0.000001  -0.000179   0.000012  -0.000001  -0.000843  -0.000254
    34  H    0.000001   0.000171  -0.000010   0.000001  -0.000019  -0.000298
    35  H   -0.000142   0.001233   0.000542  -0.000004   0.001724   0.000181
    36  H    0.000028   0.001628  -0.000308   0.000046   0.000258   0.000108
               7          8          9         10         11         12
     1  C    0.404714   0.034821  -0.127311  -0.273680  -0.000755   0.001254
     2  C   -0.690848  -0.225867   0.528253  -1.222612  -0.259572  -0.000901
     3  C   -0.284457  -0.055370   0.061039   0.063714   0.019425  -0.001521
     4  N    0.002660   0.000809   0.001541  -0.000392  -0.003500   0.000014
     5  C    2.256865   0.409511  -0.799970  -2.784466   0.238187  -0.005842
     6  C   -2.824795  -0.073658   0.530794   1.146183  -0.695654  -0.090984
     7  C    9.320663  -0.099607  -0.781640  -1.338529   0.143151   0.066925
     8  C   -0.099607   5.761117  -0.297536  -0.172632  -0.091683  -0.004792
     9  C   -0.781640  -0.297536   6.144430   0.272540  -0.274432  -0.052160
    10  C   -1.338529  -0.172632   0.272540  12.759717  -1.775786  -0.064597
    11  C    0.143151  -0.091683  -0.274432  -1.775786   8.167573   0.651122
    12  O    0.066925  -0.004792  -0.052160  -0.064597   0.651122   8.095671
    13  O   -0.006128   0.003000   0.006761  -0.603383   0.336453  -0.166325
    14  C   -0.027219   0.002395   0.028652  -0.029951  -0.069716  -0.005007
    15  C    0.017891  -0.002372  -0.008620  -0.077926  -0.014228  -0.080517
    16  C   -0.013351  -0.001100  -0.013889  -0.064787   0.127912   0.014264
    17  C   -0.000194   0.030497  -0.010899  -0.273859  -0.393688   0.017742
    18  O    0.026829  -0.002731  -0.002996  -0.214754   0.095029  -0.005710
    19  O   -0.104819   0.003989   0.011157  -0.039843   0.017655  -0.004763
    20  H    0.014183  -0.003279  -0.001197  -0.006991  -0.000769   0.000002
    21  H    0.001696   0.000917  -0.000944  -0.001037  -0.000309   0.000000
    22  H    0.241787  -0.003997   0.033676  -0.001624  -0.007654  -0.000006
    23  H   -0.048363   0.416382  -0.002967   0.020537   0.002184   0.000018
    24  H   -0.090851   0.436317   0.008019   0.003402  -0.010057   0.000076
    25  H   -0.171081   0.485291  -0.013329  -0.057001  -0.019099   0.000460
    26  H   -0.102504  -0.001368   0.435032   0.028689  -0.011965   0.000471
    27  H   -0.046551  -0.003901   0.438218  -0.012188   0.005166   0.000207
    28  H   -0.162391  -0.012092   0.481120  -0.061433   0.040087  -0.003585
    29  H   -0.001274   0.023198  -0.011111   0.206458  -0.029496  -0.007899
    30  H   -0.002356   0.000029   0.000645   0.005662   0.001592   0.002425
    31  H    0.000231   0.000000  -0.000109   0.003000   0.001112   0.000355
    32  H   -0.000142   0.000009  -0.000039  -0.017967   0.003140   0.001624
    33  H    0.000072   0.000009  -0.000022   0.009621   0.008821  -0.000570
    34  H   -0.000003  -0.000005   0.000248   0.002115  -0.001457   0.000238
    35  H   -0.000633  -0.000178   0.000561  -0.008050   0.003100  -0.000281
    36  H   -0.001089   0.000010   0.000217  -0.004354   0.003992  -0.000157
              13         14         15         16         17         18
     1  C   -0.001649  -0.006808   0.001169   0.002889   0.147132  -0.002630
     2  C    0.059344  -0.073357  -0.015384   0.026361  -0.252357   0.023477
     3  C    0.008906   0.015508  -0.001065  -0.011917  -0.316246  -0.001628
     4  N    0.000224  -0.000161  -0.000195   0.000128   0.013460   0.000070
     5  C    0.096208   0.029331   0.024239  -0.029626   0.744170  -0.052713
     6  C    0.049208  -0.011384  -0.038558   0.002871  -0.426231  -0.006669
     7  C   -0.006128  -0.027219   0.017891  -0.013351  -0.000194   0.026829
     8  C    0.003000   0.002395  -0.002372  -0.001100   0.030497  -0.002731
     9  C    0.006761   0.028652  -0.008620  -0.013889  -0.010899  -0.002996
    10  C   -0.603383  -0.029951  -0.077926  -0.064787  -0.273859  -0.214754
    11  C    0.336453  -0.069716  -0.014228   0.127912  -0.393688   0.095029
    12  O   -0.166325  -0.005007  -0.080517   0.014264   0.017742  -0.005710
    13  O    8.472742  -0.053758   0.018945  -0.050805   0.010702   0.007721
    14  C   -0.053758   6.489021  -0.205738  -0.109893  -0.071169  -0.004833
    15  C    0.018945  -0.205738   5.699812  -0.186257   0.038882   0.000068
    16  C   -0.050805  -0.109893  -0.186257   5.545960   0.001222   0.001790
    17  C    0.010702  -0.071169   0.038882   0.001222   5.960144   0.493596
    18  O    0.007721  -0.004833   0.000068   0.001790   0.493596   8.149925
    19  O    0.003796   0.009089  -0.002012  -0.000201  -0.000031  -0.087069
    20  H   -0.000005  -0.000034  -0.000003   0.000009  -0.001239   0.000016
    21  H   -0.000000  -0.000005  -0.000000   0.000002   0.000596  -0.000001
    22  H    0.000199   0.000446  -0.000077   0.000090   0.005312  -0.000021
    23  H   -0.000016  -0.000048   0.000003   0.000016  -0.000600  -0.000003
    24  H   -0.000022  -0.000084  -0.000009   0.000010   0.000567   0.000026
    25  H    0.000125   0.000514  -0.000031  -0.000036   0.005328  -0.000044
    26  H    0.000300   0.000688  -0.000062  -0.000108   0.001191  -0.000002
    27  H   -0.000414   0.001544   0.000524  -0.005582  -0.002487   0.000027
    28  H   -0.002977   0.002953  -0.000290   0.002231   0.001392  -0.000055
    29  H    0.016219   0.002988  -0.001244  -0.000598  -0.052318  -0.002443
    30  H   -0.045356   0.332041   0.005961  -0.032078   0.002420   0.000030
    31  H    0.007069  -0.082572   0.436472  -0.012088   0.000744   0.000010
    32  H   -0.004252  -0.064054   0.442203   0.006722  -0.001420  -0.000189
    33  H   -0.001908  -0.097978   0.441720  -0.009050   0.001292  -0.000100
    34  H    0.007015  -0.068555  -0.003215   0.420206   0.000479  -0.000003
    35  H   -0.004362  -0.077018  -0.004808   0.450393   0.000254  -0.000014
    36  H   -0.001244  -0.100072   0.005280   0.447166  -0.000188   0.000017
              19         20         21         22         23         24
     1  C   -0.023329   0.451856   0.476334   0.007423  -0.004407  -0.003131
     2  C   -0.123599  -0.078123  -0.114636  -0.007677   0.012913   0.017263
     3  C    0.012408  -0.018956  -0.032286  -0.020923   0.000748   0.000179
     4  N   -0.000085  -0.000119   0.000255   0.000246   0.000001   0.000006
     5  C    0.042941   0.004809   0.028077   0.016785  -0.029038  -0.018197
     6  C    0.079761  -0.008781  -0.005136  -0.003040  -0.011656   0.011914
     7  C   -0.104819   0.014183   0.001696   0.241787  -0.048363  -0.090851
     8  C    0.003989  -0.003279   0.000917  -0.003997   0.416382   0.436317
     9  C    0.011157  -0.001197  -0.000944   0.033676  -0.002967   0.008019
    10  C   -0.039843  -0.006991  -0.001037  -0.001624   0.020537   0.003402
    11  C    0.017655  -0.000769  -0.000309  -0.007654   0.002184  -0.010057
    12  O   -0.004763   0.000002   0.000000  -0.000006   0.000018   0.000076
    13  O    0.003796  -0.000005  -0.000000   0.000199  -0.000016  -0.000022
    14  C    0.009089  -0.000034  -0.000005   0.000446  -0.000048  -0.000084
    15  C   -0.002012  -0.000003  -0.000000  -0.000077   0.000003  -0.000009
    16  C   -0.000201   0.000009   0.000002   0.000090   0.000016   0.000010
    17  C   -0.000031  -0.001239   0.000596   0.005312  -0.000600   0.000567
    18  O   -0.087069   0.000016  -0.000001  -0.000021  -0.000003   0.000026
    19  O    8.418589   0.000197  -0.000285   0.000865   0.000010  -0.000257
    20  H    0.000197   0.518730  -0.029956  -0.000739  -0.000014   0.000552
    21  H   -0.000285  -0.029956   0.505822   0.000072   0.000000   0.000002
    22  H    0.000865  -0.000739   0.000072   0.618586  -0.003927  -0.004253
    23  H    0.000010  -0.000014   0.000000  -0.003927   0.544174  -0.026490
    24  H   -0.000257   0.000552   0.000002  -0.004253  -0.026490   0.557158
    25  H    0.000193   0.000000  -0.000000   0.005243  -0.025998  -0.028307
    26  H    0.000005   0.000000  -0.000000  -0.004620   0.002879   0.000086
    27  H   -0.000316  -0.000003  -0.000000  -0.003853   0.000086  -0.000158
    28  H    0.000281  -0.000001   0.000000   0.005172  -0.000194   0.000033
    29  H    0.012331   0.000005  -0.000000  -0.000038  -0.000028   0.000082
    30  H    0.000002  -0.000000  -0.000000   0.000000  -0.000000  -0.000000
    31  H   -0.000001  -0.000000   0.000000   0.000000  -0.000000  -0.000000
    32  H    0.000012  -0.000000   0.000000   0.000000   0.000000  -0.000000
    33  H   -0.000024  -0.000000   0.000000  -0.000000   0.000000   0.000000
    34  H   -0.000004  -0.000000   0.000000  -0.000000  -0.000000  -0.000000
    35  H   -0.000037  -0.000000   0.000000  -0.000001   0.000000  -0.000000
    36  H   -0.000018  -0.000000  -0.000000   0.000000   0.000000  -0.000000
              25         26         27         28         29         30
     1  C    0.000677  -0.002272  -0.000425  -0.000200   0.003543  -0.000016
     2  C   -0.010521  -0.004131   0.016480  -0.003636   0.008701   0.000066
     3  C   -0.000550  -0.001056  -0.003924   0.000391  -0.003262   0.000062
     4  N    0.000001   0.000012   0.000000  -0.000006   0.000008   0.000000
     5  C    0.033221  -0.010375  -0.011244   0.012678   0.084799   0.000101
     6  C    0.095289   0.020066  -0.016979   0.055915   0.024660  -0.000028
     7  C   -0.171081  -0.102504  -0.046551  -0.162391  -0.001274  -0.002356
     8  C    0.485291  -0.001368  -0.003901  -0.012092   0.023198   0.000029
     9  C   -0.013329   0.435032   0.438218   0.481120  -0.011111   0.000645
    10  C   -0.057001   0.028689  -0.012188  -0.061433   0.206458   0.005662
    11  C   -0.019099  -0.011965   0.005166   0.040087  -0.029496   0.001592
    12  O    0.000460   0.000471   0.000207  -0.003585  -0.007899   0.002425
    13  O    0.000125   0.000300  -0.000414  -0.002977   0.016219  -0.045356
    14  C    0.000514   0.000688   0.001544   0.002953   0.002988   0.332041
    15  C   -0.000031  -0.000062   0.000524  -0.000290  -0.001244   0.005961
    16  C   -0.000036  -0.000108  -0.005582   0.002231  -0.000598  -0.032078
    17  C    0.005328   0.001191  -0.002487   0.001392  -0.052318   0.002420
    18  O   -0.000044  -0.000002   0.000027  -0.000055  -0.002443   0.000030
    19  O    0.000193   0.000005  -0.000316   0.000281   0.012331   0.000002
    20  H    0.000000   0.000000  -0.000003  -0.000001   0.000005  -0.000000
    21  H   -0.000000  -0.000000  -0.000000   0.000000  -0.000000  -0.000000
    22  H    0.005243  -0.004620  -0.003853   0.005172  -0.000038   0.000000
    23  H   -0.025998   0.002879   0.000086  -0.000194  -0.000028  -0.000000
    24  H   -0.028307   0.000086  -0.000158   0.000033   0.000082  -0.000000
    25  H    0.529866  -0.000012   0.000030   0.003204   0.000037   0.000000
    26  H   -0.000012   0.551920  -0.026413  -0.026458   0.000001   0.000002
    27  H    0.000030  -0.026413   0.545182  -0.028588   0.000010  -0.000035
    28  H    0.003204  -0.026458  -0.028588   0.527207   0.000052   0.000242
    29  H    0.000037   0.000001   0.000010   0.000052   0.529019   0.000004
    30  H    0.000000   0.000002  -0.000035   0.000242   0.000004   0.576657
    31  H    0.000000  -0.000000   0.000000   0.000000  -0.000000  -0.001610
    32  H   -0.000000  -0.000000  -0.000000  -0.000000   0.000005  -0.004617
    33  H    0.000000   0.000000  -0.000000   0.000000  -0.000000   0.004769
    34  H    0.000000  -0.000000   0.000001  -0.000001  -0.000000  -0.001819
    35  H   -0.000000   0.000001   0.000407  -0.000034   0.000000  -0.004563
    36  H    0.000000   0.000000  -0.000002   0.000001   0.000000   0.004720
              31         32         33         34         35         36
     1  C    0.000001  -0.000001  -0.000001   0.000001  -0.000142   0.000028
     2  C   -0.000026  -0.000037  -0.000179   0.000171   0.001233   0.001628
     3  C   -0.000002  -0.000006   0.000012  -0.000010   0.000542  -0.000308
     4  N   -0.000000   0.000000  -0.000001   0.000001  -0.000004   0.000046
     5  C   -0.000053   0.000073  -0.000843  -0.000019   0.001724   0.000258
     6  C   -0.000363   0.000732  -0.000254  -0.000298   0.000181   0.000108
     7  C    0.000231  -0.000142   0.000072  -0.000003  -0.000633  -0.001089
     8  C    0.000000   0.000009   0.000009  -0.000005  -0.000178   0.000010
     9  C   -0.000109  -0.000039  -0.000022   0.000248   0.000561   0.000217
    10  C    0.003000  -0.017967   0.009621   0.002115  -0.008050  -0.004354
    11  C    0.001112   0.003140   0.008821  -0.001457   0.003100   0.003992
    12  O    0.000355   0.001624  -0.000570   0.000238  -0.000281  -0.000157
    13  O    0.007069  -0.004252  -0.001908   0.007015  -0.004362  -0.001244
    14  C   -0.082572  -0.064054  -0.097978  -0.068555  -0.077018  -0.100072
    15  C    0.436472   0.442203   0.441720  -0.003215  -0.004808   0.005280
    16  C   -0.012088   0.006722  -0.009050   0.420206   0.450393   0.447166
    17  C    0.000744  -0.001420   0.001292   0.000479   0.000254  -0.000188
    18  O    0.000010  -0.000189  -0.000100  -0.000003  -0.000014   0.000017
    19  O   -0.000001   0.000012  -0.000024  -0.000004  -0.000037  -0.000018
    20  H   -0.000000  -0.000000  -0.000000  -0.000000  -0.000000  -0.000000
    21  H    0.000000   0.000000   0.000000   0.000000   0.000000  -0.000000
    22  H    0.000000   0.000000  -0.000000  -0.000000  -0.000001   0.000000
    23  H   -0.000000   0.000000   0.000000  -0.000000   0.000000   0.000000
    24  H   -0.000000  -0.000000   0.000000  -0.000000  -0.000000  -0.000000
    25  H    0.000000  -0.000000   0.000000   0.000000  -0.000000   0.000000
    26  H   -0.000000  -0.000000   0.000000  -0.000000   0.000001   0.000000
    27  H    0.000000  -0.000000  -0.000000   0.000001   0.000407  -0.000002
    28  H    0.000000  -0.000000   0.000000  -0.000001  -0.000034   0.000001
    29  H   -0.000000   0.000005  -0.000000  -0.000000   0.000000   0.000000
    30  H   -0.001610  -0.004617   0.004769  -0.001819  -0.004563   0.004720
    31  H    0.546365  -0.024073  -0.027247   0.000976   0.000072   0.000016
    32  H   -0.024073   0.515615  -0.026034   0.000069  -0.000147   0.000013
    33  H   -0.027247  -0.026034   0.529435   0.000026   0.000012   0.003433
    34  H    0.000976   0.000069   0.000026   0.543283  -0.025578  -0.026634
    35  H    0.000072  -0.000147   0.000012  -0.025578   0.537708  -0.026247
    36  H    0.000016   0.000013   0.003433  -0.026634  -0.026247   0.525967
 Mulliken charges:
               1
     1  C   -0.307975
     2  C    0.209937
     3  C   -0.103610
     4  N   -0.484414
     5  C    0.484707
     6  C   -0.466712
     7  C    0.301158
     8  C   -0.556133
     9  C   -0.583731
    10  C    0.586202
    11  C   -0.205882
    12  O   -0.357250
    13  O   -0.162335
    14  C    0.244244
    15  C   -0.490558
    16  C   -0.508876
    17  C    0.325805
    18  O   -0.414023
    19  O   -0.226584
    20  H    0.159849
    21  H    0.170823
    22  H    0.126550
    23  H    0.153795
    24  H    0.146123
    25  H    0.166526
    26  H    0.150004
    27  H    0.155178
    28  H    0.168981
    29  H    0.197590
    30  H    0.155048
    31  H    0.151720
    32  H    0.172762
    33  H    0.164990
    34  H    0.152768
    35  H    0.155907
    36  H    0.167416
 Sum of Mulliken charges =  -0.00000
 Mulliken charges with hydrogens summed into heavy atoms:
               1
     1  C    0.022696
     2  C    0.209937
     3  C   -0.103610
     4  N   -0.484414
     5  C    0.484707
     6  C   -0.466712
     7  C    0.427708
     8  C   -0.089689
     9  C   -0.109567
    10  C    0.783792
    11  C   -0.205882
    12  O   -0.357250
    13  O   -0.162335
    14  C    0.399292
    15  C   -0.001086
    16  C   -0.032786
    17  C    0.325805
    18  O   -0.414023
    19  O   -0.226584
 Electronic spatial extent (au):  <R**2>=           5131.9711
 Charge=              0.0000 electrons
 Dipole moment (field-independent basis, Debye):
    X=             -1.1814    Y=              4.8234    Z=             -2.6474  Tot=              5.6276
 Quadrupole moment (field-independent basis, Debye-Ang):
   XX=           -100.7469   YY=           -128.9224   ZZ=           -120.5597
   XY=            -19.1219   XZ=             -9.0382   YZ=             -0.4299
 Traceless Quadrupole moment (field-independent basis, Debye-Ang):
   XX=             15.9961   YY=            -12.1794   ZZ=             -3.8166
   XY=            -19.1219   XZ=             -9.0382   YZ=             -0.4299
 Octapole moment (field-independent basis, Debye-Ang**2):
  XXX=             -0.8117  YYY=             53.5490  ZZZ=             -9.1830  XYY=             33.5048
  XXY=              8.1639  XXZ=            -13.7210  XZZ=             11.1856  YZZ=             25.1652
  YYZ=             10.0131  XYZ=             14.9504
 Hexadecapole moment (field-independent basis, Debye-Ang**3):
 XXXX=          -3500.1145 YYYY=          -2133.4775 ZZZZ=          -1224.5552 XXXY=           -166.0368
 XXXZ=            -46.4785 YYYX=           -190.5097 YYYZ=            -93.2046 ZZZX=            -43.6914
 ZZZY=             20.2916 XXYY=          -1108.0148 XXZZ=           -853.6003 YYZZ=           -563.0646
 XXYZ=            -42.4109 YYXZ=            -68.3900 ZZXY=            -26.7730
 N-N= 1.475073829409D+03 E-N=-5.042462528112D+03  KE= 8.910161310293D+02
 Unable to Open any file for archive entry.
 1\1\GINC-N1\SP\RB3LYP TD-FC\6-31+G(d,p)\C14H17N1O4\HPCMGAC13\29-Jul-20
 25\0\\# td=(50-50,nstates=3) b3lyp/6-31+g(d,p) geom=connectivity\\Titl
 e Card Required\\0,1\C,0,-4.052696,0.011515,0.28825\C,0,-2.936594,0.76
 1055,0.2219\C,0,-2.93077,2.091321,0.778647\N,0,-2.922193,3.158445,1.24
 1024\C,0,-1.677933,0.303064,-0.396291\C,0,-0.941397,-0.809836,-0.22753
 2\C,0,-1.229963,-1.986011,0.674678\C,0,-1.420773,-3.283087,-0.139843\C
 ,0,-0.160995,-2.182144,1.770463\C,0,0.245931,-0.69318,-1.16947\C,0,1.6
 37602,-0.739366,-0.523513\O,0,2.428635,-1.640594,-0.70514\O,0,1.837896
 ,0.332425,0.251969\C,0,3.147803,0.487297,0.904439\C,0,4.11789,1.131989
 ,-0.07829\C,0,2.89218,1.320359,2.151147\C,0,0.007736,0.66406,-1.846039
 \O,0,0.654343,1.209865,-2.695762\O,0,-1.142012,1.208997,-1.320797\H,0,
 -4.087391,-0.974811,-0.160245\H,0,-4.9453,0.378677,0.782591\H,0,-2.175
 461,-1.767958,1.183399\H,0,-1.703958,-4.10707,0.523426\H,0,-2.203788,-
 3.172602,-0.897739\H,0,-0.494272,-3.572548,-0.647798\H,0,-0.481377,-2.
 972021,2.458062\H,0,-0.013945,-1.266388,2.350771\H,0,0.801871,-2.48616
 8,1.349183\H,0,0.244388,-1.474456,-1.936966\H,0,3.490786,-0.516971,1.1
 68573\H,0,5.093693,1.261977,0.401545\H,0,4.254686,0.50602,-0.963473\H,
 0,3.752367,2.114714,-0.39237\H,0,3.829681,1.459352,2.698866\H,0,2.1765
 54,0.826896,2.815039\H,0,2.497784,2.306483,1.886525\\Version=ES64L-G16
 RevC.02\State=1-A\HF=-899.4032186\RMSD=4.428e-09\PG=C01 [X(C14H17N1O4)
 ]\\@
 The archive entry for this job was punched.


 ... THIS SEEMS PLAINLY ABSURD; BUT WHOEVER WISHES TO BECOME A 
 PHILOSOPHER MUST LEARN NOT TO BE FRIGHTENED BY ABSURDITIES.

                          -- BERTRAND RUSSELL
 Job cpu time:       0 days  1 hours 43 minutes 56.5 seconds.
 Elapsed time:       0 days  0 hours  6 minutes 39.3 seconds.
 File lengths (MBytes):  RWF=   1165 Int=      0 D2E=      0 Chk=     52 Scr=      2
 Normal termination of Gaussian 16 at Tue Jul 29 16:02:56 2025.
