 Entering Gaussian System, Link 0=g16
 Input=M2771E.gjf
 Output=M2771E.log
 Initial command:
 /hpc/softwares/Gaussian/g16/l1.exe "/hpc/home/hpcmgac13/pbs.14042.admin1.x8z/Gau-3792506.inp" -scrdir="/hpc/home/hpcmgac13/pbs.14042.admin1.x8z/"
 Default linda workers: n2
 Default is to use   8 SMP processors on each worker.
 Entering Link 1 = /hpc/softwares/Gaussian/g16/l1.exe PID=   3792507.
  
 Copyright (c) 1988-2021, Gaussian, Inc.  All Rights Reserved.
  
 This is part of the Gaussian(R) 16 program.  It is based on
 the Gaussian(R) 09 system (copyright 2009, Gaussian, Inc.),
 the Gaussian(R) 03 system (copyright 2003, Gaussian, Inc.),
 the Gaussian(R) 98 system (copyright 1998, Gaussian, Inc.),
 the Gaussian(R) 94 system (copyright 1995, Gaussian, Inc.),
 the Gaussian 92(TM) system (copyright 1992, Gaussian, Inc.),
 the Gaussian 90(TM) system (copyright 1990, Gaussian, Inc.),
 the Gaussian 88(TM) system (copyright 1988, Gaussian, Inc.),
 the Gaussian 86(TM) system (copyright 1986, Carnegie Mellon
 University), and the Gaussian 82(TM) system (copyright 1983,
 Carnegie Mellon University). Gaussian is a federally registered
 trademark of Gaussian, Inc.
  
 This software contains proprietary and confidential information,
 including trade secrets, belonging to Gaussian, Inc.
  
 This software is provided under written license and may be
 used, copied, transmitted, or stored only in accord with that
 written license.
  
 The following legend is applicable only to US Government
 contracts under FAR:
  
                    RESTRICTED RIGHTS LEGEND
  
 Use, reproduction and disclosure by the US Government is
 subject to restrictions as set forth in subparagraphs (a)
 and (c) of the Commercial Computer Software - Restricted
 Rights clause in FAR 52.227-19.
  
 Gaussian, Inc.
 340 Quinnipiac St., Bldg. 40, Wallingford CT 06492
  
  
 ---------------------------------------------------------------
 Warning -- This program may not be used in any manner that
 competes with the business of Gaussian, Inc. or will provide
 assistance to any competitor of Gaussian, Inc.  The licensee
 of this program is prohibited from giving any competitor of
 Gaussian, Inc. access to this program.  By using this program,
 the user acknowledges that Gaussian, Inc. is engaged in the
 business of creating and licensing software in the field of
 computational chemistry and represents and warrants to the
 licensee that it is not a competitor of Gaussian, Inc. and that
 it will not use this program in any manner prohibited above.
 ---------------------------------------------------------------
  

 Cite this work as:
 Gaussian 16, Revision C.02,
 M. J. Frisch, G. W. Trucks, H. B. Schlegel, G. E. Scuseria, 
 M. A. Robb, J. R. Cheeseman, G. Scalmani, V. Barone, 
 G. A. Petersson, H. Nakatsuji, X. Li, M. Caricato, A. V. Marenich, 
 J. Bloino, B. G. Janesko, R. Gomperts, B. Mennucci, H. P. Hratchian, 
 J. V. Ortiz, A. F. Izmaylov, J. L. Sonnenberg, D. Williams-Young, 
 F. Ding, F. Lipparini, F. Egidi, J. Goings, B. Peng, A. Petrone, 
 T. Henderson, D. Ranasinghe, V. G. Zakrzewski, J. Gao, N. Rega, 
 G. Zheng, W. Liang, M. Hada, M. Ehara, K. Toyota, R. Fukuda, 
 J. Hasegawa, M. Ishida, T. Nakajima, Y. Honda, O. Kitao, H. Nakai, 
 T. Vreven, K. Throssell, J. A. Montgomery, Jr., J. E. Peralta, 
 F. Ogliaro, M. J. Bearpark, J. J. Heyd, E. N. Brothers, K. N. Kudin, 
 V. N. Staroverov, T. A. Keith, R. Kobayashi, J. Normand, 
 K. Raghavachari, A. P. Rendell, J. C. Burant, S. S. Iyengar, 
 J. Tomasi, M. Cossi, J. M. Millam, M. Klene, C. Adamo, R. Cammi, 
 J. W. Ochterski, R. L. Martin, K. Morokuma, O. Farkas, 
 J. B. Foresman, and D. J. Fox, Gaussian, Inc., Wallingford CT, 2019.
 
 ******************************************
 Gaussian 16:  ES64L-G16RevC.02  7-Dec-2021
                17-Sep-2025 
 ******************************************
 SetLPE:    new flags="-opt 'Tsnet.Node.lindarsharg: ssh'  -nodelist 'n2.head.cm.mguif.local' -env GAUSS_MDEF=1342177280 -env GAUSS_EXEDIR="/hpc/softwares/Gaussian/g16/bsd:/hpc/softwares/Gaussian/g16""
 Will use up to    1 processors via Linda.
 ----------------------------------------------------------
 # td=(50-50,nstates=3) b3lyp/6-31+g(d,p) geom=connectivity
 ----------------------------------------------------------
 1/38=1,57=2,172=1/1;
 2/12=2,17=6,18=5,40=1/2;
 3/5=1,6=6,7=111,11=9,25=1,30=1,74=-5/1,2,3,8;
 4//1;
 5/5=2,38=5/2;
 8/6=1,10=2,108=3/1;
 9/41=3,42=1,48=2,70=2/14;
 6/7=2,8=2,9=2,10=2/1;
 99/5=1,9=1/99;
 -------------------
 Title Card Required
 -------------------
 Symbolic Z-matrix:
 Charge =  0 Multiplicity = 1
 C                    -6.03333   0.38094  -0.10267 
 C                    -4.61706   0.45883  -0.6497 
 O                    -3.82319  -0.48156   0.08271 
 N                    -2.45657  -0.41661  -0.37784 
 C                    -1.60456  -0.21431   0.81081 
 C                    -0.17034  -0.5192    0.48312 
 C                     0.80245   0.40591   0.45172 
 C                     2.23279   0.20209   0.16902 
 C                     3.07105   1.3286    0.08021 
 C                     4.43378   1.1985   -0.19316 
 C                     4.99172  -0.06773  -0.38071 
 C                     4.17329  -1.1999   -0.28974 
 C                     2.81351  -1.06784  -0.01695 
 H                    -6.67847   1.08564  -0.63812 
 H                    -6.44509  -0.62559  -0.22655 
 H                    -6.05538   0.63294   0.9622 
 H                    -4.19576   1.46582  -0.52857 
 H                    -4.59056   0.20925  -1.71922 
 H                    -2.28588  -1.35829  -0.73674 
 H                    -1.71406   0.82672   1.13068 
 H                    -1.94783  -0.85727   1.63752 
 H                     0.05941  -1.56374   0.27112 
 H                     0.5221    1.43974   0.6554 
 H                     2.64404   2.31801   0.22429 
 H                     5.05771   2.08532  -0.2585 
 H                     6.05164  -0.17457  -0.59184 
 H                     4.59904  -2.18974  -0.42838 
 H                     2.20075  -1.96085   0.05818 
 
                          Input orientation:                          
 ---------------------------------------------------------------------
 Center     Atomic      Atomic             Coordinates (Angstroms)
 Number     Number       Type             X           Y           Z
 ---------------------------------------------------------------------
      1          6           0       -6.033333    0.380941   -0.102673
      2          6           0       -4.617058    0.458828   -0.649698
      3          8           0       -3.823190   -0.481555    0.082710
      4          7           0       -2.456568   -0.416611   -0.377841
      5          6           0       -1.604555   -0.214312    0.810813
      6          6           0       -0.170337   -0.519198    0.483115
      7          6           0        0.802453    0.405909    0.451724
      8          6           0        2.232785    0.202089    0.169023
      9          6           0        3.071052    1.328596    0.080207
     10          6           0        4.433777    1.198503   -0.193155
     11          6           0        4.991720   -0.067729   -0.380710
     12          6           0        4.173288   -1.199902   -0.289736
     13          6           0        2.813512   -1.067835   -0.016952
     14          1           0       -6.678468    1.085636   -0.638121
     15          1           0       -6.445087   -0.625592   -0.226549
     16          1           0       -6.055382    0.632936    0.962198
     17          1           0       -4.195758    1.465824   -0.528565
     18          1           0       -4.590560    0.209248   -1.719219
     19          1           0       -2.285881   -1.358294   -0.736741
     20          1           0       -1.714056    0.826720    1.130680
     21          1           0       -1.947825   -0.857274    1.637519
     22          1           0        0.059413   -1.563738    0.271118
     23          1           0        0.522096    1.439744    0.655401
     24          1           0        2.644036    2.318013    0.224287
     25          1           0        5.057705    2.085315   -0.258501
     26          1           0        6.051643   -0.174569   -0.591844
     27          1           0        4.599039   -2.189742   -0.428376
     28          1           0        2.200751   -1.960847    0.058177
 ---------------------------------------------------------------------
                    Distance matrix (angstroms):
                    1          2          3          4          5
     1  C    0.000000
     2  C    1.520243   0.000000
     3  O    2.379706   1.432120   0.000000
     4  N    3.674922   2.346916   1.443600   0.000000
     5  C    4.561015   3.414877   2.350297   1.476397   0.000000
     6  C    5.960547   4.691815   3.674925   2.445122   1.502439
     7  C    6.858276   5.530554   4.724440   3.462071   2.511435
     8  C    8.272516   6.903374   6.095051   4.761500   3.912859
     9  C    9.155398   7.771505   7.127919   5.814649   4.977515
    10  C   10.499380   9.092478   8.430670   7.079517   6.282153
    11  C   11.037681   9.626953   8.836778   7.456455   6.704630
    12  C   10.330013   8.952717   8.037313   6.676548   5.963729
    13  C    8.965097   7.612124   6.663293   5.322413   4.575261
    14  H    1.095216   2.154631   3.335910   4.488756   5.434507
    15  H    1.094530   2.167190   2.643999   3.996855   4.967496
    16  H    1.094503   2.167325   2.645424   3.981045   4.533278
    17  H    2.176014   1.098275   2.074789   2.567306   3.366173
    18  H    2.173544   1.098575   2.076780   2.597098   3.936584
    19  H    4.179758   2.957008   1.950254   1.022111   2.041525
    20  H    4.513982   3.425275   2.694118   2.091132   1.094556
    21  H    4.610078   3.753437   2.464871   2.124777   1.102124
    22  H    6.406485   5.177650   4.035000   2.840283   2.209301
    23  H    6.683516   5.392252   4.785486   3.658700   2.698648
    24  H    8.896959   7.546119   7.048591   5.818667   4.980684
    25  H   11.222312   9.818326   9.250705   7.920743   7.128634
    26  H   12.107623  10.687643   9.902605   8.514343   7.783726
    27  H   10.943575   9.591681   8.608894   7.275173   6.627405
    28  H    8.562125   7.269005   6.202965   4.925992   4.254080
                    6          7          8          9         10
     6  C    0.000000
     7  C    1.342806   0.000000
     8  C    2.528617   1.472179   0.000000
     9  C    3.752770   2.477078   1.406982   0.000000
    10  C    4.960414   3.772345   2.443027   1.395948   0.000000
    11  C    5.253270   4.297352   2.826080   2.418912   1.396360
    12  C    4.464049   3.806694   2.437538   2.782999   2.414442
    13  C    3.074805   2.536915   1.408736   2.412187   2.791522
    14  H    6.796207   7.590387   8.991249   9.778965  11.121723
    15  H    6.315650   7.351931   8.726225   9.719560  11.030781
    16  H    6.015870   6.880554   8.337174   9.195306  10.567742
    17  H    4.600850   5.202547   6.588613   7.293556   8.640187
    18  H    4.991921   5.816894   7.079798   7.949288   9.205767
    19  H    2.582181   3.750022   4.865547   6.048431   7.210166
    20  H    2.148000   2.640243   4.110049   4.924696   6.299731
    21  H    2.146254   3.250503   4.555901   5.691430   6.949995
    22  H    1.090317   2.112874   2.802162   4.179954   5.194284
    23  H    2.084850   1.090367   2.166751   2.615412   4.009924
    24  H    4.004679   2.664451   2.156227   1.087220   2.151914
    25  H    5.887776   4.629470   3.421913   2.152705   1.086274
    26  H    6.323554   5.383306   3.912092   3.405155   2.159113
    27  H    5.135025   4.682526   3.417148   3.869380   3.400418
    28  H    2.807309   2.776986   2.166011   3.402697   3.876992
                   11         12         13         14         15
    11  C    0.000000
    12  C    1.399972   0.000000
    13  C    2.424278   1.393142   0.000000
    14  H   11.729868  11.095299   9.752998   0.000000
    15  H   11.451442  10.634083   9.271524   1.775432   0.000000
    16  H   11.150462  10.466725   9.083427   1.776005   1.774509
    17  H    9.315761   8.786584   7.470679   2.514039   3.086214
    18  H    9.679277   8.990782   7.703826   2.509221   2.522755
    19  H    7.399716   6.476555   5.158127   5.027658   4.253956
    20  H    6.931938   6.386360   5.040364   5.276465   5.131660
    21  H    7.270070   6.426487   5.044992   5.597537   4.873786
    22  H    5.195245   4.167841   2.813177   7.296913   6.590623
    23  H    4.829445   4.603501   3.462744   7.324392   7.320184
    24  H    3.401383   3.870214   3.398659   9.443071   9.564529
    25  H    2.157519   3.402326   3.877770  11.784788  11.817964
    26  H    1.086015   2.161202   3.407920  12.792419  12.510201
    27  H    2.158567   1.086401   2.148500  11.745393  11.156165
    28  H    3.400886   2.142658   1.085629   9.413098   8.752970
                   16         17         18         19         20
    16  H    0.000000
    17  H    2.524733   0.000000
    18  H    3.084674   1.775531   0.000000
    19  H    4.589175   3.415642   2.955334   0.000000
    20  H    4.348914   3.052932   4.096031   2.930620   0.000000
    21  H    4.421403   3.891260   4.403318   2.449982   1.774083
    22  H    6.534041   5.284337   5.359773   2.560936   3.098117
    23  H    6.633874   4.864216   5.769939   4.201406   2.366868
    24  H    8.891787   6.933671   7.782254   6.224379   4.694515
    25  H   11.273873   9.278108   9.936918   8.124987   7.026424
    26  H   12.233036  10.378060  10.708631   8.422381   8.017216
    27  H   11.109361   9.524792   9.584892   6.941795   7.168324
    28  H    8.701074   7.280224   7.347813   4.596176   4.924074
                   21         22         23         24         25
    21  H    0.000000
    22  H    2.528863   0.000000
    23  H    3.513027   3.063112   0.000000
    24  H    5.758894   4.663739   2.336631   0.000000
    25  H    7.831422   6.211200   4.671587   2.472454   0.000000
    26  H    8.332325   6.211386   5.893854   4.300095   2.491206
    27  H    6.993198   4.635664   5.564998   4.956598   4.302946
    28  H    4.574153   2.188234   3.839086   4.304967   4.963255
                   26         27         28
    26  H    0.000000
    27  H    2.489519   0.000000
    28  H    4.294495   2.457827   0.000000
 Stoichiometry    C11H15NO
 Framework group  C1[X(C11H15NO)]
 Deg. of freedom    78
 Full point group                 C1      NOp   1
 Largest Abelian subgroup         C1      NOp   1
 Largest concise Abelian subgroup C1      NOp   1
                         Standard orientation:                         
 ---------------------------------------------------------------------
 Center     Atomic      Atomic             Coordinates (Angstroms)
 Number     Number       Type             X           Y           Z
 ---------------------------------------------------------------------
      1          6           0       -6.033333    0.380941   -0.102673
      2          6           0       -4.617058    0.458828   -0.649698
      3          8           0       -3.823190   -0.481555    0.082710
      4          7           0       -2.456568   -0.416611   -0.377841
      5          6           0       -1.604555   -0.214312    0.810813
      6          6           0       -0.170337   -0.519198    0.483115
      7          6           0        0.802453    0.405909    0.451724
      8          6           0        2.232785    0.202089    0.169023
      9          6           0        3.071052    1.328596    0.080207
     10          6           0        4.433777    1.198503   -0.193155
     11          6           0        4.991720   -0.067729   -0.380710
     12          6           0        4.173288   -1.199902   -0.289736
     13          6           0        2.813512   -1.067835   -0.016952
     14          1           0       -6.678468    1.085636   -0.638121
     15          1           0       -6.445087   -0.625592   -0.226549
     16          1           0       -6.055382    0.632936    0.962198
     17          1           0       -4.195758    1.465824   -0.528565
     18          1           0       -4.590560    0.209248   -1.719219
     19          1           0       -2.285881   -1.358294   -0.736741
     20          1           0       -1.714056    0.826720    1.130680
     21          1           0       -1.947825   -0.857274    1.637519
     22          1           0        0.059413   -1.563738    0.271118
     23          1           0        0.522096    1.439744    0.655401
     24          1           0        2.644036    2.318013    0.224287
     25          1           0        5.057705    2.085315   -0.258501
     26          1           0        6.051643   -0.174569   -0.591844
     27          1           0        4.599039   -2.189742   -0.428376
     28          1           0        2.200751   -1.960847    0.058177
 ---------------------------------------------------------------------
 Rotational constants (GHZ):           3.3460160           0.2135708           0.2063989
 Standard basis: 6-31+G(d,p) (6D, 7F)
 There are   322 symmetry adapted cartesian basis functions of A   symmetry.
 There are   322 symmetry adapted basis functions of A   symmetry.
   322 basis functions,   521 primitive gaussians,   322 cartesian basis functions
    48 alpha electrons       48 beta electrons
       nuclear repulsion energy       701.8333313704 Hartrees.
 NAtoms=   28 NActive=   28 NUniq=   28 SFac= 1.00D+00 NAtFMM=   60 NAOKFM=F Big=F
 Integral buffers will be    131072 words long.
 Regular integral format.
 Two-electron integral symmetry is turned on.
 One-electron integrals computed using PRISM.
 NBasis=   322 RedAO= T EigKep=  1.73D-06  NBF=   322
 NBsUse=   322 1.00D-06 EigRej= -1.00D+00 NBFU=   322
 ExpMin= 4.38D-02 ExpMax= 5.48D+03 ExpMxC= 8.25D+02 IAcc=3 IRadAn=         5 AccDes= 0.00D+00
 Harris functional with IExCor=  402 and IRadAn=       5 diagonalized for initial guess.
 HarFok:  IExCor=  402 AccDes= 0.00D+00 IRadAn=         5 IDoV= 1 UseB2=F ITyADJ=14
 ICtDFT=  3500011 ScaDFX=  1.000000  1.000000  1.000000  1.000000
 FoFCou: FMM=F IPFlag=           0 FMFlag=      100000 FMFlg1=           0
         NFxFlg=           0 DoJE=T BraDBF=F KetDBF=T FulRan=T
         wScrn=  0.000000 ICntrl=       500 IOpCl=  0 I1Cent=   200000004 NGrid=           0
         NMat0=    1 NMatS0=      1 NMatT0=    0 NMatD0=    1 NMtDS0=    0 NMtDT0=    0
 Petite list used in FoFCou.
 Requested convergence on RMS density matrix=1.00D-08 within 128 cycles.
 Requested convergence on MAX density matrix=1.00D-06.
 Requested convergence on             energy=1.00D-06.
 No special actions if energy rises.
 SCF Done:  E(RB3LYP) =  -558.145586636     A.U. after   14 cycles
            NFock= 14  Conv=0.71D-08     -V/T= 2.0098
 DoSCS=F DFT=T ScalE2(SS,OS)=  1.000000  1.000000
 ExpMin= 4.38D-02 ExpMax= 5.48D+03 ExpMxC= 8.25D+02 IAcc=3 IRadAn=         5 AccDes= 0.00D+00
 HarFok:  IExCor=  205 AccDes= 0.00D+00 IRadAn=         5 IDoV=-2 UseB2=F ITyADJ=14
 ICtDFT= 12500011 ScaDFX=  1.000000  1.000000  1.000000  1.000000
 Range of M.O.s used for correlation:    14   322
 NBasis=   322 NAE=    48 NBE=    48 NFC=    13 NFV=     0
 NROrb=    309 NOA=    35 NOB=    35 NVA=   274 NVB=   274

 **** Warning!!: The largest alpha MO coefficient is  0.14663685D+03

 Orbital symmetries:
       Occupied  (A) (A) (A) (A) (A) (A) (A) (A) (A) (A) (A) (A)
                 (A) (A) (A) (A) (A) (A) (A) (A) (A) (A) (A) (A)
                 (A) (A) (A) (A) (A) (A) (A) (A) (A) (A) (A) (A)
                 (A) (A) (A) (A) (A) (A) (A) (A) (A) (A) (A) (A)
       Virtual   (A) (A) (A) (A) (A) (A) (A) (A) (A) (A) (A) (A)
                 (A) (A) (A) (A) (A) (A) (A) (A) (A) (A) (A) (A)
                 (A) (A) (A) (A) (A) (A) (A) (A) (A) (A) (A) (A)
                 (A) (A) (A) (A) (A) (A) (A) (A) (A) (A) (A) (A)
                 (A) (A) (A) (A) (A) (A) (A) (A) (A) (A) (A) (A)
                 (A) (A) (A) (A) (A) (A) (A) (A) (A) (A) (A) (A)
                 (A) (A) (A) (A) (A) (A) (A) (A) (A) (A) (A) (A)
                 (A) (A) (A) (A) (A) (A) (A) (A) (A) (A) (A) (A)
                 (A) (A) (A) (A) (A) (A) (A) (A) (A) (A) (A) (A)
                 (A) (A) (A) (A) (A) (A) (A) (A) (A) (A) (A) (A)
                 (A) (A) (A) (A) (A) (A) (A) (A) (A) (A) (A) (A)
                 (A) (A) (A) (A) (A) (A) (A) (A) (A) (A) (A) (A)
                 (A) (A) (A) (A) (A) (A) (A) (A) (A) (A) (A) (A)
                 (A) (A) (A) (A) (A) (A) (A) (A) (A) (A) (A) (A)
                 (A) (A) (A) (A) (A) (A) (A) (A) (A) (A) (A) (A)
                 (A) (A) (A) (A) (A) (A) (A) (A) (A) (A) (A) (A)
                 (A) (A) (A) (A) (A) (A) (A) (A) (A) (A) (A) (A)
                 (A) (A) (A) (A) (A) (A) (A) (A) (A) (A) (A) (A)
                 (A) (A) (A) (A) (A) (A) (A) (A) (A) (A) (A) (A)
                 (A) (A) (A) (A) (A) (A) (A) (A) (A) (A) (A) (A)
                 (A) (A) (A) (A) (A) (A) (A) (A) (A) (A) (A) (A)
                 (A) (A) (A) (A) (A) (A) (A) (A) (A) (A) (A) (A)
                 (A) (A) (A) (A) (A) (A) (A) (A) (A) (A)
    24 initial guesses have been made.
 Convergence on wavefunction:    0.001000000000000
 Iteration     1 Dimension    24 NMult     0 NNew     24
 CISAX will form    24 AO SS matrices at one time.
 New state      1 was old state      2
 New state      2 was old state      6
 New state      3 was old state     18
 New state      5 was old state      3
 New state      6 was old state      8
 New state      8 was old state      9
 New state      9 was old state     10
 New state     10 was old state      1
 New state     11 was old state     14
 New state     12 was old state     13
 Vector   4 SDiff=7.74D+00 TDiff=8.18D+00 assumed to be singlet.
 Vector   6 SDiff=1.59D+00 TDiff=2.22D+01 assumed to be singlet.
 Vector  10 SDiff=7.78D+00 TDiff=8.04D+00 assumed to be singlet.
 Vector  12 SDiff=1.00D+00 TDiff=1.44D+01 assumed to be singlet.
 Iteration     2 Dimension    36 NMult    24 NNew     12
 New state      4 was old state      5
 New state      5 was old state      7
 New state      6 was old state      8
 Iteration     3 Dimension    48 NMult    36 NNew     12
 Iteration     4 Dimension    60 NMult    48 NNew     12
 Iteration     5 Dimension    72 NMult    60 NNew     12
 Iteration     6 Dimension    82 NMult    72 NNew     10
 Iteration     7 Dimension    84 NMult    82 NNew      2
 ***********************************************************************
 Excited states from <AA,BB:AA,BB> singles matrix:
 ***********************************************************************
 
 Ground to excited state transition densities written to RWF  633
 Ground to excited state transition electric dipole moments (Au):
       state          X           Y           Z        Dip. S.      Osc.
         1        -0.0000     -0.0000      0.0000      0.0000      0.0000
         2        -0.0000      0.0000     -0.0000      0.0000      0.0000
         3        -0.0000      0.0000      0.0000      0.0000      0.0000
         4         1.3199      0.0649     -0.1141      1.7595      0.1966
         5        -1.0695     -0.0581      0.1356      1.1655      0.1345
         6        -1.3691      0.0186      0.1531      1.8983      0.2243
 Ground to excited state transition velocity dipole moments (Au):
       state          X           Y           Z        Dip. S.      Osc.
         1         0.0000      0.0000     -0.0000      0.0000      0.0000
         2        -0.0000     -0.0000      0.0000      0.0000      0.0000
         3        -0.0000     -0.0000      0.0000      0.0000      0.0000
         4        -0.2136     -0.0063      0.0146      0.0459      0.1825
         5         0.1867      0.0094     -0.0254      0.0356      0.1371
         6         0.2386     -0.0038     -0.0273      0.0577      0.2170
 Ground to excited state transition magnetic dipole moments (Au):
       state          X           Y           Z
         1         0.0000     -0.0000     -0.0000
         2        -0.0000     -0.0000     -0.0000
         3        -0.0000      0.0000     -0.0000
         4         0.0491     -0.4064      0.3020
         5        -0.1062      0.1554     -0.4821
         6        -0.0735      0.2626     -0.3832
 Ground to excited state transition velocity quadrupole moments (Au):
       state          XX          YY          ZZ          XY          XZ          YZ
         1         0.0000      0.0000     -0.0000     -0.0000      0.0000      0.0000
         2        -0.0000     -0.0000     -0.0000      0.0000      0.0000      0.0000
         3         0.0000      0.0000      0.0000     -0.0000     -0.0000     -0.0000
         4        -0.9759     -0.1044      0.0831      0.1346      0.0900     -0.0474
         5         0.9360      0.0230     -0.0105     -0.1569     -0.0927      0.0390
         6         1.0456      0.0553     -0.0146     -0.2119     -0.1007      0.0383
 <0|del|b> * <b|rxdel|0> + <0|del|b> * <b|delr+rdel|0>
 Rotatory Strengths (R) in cgs (10**-40 erg-esu-cm/Gauss)
       state          XX          YY          ZZ    R(velocity)    E-M Angle
         1         0.0000      0.0000     -0.0000      0.0000       90.00
         2        -0.0000     -0.0000      0.0000     -0.0000       90.00
         3        -0.0000      0.0000      0.0000     -0.0000       90.00
         4        19.9671      4.3730    -39.3310     -4.9970       91.87
         5        37.8893     -8.7729    -54.1772     -8.3536       93.60
         6        29.6624     -7.4011    -54.4500    -10.7296       94.10
 1/2[<0|r|b>*<b|rxdel|0> + (<0|rxdel|b>*<b|r|0>)*]
 Rotatory Strengths (R) in cgs (10**-40 erg-esu-cm/Gauss)
       state          XX          YY          ZZ     R(length)
         1         0.0000     -0.0000      0.0000      0.0000
         2        -0.0000      0.0000     -0.0000     -0.0000
         3        -0.0000     -0.0000      0.0000     -0.0000
         4       -45.8629     18.6451     24.3767     -0.9470
         5       -80.3429      6.3810     46.2294     -9.2442
         6       -71.1517     -3.4615     41.4772    -11.0453
  1/2[<0|del|b>*<b|r|0> + (<0|r|b>*<b|del|0>)*] (Au)
       state          X           Y           Z        Dip. S.   Osc.(frdel)
         1        -0.0000     -0.0000     -0.0000      0.0000      0.0000
         2         0.0000     -0.0000     -0.0000      0.0000      0.0000
         3         0.0000     -0.0000      0.0000      0.0000      0.0000
         4        -0.2820     -0.0004     -0.0017      0.2840      0.1893
         5        -0.1997     -0.0005     -0.0034      0.2037      0.1358
         6        -0.3266     -0.0001     -0.0042      0.3309      0.2206

 Excitation energies and oscillator strengths:
 
 Excited State   1:      Triplet-A      2.8281 eV  438.39 nm  f=0.0000  <S**2>=2.000
      44 -> 56         0.10377
      46 -> 50         0.15478
      47 -> 49        -0.10854
      48 -> 49         0.66505
      48 <- 49         0.10149
 This state for optimization and/or second-order correction.
 Total Energy, E(TD-HF/TD-DFT) =  -558.041654082    
 Copying the excited state density for this state as the 1-particle RhoCI density.
 
 Excited State   2:      Triplet-A      4.1180 eV  301.08 nm  f=0.0000  <S**2>=2.000
      44 -> 49        -0.25425
      46 -> 49        -0.35160
      46 -> 50         0.47919
      48 -> 56        -0.16918
 
 Excited State   3:      Triplet-A      4.2347 eV  292.78 nm  f=0.0000  <S**2>=2.000
      44 -> 49        -0.11034
      46 -> 49         0.39588
      46 -> 50         0.24330
      48 -> 50         0.48482
 
 Excited State   4:      Singlet-A      4.5615 eV  271.81 nm  f=0.1966  <S**2>=0.000
      47 -> 49         0.48411
      48 -> 49         0.49124
      48 -> 50        -0.10553
 
 Excited State   5:      Singlet-A      4.7116 eV  263.15 nm  f=0.1345  <S**2>=0.000
      46 -> 49        -0.29353
      47 -> 49         0.43657
      48 -> 49        -0.31330
      48 -> 50         0.33531
 
 Excited State   6:      Singlet-A      4.8221 eV  257.12 nm  f=0.2243  <S**2>=0.000
      46 -> 49         0.41745
      47 -> 49         0.26006
      48 -> 49        -0.37507
      48 -> 50        -0.32667
 SavETr:  write IOETrn=   770 NScale= 10 NData=  16 NLR=1 NState=    6 LETran=     118.

 **********************************************************************

            Population analysis using the SCF Density.

 **********************************************************************

 Orbital symmetries:
       Occupied  (A) (A) (A) (A) (A) (A) (A) (A) (A) (A) (A) (A)
                 (A) (A) (A) (A) (A) (A) (A) (A) (A) (A) (A) (A)
                 (A) (A) (A) (A) (A) (A) (A) (A) (A) (A) (A) (A)
                 (A) (A) (A) (A) (A) (A) (A) (A) (A) (A) (A) (A)
       Virtual   (A) (A) (A) (A) (A) (A) (A) (A) (A) (A) (A) (A)
                 (A) (A) (A) (A) (A) (A) (A) (A) (A) (A) (A) (A)
                 (A) (A) (A) (A) (A) (A) (A) (A) (A) (A) (A) (A)
                 (A) (A) (A) (A) (A) (A) (A) (A) (A) (A) (A) (A)
                 (A) (A) (A) (A) (A) (A) (A) (A) (A) (A) (A) (A)
                 (A) (A) (A) (A) (A) (A) (A) (A) (A) (A) (A) (A)
                 (A) (A) (A) (A) (A) (A) (A) (A) (A) (A) (A) (A)
                 (A) (A) (A) (A) (A) (A) (A) (A) (A) (A) (A) (A)
                 (A) (A) (A) (A) (A) (A) (A) (A) (A) (A) (A) (A)
                 (A) (A) (A) (A) (A) (A) (A) (A) (A) (A) (A) (A)
                 (A) (A) (A) (A) (A) (A) (A) (A) (A) (A) (A) (A)
                 (A) (A) (A) (A) (A) (A) (A) (A) (A) (A) (A) (A)
                 (A) (A) (A) (A) (A) (A) (A) (A) (A) (A) (A) (A)
                 (A) (A) (A) (A) (A) (A) (A) (A) (A) (A) (A) (A)
                 (A) (A) (A) (A) (A) (A) (A) (A) (A) (A) (A) (A)
                 (A) (A) (A) (A) (A) (A) (A) (A) (A) (A) (A) (A)
                 (A) (A) (A) (A) (A) (A) (A) (A) (A) (A) (A) (A)
                 (A) (A) (A) (A) (A) (A) (A) (A) (A) (A) (A) (A)
                 (A) (A) (A) (A) (A) (A) (A) (A) (A) (A) (A) (A)
                 (A) (A) (A) (A) (A) (A) (A) (A) (A) (A) (A) (A)
                 (A) (A) (A) (A) (A) (A) (A) (A) (A) (A) (A) (A)
                 (A) (A) (A) (A) (A) (A) (A) (A) (A) (A) (A) (A)
                 (A) (A) (A) (A) (A) (A) (A) (A) (A) (A)
 The electronic state is 1-A.
 Alpha  occ. eigenvalues --  -19.17733 -14.37810 -10.23032 -10.21978 -10.21085
 Alpha  occ. eigenvalues --  -10.20460 -10.20242 -10.20184 -10.20132 -10.20084
 Alpha  occ. eigenvalues --  -10.20072 -10.20048 -10.18059  -1.06153  -0.86888
 Alpha  occ. eigenvalues --   -0.86076  -0.80040  -0.75582  -0.75327  -0.72754
 Alpha  occ. eigenvalues --   -0.66612  -0.62116  -0.60645  -0.60506  -0.56661
 Alpha  occ. eigenvalues --   -0.52561  -0.50992  -0.48681  -0.47817  -0.46547
 Alpha  occ. eigenvalues --   -0.45243  -0.44781  -0.42946  -0.42755  -0.41343
 Alpha  occ. eigenvalues --   -0.39815  -0.38166  -0.38022  -0.37091  -0.36408
 Alpha  occ. eigenvalues --   -0.35311  -0.34966  -0.34563  -0.30683  -0.26934
 Alpha  occ. eigenvalues --   -0.26171  -0.24671  -0.23128
 Alpha virt. eigenvalues --   -0.05007  -0.01812   0.00243   0.01007   0.01355
 Alpha virt. eigenvalues --    0.02095   0.02866   0.03017   0.03277   0.03734
 Alpha virt. eigenvalues --    0.04629   0.05274   0.05487   0.06226   0.06624
 Alpha virt. eigenvalues --    0.06733   0.07590   0.07664   0.08381   0.08825
 Alpha virt. eigenvalues --    0.09198   0.09368   0.09930   0.10801   0.11369
 Alpha virt. eigenvalues --    0.11843   0.12837   0.13501   0.14070   0.14515
 Alpha virt. eigenvalues --    0.14708   0.15296   0.15522   0.15911   0.16321
 Alpha virt. eigenvalues --    0.17404   0.17993   0.18347   0.18626   0.19104
 Alpha virt. eigenvalues --    0.19429   0.19923   0.20439   0.20868   0.20931
 Alpha virt. eigenvalues --    0.21316   0.21548   0.22624   0.23154   0.23311
 Alpha virt. eigenvalues --    0.23479   0.24376   0.24598   0.24932   0.25322
 Alpha virt. eigenvalues --    0.25932   0.26071   0.27121   0.27218   0.28078
 Alpha virt. eigenvalues --    0.28156   0.28964   0.29655   0.29905   0.30532
 Alpha virt. eigenvalues --    0.31716   0.32171   0.32384   0.33132   0.33803
 Alpha virt. eigenvalues --    0.34235   0.34781   0.35402   0.36548   0.37272
 Alpha virt. eigenvalues --    0.37948   0.39738   0.41695   0.44052   0.45708
 Alpha virt. eigenvalues --    0.47314   0.50356   0.57254   0.60465   0.65062
 Alpha virt. eigenvalues --    0.65645   0.65990   0.66367   0.66897   0.67902
 Alpha virt. eigenvalues --    0.68833   0.69844   0.70817   0.71053   0.71988
 Alpha virt. eigenvalues --    0.73645   0.73845   0.74323   0.74957   0.75407
 Alpha virt. eigenvalues --    0.76279   0.77033   0.78241   0.78930   0.81214
 Alpha virt. eigenvalues --    0.81443   0.82390   0.83741   0.86117   0.88106
 Alpha virt. eigenvalues --    0.89149   0.90820   0.92153   0.92339   0.92515
 Alpha virt. eigenvalues --    0.93369   0.94433   0.97065   0.99029   0.99844
 Alpha virt. eigenvalues --    1.00788   1.01452   1.02400   1.03226   1.06139
 Alpha virt. eigenvalues --    1.06214   1.07157   1.08353   1.08827   1.10352
 Alpha virt. eigenvalues --    1.12270   1.13493   1.14278   1.14712   1.15797
 Alpha virt. eigenvalues --    1.16460   1.20263   1.22706   1.24727   1.26573
 Alpha virt. eigenvalues --    1.27074   1.29573   1.29968   1.31977   1.34479
 Alpha virt. eigenvalues --    1.36111   1.39050   1.39539   1.40090   1.40567
 Alpha virt. eigenvalues --    1.41014   1.43305   1.44921   1.45711   1.46850
 Alpha virt. eigenvalues --    1.50537   1.51208   1.59066   1.60811   1.63730
 Alpha virt. eigenvalues --    1.66300   1.67250   1.73342   1.78059   1.79124
 Alpha virt. eigenvalues --    1.81659   1.82560   1.82975   1.87812   1.88187
 Alpha virt. eigenvalues --    1.89694   1.90817   1.91449   1.94529   1.94717
 Alpha virt. eigenvalues --    1.95607   1.96519   1.97512   1.99484   2.00484
 Alpha virt. eigenvalues --    2.00882   2.02672   2.03466   2.04528   2.06723
 Alpha virt. eigenvalues --    2.07149   2.08249   2.09695   2.10346   2.12134
 Alpha virt. eigenvalues --    2.13381   2.14866   2.19151   2.22024   2.22675
 Alpha virt. eigenvalues --    2.25218   2.27493   2.28415   2.29348   2.31583
 Alpha virt. eigenvalues --    2.32611   2.35905   2.37259   2.38293   2.38795
 Alpha virt. eigenvalues --    2.39938   2.40126   2.45475   2.46768   2.47433
 Alpha virt. eigenvalues --    2.48911   2.50650   2.51608   2.52249   2.53092
 Alpha virt. eigenvalues --    2.55402   2.57008   2.57922   2.58989   2.61025
 Alpha virt. eigenvalues --    2.63755   2.65395   2.66105   2.66717   2.70178
 Alpha virt. eigenvalues --    2.71626   2.73512   2.74437   2.75681   2.76113
 Alpha virt. eigenvalues --    2.78254   2.79963   2.82442   2.85309   2.87135
 Alpha virt. eigenvalues --    2.88875   2.90186   2.93233   2.95255   2.95886
 Alpha virt. eigenvalues --    2.98183   3.06131   3.09252   3.16008   3.18968
 Alpha virt. eigenvalues --    3.25410   3.26334   3.27786   3.31035   3.32337
 Alpha virt. eigenvalues --    3.33494   3.40385   3.41641   3.42693   3.47561
 Alpha virt. eigenvalues --    3.48989   3.51733   3.52581   3.53296   3.58098
 Alpha virt. eigenvalues --    3.89947   4.16663   4.26578   4.28908   4.30784
 Alpha virt. eigenvalues --    4.37288   4.41577   4.44201   4.47172   4.49431
 Alpha virt. eigenvalues --    4.57144   4.64585   4.65480   4.86958
          Condensed to atoms (all electrons):
               1          2          3          4          5          6
     1  C    5.182913   0.199410  -0.057217  -0.023863  -0.022478   0.004869
     2  C    0.199410   5.152625   0.091842  -0.069792  -0.055194  -0.041167
     3  O   -0.057217   0.091842   8.122938   0.102179  -0.051713   0.062139
     4  N   -0.023863  -0.069792   0.102179   7.128737   0.322011  -0.304787
     5  C   -0.022478  -0.055194  -0.051713   0.322011   8.758471  -3.305586
     6  C    0.004869  -0.041167   0.062139  -0.304787  -3.305586  14.024078
     7  C    0.004642   0.041688  -0.007372   0.121406   0.852926  -6.940691
     8  C   -0.000408  -0.000458  -0.002879  -0.000475  -0.522070   3.152556
     9  C   -0.000074   0.003244   0.001177   0.018176   0.074475  -2.529760
    10  C   -0.000010  -0.000023   0.000102   0.000896  -0.034797   0.173291
    11  C    0.000002   0.000072  -0.000004   0.000855   0.016749  -0.101218
    12  C    0.000013  -0.000051   0.000493  -0.007230  -0.293545  -0.372437
    13  C    0.000320  -0.001688   0.001112  -0.022152   0.008894   2.066904
    14  H    0.416966  -0.062978   0.006747  -0.000699   0.000994  -0.000230
    15  H    0.416368  -0.051078  -0.003892   0.001339  -0.001730   0.000673
    16  H    0.416990  -0.056564  -0.002067   0.001682  -0.001521   0.002568
    17  H   -0.040599   0.420875  -0.060048   0.009095  -0.011577   0.001029
    18  H   -0.034923   0.399845  -0.055001  -0.000082  -0.009304   0.009495
    19  H    0.006446   0.011098  -0.063020   0.346928  -0.024814  -0.089853
    20  H    0.001716   0.007114   0.012043  -0.061075   0.665221  -0.471928
    21  H   -0.005144  -0.003479  -0.003713  -0.083373   0.445170   0.044537
    22  H    0.000047   0.001255   0.000371   0.004599   0.104901   0.201507
    23  H    0.000037   0.000656   0.000078   0.003504  -0.073457  -0.012715
    24  H    0.000000   0.000004  -0.000000   0.000036   0.003008   0.003134
    25  H   -0.000000   0.000000  -0.000000  -0.000000  -0.000085   0.000993
    26  H    0.000000   0.000000  -0.000000   0.000000   0.000036   0.000434
    27  H    0.000000   0.000000   0.000000   0.000002   0.000037  -0.000160
    28  H   -0.000000  -0.000000   0.000004  -0.000074   0.005552  -0.020553
               7          8          9         10         11         12
     1  C    0.004642  -0.000408  -0.000074  -0.000010   0.000002   0.000013
     2  C    0.041688  -0.000458   0.003244  -0.000023   0.000072  -0.000051
     3  O   -0.007372  -0.002879   0.001177   0.000102  -0.000004   0.000493
     4  N    0.121406  -0.000475   0.018176   0.000896   0.000855  -0.007230
     5  C    0.852926  -0.522070   0.074475  -0.034797   0.016749  -0.293545
     6  C   -6.940691   3.152556  -2.529760   0.173291  -0.101218  -0.372437
     7  C   23.272149 -13.713959   9.277913  -2.402945   0.063928   1.935062
     8  C  -13.713959  19.762650  -9.557137   2.568638  -0.237375  -1.232903
     9  C    9.277913  -9.557137  16.231574  -3.149800   0.035633   1.833294
    10  C   -2.402945   2.568638  -3.149800   6.943437   0.592440  -0.542077
    11  C    0.063928  -0.237375   0.035633   0.592440   5.175073   0.487914
    12  C    1.935062  -1.232903   1.833294  -0.542077   0.487914  10.183754
    13  C   -6.590321   5.017190  -6.266384   1.688013  -0.213585  -6.040601
    14  H    0.000027   0.000007   0.000000   0.000000   0.000000  -0.000000
    15  H    0.000006   0.000002   0.000000  -0.000000   0.000000  -0.000000
    16  H   -0.000140  -0.000015   0.000001  -0.000000   0.000000   0.000000
    17  H    0.001837   0.000612  -0.000058   0.000006  -0.000001   0.000009
    18  H    0.000933  -0.000010   0.000091   0.000001   0.000000  -0.000009
    19  H    0.056341  -0.008260   0.002575  -0.000040   0.000049  -0.000785
    20  H    0.187480  -0.030432   0.015570   0.000020   0.000166  -0.001857
    21  H   -0.089382   0.003331   0.000850   0.000217  -0.000037  -0.001428
    22  H    0.045293  -0.043002  -0.001038  -0.001078  -0.001589  -0.001659
    23  H    0.260418   0.057919   0.023326   0.023290  -0.000547   0.012143
    24  H    0.038830  -0.000280   0.222504   0.009371   0.001018  -0.004660
    25  H   -0.004872   0.014709   0.020712   0.265196   0.011789   0.011292
    26  H    0.000632   0.001005   0.008924   0.007685   0.261235  -0.004520
    27  H   -0.003467   0.000688  -0.006411   0.005511   0.021586   0.259748
    28  H    0.040653   0.042374   0.043820  -0.002195   0.001647   0.036755
              13         14         15         16         17         18
     1  C    0.000320   0.416966   0.416368   0.416990  -0.040599  -0.034923
     2  C   -0.001688  -0.062978  -0.051078  -0.056564   0.420875   0.399845
     3  O    0.001112   0.006747  -0.003892  -0.002067  -0.060048  -0.055001
     4  N   -0.022152  -0.000699   0.001339   0.001682   0.009095  -0.000082
     5  C    0.008894   0.000994  -0.001730  -0.001521  -0.011577  -0.009304
     6  C    2.066904  -0.000230   0.000673   0.002568   0.001029   0.009495
     7  C   -6.590321   0.000027   0.000006  -0.000140   0.001837   0.000933
     8  C    5.017190   0.000007   0.000002  -0.000015   0.000612  -0.000010
     9  C   -6.266384   0.000000   0.000000   0.000001  -0.000058   0.000091
    10  C    1.688013   0.000000  -0.000000  -0.000000   0.000006   0.000001
    11  C   -0.213585   0.000000   0.000000   0.000000  -0.000001   0.000000
    12  C   -6.040601  -0.000000  -0.000000   0.000000   0.000009  -0.000009
    13  C   16.344195  -0.000001  -0.000001   0.000000   0.000113  -0.000109
    14  H   -0.000001   0.551444  -0.026907  -0.027136  -0.001534  -0.001835
    15  H   -0.000001  -0.026907   0.537292  -0.028395   0.004706  -0.006374
    16  H    0.000000  -0.027136  -0.028395   0.538360  -0.006393   0.004882
    17  H    0.000113  -0.001534   0.004706  -0.006393   0.604235  -0.049498
    18  H   -0.000109  -0.001835  -0.006374   0.004882  -0.049498   0.613018
    19  H   -0.004136   0.000005  -0.000018   0.000008  -0.000863   0.002306
    20  H   -0.011906   0.000000   0.000001   0.000001   0.000093   0.000024
    21  H   -0.006536   0.000000   0.000001  -0.000013   0.000112  -0.000038
    22  H   -0.023326  -0.000000  -0.000000  -0.000000   0.000000   0.000000
    23  H   -0.019311   0.000000  -0.000000  -0.000000   0.000001   0.000000
    24  H    0.019612   0.000000  -0.000000  -0.000000   0.000000  -0.000000
    25  H   -0.010083   0.000000   0.000000   0.000000   0.000000  -0.000000
    26  H    0.033465   0.000000  -0.000000   0.000000  -0.000000  -0.000000
    27  H    0.030911   0.000000  -0.000000  -0.000000   0.000000  -0.000000
    28  H    0.144251   0.000000   0.000000   0.000000   0.000000   0.000000
              19         20         21         22         23         24
     1  C    0.006446   0.001716  -0.005144   0.000047   0.000037   0.000000
     2  C    0.011098   0.007114  -0.003479   0.001255   0.000656   0.000004
     3  O   -0.063020   0.012043  -0.003713   0.000371   0.000078  -0.000000
     4  N    0.346928  -0.061075  -0.083373   0.004599   0.003504   0.000036
     5  C   -0.024814   0.665221   0.445170   0.104901  -0.073457   0.003008
     6  C   -0.089853  -0.471928   0.044537   0.201507  -0.012715   0.003134
     7  C    0.056341   0.187480  -0.089382   0.045293   0.260418   0.038830
     8  C   -0.008260  -0.030432   0.003331  -0.043002   0.057919  -0.000280
     9  C    0.002575   0.015570   0.000850  -0.001038   0.023326   0.222504
    10  C   -0.000040   0.000020   0.000217  -0.001078   0.023290   0.009371
    11  C    0.000049   0.000166  -0.000037  -0.001589  -0.000547   0.001018
    12  C   -0.000785  -0.001857  -0.001428  -0.001659   0.012143  -0.004660
    13  C   -0.004136  -0.011906  -0.006536  -0.023326  -0.019311   0.019612
    14  H    0.000005   0.000000   0.000000  -0.000000   0.000000   0.000000
    15  H   -0.000018   0.000001   0.000001  -0.000000  -0.000000  -0.000000
    16  H    0.000008   0.000001  -0.000013  -0.000000  -0.000000  -0.000000
    17  H   -0.000863   0.000093   0.000112   0.000000   0.000001   0.000000
    18  H    0.002306   0.000024  -0.000038   0.000000   0.000000  -0.000000
    19  H    0.471168   0.006207  -0.006636   0.002853   0.000005   0.000000
    20  H    0.006207   0.584141  -0.045117   0.004304   0.003644   0.000002
    21  H   -0.006636  -0.045117   0.605169  -0.004705   0.000136  -0.000000
    22  H    0.002853   0.004304  -0.004705   0.592737   0.005348   0.000001
    23  H    0.000005   0.003644   0.000136   0.005348   0.596613   0.003988
    24  H    0.000000   0.000002  -0.000000   0.000001   0.003988   0.588704
    25  H    0.000000  -0.000000   0.000000   0.000000  -0.000005  -0.005773
    26  H    0.000000   0.000000  -0.000000  -0.000000  -0.000000  -0.000160
    27  H   -0.000000   0.000000   0.000000   0.000008   0.000002   0.000016
    28  H    0.000003   0.000000   0.000004   0.001058  -0.000022  -0.000151
              25         26         27         28
     1  C   -0.000000   0.000000   0.000000  -0.000000
     2  C    0.000000   0.000000   0.000000  -0.000000
     3  O   -0.000000  -0.000000   0.000000   0.000004
     4  N   -0.000000   0.000000   0.000002  -0.000074
     5  C   -0.000085   0.000036   0.000037   0.005552
     6  C    0.000993   0.000434  -0.000160  -0.020553
     7  C   -0.004872   0.000632  -0.003467   0.040653
     8  C    0.014709   0.001005   0.000688   0.042374
     9  C    0.020712   0.008924  -0.006411   0.043820
    10  C    0.265196   0.007685   0.005511  -0.002195
    11  C    0.011789   0.261235   0.021586   0.001647
    12  C    0.011292  -0.004520   0.259748   0.036755
    13  C   -0.010083   0.033465   0.030911   0.144251
    14  H    0.000000   0.000000   0.000000   0.000000
    15  H    0.000000  -0.000000  -0.000000   0.000000
    16  H    0.000000   0.000000  -0.000000   0.000000
    17  H    0.000000  -0.000000   0.000000   0.000000
    18  H   -0.000000  -0.000000  -0.000000   0.000000
    19  H    0.000000   0.000000  -0.000000   0.000003
    20  H   -0.000000   0.000000   0.000000   0.000000
    21  H    0.000000  -0.000000   0.000000   0.000004
    22  H    0.000000  -0.000000   0.000008   0.001058
    23  H   -0.000005  -0.000000   0.000002  -0.000022
    24  H   -0.005773  -0.000160   0.000016  -0.000151
    25  H    0.575301  -0.005569  -0.000169   0.000015
    26  H   -0.005569   0.577369  -0.005568  -0.000161
    27  H   -0.000169  -0.005568   0.577519  -0.006148
    28  H    0.000015  -0.000161  -0.006148   0.601214
 Mulliken charges:
               1
     1  C   -0.466024
     2  C    0.012745
     3  O   -0.094298
     4  N   -0.487843
     5  C   -0.850573
     6  C    0.442879
     7  C   -0.449015
     8  C    0.727982
     9  C   -0.303199
    10  C   -0.145151
    11  C   -0.115800
    12  C   -0.256717
    13  C   -0.144837
    14  H    0.145128
    15  H    0.158006
    16  H    0.157753
    17  H    0.127848
    18  H    0.126591
    19  H    0.292433
    20  H    0.134568
    21  H    0.150075
    22  H    0.112112
    23  H    0.114949
    24  H    0.120796
    25  H    0.126549
    26  H    0.125192
    27  H    0.125895
    28  H    0.111955
 Sum of Mulliken charges =  -0.00000
 Mulliken charges with hydrogens summed into heavy atoms:
               1
     1  C   -0.005136
     2  C    0.267183
     3  O   -0.094298
     4  N   -0.195410
     5  C   -0.565930
     6  C    0.554991
     7  C   -0.334066
     8  C    0.727982
     9  C   -0.182403
    10  C   -0.018602
    11  C    0.009392
    12  C   -0.130822
    13  C   -0.032882
 Electronic spatial extent (au):  <R**2>=           5154.7735
 Charge=              0.0000 electrons
 Dipole moment (field-independent basis, Debye):
    X=              0.5961    Y=             -0.0122    Z=             -0.1203  Tot=              0.6082
 Quadrupole moment (field-independent basis, Debye-Ang):
   XX=            -73.2709   YY=            -72.6318   ZZ=            -84.4785
   XY=             -2.1626   XZ=              0.5349   YZ=              2.1522
 Traceless Quadrupole moment (field-independent basis, Debye-Ang):
   XX=              3.5228   YY=              4.1619   ZZ=             -7.6848
   XY=             -2.1626   XZ=              0.5349   YZ=              2.1522
 Octapole moment (field-independent basis, Debye-Ang**2):
  XXX=             -7.0037  YYY=             -4.2450  ZZZ=              0.1847  XYY=              1.1875
  XXY=             16.3975  XXZ=            -26.4963  XZZ=            -24.5423  YZZ=             -1.9132
  YYZ=             -1.4643  XYZ=             -1.3530
 Hexadecapole moment (field-independent basis, Debye-Ang**3):
 XXXX=          -6042.0386 YYYY=           -410.0853 ZZZZ=           -214.5036 XXXY=            -67.7127
 XXXZ=              7.2508 YYYX=             14.5013 YYYZ=              7.3195 ZZZX=              6.3011
 ZZZY=              2.2850 XXYY=          -1094.6001 XXZZ=          -1170.7557 YYZZ=           -112.9335
 XXYZ=             12.7190 YYXZ=              1.6299 ZZXY=              2.0519
 N-N= 7.018333313704D+02 E-N=-2.698535067776D+03  KE= 5.527071203893D+02
 Unable to Open any file for archive entry.
 1\1\GINC-N2\SP\RB3LYP TD-FC\6-31+G(d,p)\C11H15N1O1\HPCMGAC13\17-Sep-20
 25\0\\# td=(50-50,nstates=3) b3lyp/6-31+g(d,p) geom=connectivity\\Titl
 e Card Required\\0,1\C,0,-6.033333,0.380941,-0.102673\C,0,-4.617058,0.
 458828,-0.649698\O,0,-3.82319,-0.481555,0.08271\N,0,-2.456568,-0.41661
 1,-0.377841\C,0,-1.604555,-0.214312,0.810813\C,0,-0.170337,-0.519198,0
 .483115\C,0,0.802453,0.405909,0.451724\C,0,2.232785,0.202089,0.169023\
 C,0,3.071052,1.328596,0.080207\C,0,4.433777,1.198503,-0.193155\C,0,4.9
 9172,-0.067729,-0.38071\C,0,4.173288,-1.199902,-0.289736\C,0,2.813512,
 -1.067835,-0.016952\H,0,-6.678468,1.085636,-0.638121\H,0,-6.445087,-0.
 625592,-0.226549\H,0,-6.055382,0.632936,0.962198\H,0,-4.195758,1.46582
 4,-0.528565\H,0,-4.59056,0.209248,-1.719219\H,0,-2.285881,-1.358294,-0
 .736741\H,0,-1.714056,0.82672,1.13068\H,0,-1.947825,-0.857274,1.637519
 \H,0,0.059413,-1.563738,0.271118\H,0,0.522096,1.439744,0.655401\H,0,2.
 644036,2.318013,0.224287\H,0,5.057705,2.085315,-0.258501\H,0,6.051643,
 -0.174569,-0.591844\H,0,4.599039,-2.189742,-0.428376\H,0,2.200751,-1.9
 60847,0.058177\\Version=ES64L-G16RevC.02\State=1-A\HF=-558.1455866\RMS
 D=7.128e-09\PG=C01 [X(C11H15N1O1)]\\@
 The archive entry for this job was punched.


 THEREFORE SHALL EVIL COME UPON THEE...
 THOU SHALT NOT KNOW FROM WHENCE IT RISETH...
 AND MISCHIEF SHALL FALL UPON THEE...
 THOU SHALT NOT BE ABLE TO PUT IT OFF...
 AND DESOLATION SHALL COME UPON THEE SUDDENLY...
 WHICH THOU SHALT NOT KNOW...

                                         ISAIAH 47.11
 Job cpu time:       0 days  0 hours 21 minutes 47.8 seconds.
 Elapsed time:       0 days  0 hours  2 minutes 46.8 seconds.
 File lengths (MBytes):  RWF=    643 Int=      0 D2E=      0 Chk=     28 Scr=      2
 Normal termination of Gaussian 16 at Wed Sep 17 09:13:23 2025.
