 Entering Gaussian System, Link 0=g16
 Input=M2777E.gjf
 Output=M2777E.log
 Initial command:
 /hpc/softwares/Gaussian/g16/l1.exe "/hpc/home/hpcmgac13/pbs.14038.admin1.x8z/Gau-3778482.inp" -scrdir="/hpc/home/hpcmgac13/pbs.14038.admin1.x8z/"
 Default linda workers: n2
 Default is to use   8 SMP processors on each worker.
 Entering Link 1 = /hpc/softwares/Gaussian/g16/l1.exe PID=   3778483.
  
 Copyright (c) 1988-2021, Gaussian, Inc.  All Rights Reserved.
  
 This is part of the Gaussian(R) 16 program.  It is based on
 the Gaussian(R) 09 system (copyright 2009, Gaussian, Inc.),
 the Gaussian(R) 03 system (copyright 2003, Gaussian, Inc.),
 the Gaussian(R) 98 system (copyright 1998, Gaussian, Inc.),
 the Gaussian(R) 94 system (copyright 1995, Gaussian, Inc.),
 the Gaussian 92(TM) system (copyright 1992, Gaussian, Inc.),
 the Gaussian 90(TM) system (copyright 1990, Gaussian, Inc.),
 the Gaussian 88(TM) system (copyright 1988, Gaussian, Inc.),
 the Gaussian 86(TM) system (copyright 1986, Carnegie Mellon
 University), and the Gaussian 82(TM) system (copyright 1983,
 Carnegie Mellon University). Gaussian is a federally registered
 trademark of Gaussian, Inc.
  
 This software contains proprietary and confidential information,
 including trade secrets, belonging to Gaussian, Inc.
  
 This software is provided under written license and may be
 used, copied, transmitted, or stored only in accord with that
 written license.
  
 The following legend is applicable only to US Government
 contracts under FAR:
  
                    RESTRICTED RIGHTS LEGEND
  
 Use, reproduction and disclosure by the US Government is
 subject to restrictions as set forth in subparagraphs (a)
 and (c) of the Commercial Computer Software - Restricted
 Rights clause in FAR 52.227-19.
  
 Gaussian, Inc.
 340 Quinnipiac St., Bldg. 40, Wallingford CT 06492
  
  
 ---------------------------------------------------------------
 Warning -- This program may not be used in any manner that
 competes with the business of Gaussian, Inc. or will provide
 assistance to any competitor of Gaussian, Inc.  The licensee
 of this program is prohibited from giving any competitor of
 Gaussian, Inc. access to this program.  By using this program,
 the user acknowledges that Gaussian, Inc. is engaged in the
 business of creating and licensing software in the field of
 computational chemistry and represents and warrants to the
 licensee that it is not a competitor of Gaussian, Inc. and that
 it will not use this program in any manner prohibited above.
 ---------------------------------------------------------------
  

 Cite this work as:
 Gaussian 16, Revision C.02,
 M. J. Frisch, G. W. Trucks, H. B. Schlegel, G. E. Scuseria, 
 M. A. Robb, J. R. Cheeseman, G. Scalmani, V. Barone, 
 G. A. Petersson, H. Nakatsuji, X. Li, M. Caricato, A. V. Marenich, 
 J. Bloino, B. G. Janesko, R. Gomperts, B. Mennucci, H. P. Hratchian, 
 J. V. Ortiz, A. F. Izmaylov, J. L. Sonnenberg, D. Williams-Young, 
 F. Ding, F. Lipparini, F. Egidi, J. Goings, B. Peng, A. Petrone, 
 T. Henderson, D. Ranasinghe, V. G. Zakrzewski, J. Gao, N. Rega, 
 G. Zheng, W. Liang, M. Hada, M. Ehara, K. Toyota, R. Fukuda, 
 J. Hasegawa, M. Ishida, T. Nakajima, Y. Honda, O. Kitao, H. Nakai, 
 T. Vreven, K. Throssell, J. A. Montgomery, Jr., J. E. Peralta, 
 F. Ogliaro, M. J. Bearpark, J. J. Heyd, E. N. Brothers, K. N. Kudin, 
 V. N. Staroverov, T. A. Keith, R. Kobayashi, J. Normand, 
 K. Raghavachari, A. P. Rendell, J. C. Burant, S. S. Iyengar, 
 J. Tomasi, M. Cossi, J. M. Millam, M. Klene, C. Adamo, R. Cammi, 
 J. W. Ochterski, R. L. Martin, K. Morokuma, O. Farkas, 
 J. B. Foresman, and D. J. Fox, Gaussian, Inc., Wallingford CT, 2019.
 
 ******************************************
 Gaussian 16:  ES64L-G16RevC.02  7-Dec-2021
                17-Sep-2025 
 ******************************************
 SetLPE:    new flags="-opt 'Tsnet.Node.lindarsharg: ssh'  -nodelist 'n2.head.cm.mguif.local' -env GAUSS_MDEF=1342177280 -env GAUSS_EXEDIR="/hpc/softwares/Gaussian/g16/bsd:/hpc/softwares/Gaussian/g16""
 Will use up to    1 processors via Linda.
 ----------------------------------------------------------
 # td=(50-50,nstates=3) b3lyp/6-31+g(d,p) geom=connectivity
 ----------------------------------------------------------
 1/38=1,57=2,172=1/1;
 2/12=2,17=6,18=5,40=1/2;
 3/5=1,6=6,7=111,11=9,25=1,30=1,74=-5/1,2,3,8;
 4//1;
 5/5=2,38=5/2;
 8/6=1,10=2,108=3/1;
 9/41=3,42=1,48=2,70=2/14;
 6/7=2,8=2,9=2,10=2/1;
 99/5=1,9=1/99;
 -------------------
 Title Card Required
 -------------------
 Symbolic Z-matrix:
 Charge =  0 Multiplicity = 1
 C                     0.84528  -4.05279   0.99729 
 C                     0.9048   -3.26818  -0.30025 
 O                     0.95436  -1.87198   0.02484 
 C                     1.02337  -1.04979  -1.10866 
 N                     1.23774   0.31819  -0.66266 
 N                     2.44177   0.82474  -0.497 
 C                     2.25375   1.99495   0.26305 
 O                     3.11846   2.7774    0.62665 
 N                     0.86274   2.11405   0.52857 
 N                     0.31298   1.0705   -0.03625 
 C                    -1.09399   0.79507  -0.00816 
 C                    -1.82031   0.76916  -1.20076 
 C                    -3.19342   0.52005  -1.14789 
 C                    -3.8239    0.32235   0.08351 
 C                    -3.08359   0.3755    1.26919 
 C                    -1.70958   0.61161   1.23116 
 H                     0.8146   -5.12589   0.78287 
 H                     1.72584  -3.84569   1.61184 
 H                    -0.04866  -3.78753   1.56915 
 H                     0.0195   -3.46981  -0.92348 
 H                     1.79935  -3.5372   -0.88198 
 H                     1.88702  -1.27896  -1.74264 
 H                     0.09899  -1.09755  -1.69698 
 H                    -1.32555   0.9666   -2.14648 
 H                    -3.77027   0.50089  -2.06716 
 H                    -4.89312   0.13803   0.12042 
 H                    -3.57535   0.2324    2.22613 
 H                    -1.11604   0.6615    2.13701 
 
                          Input orientation:                          
 ---------------------------------------------------------------------
 Center     Atomic      Atomic             Coordinates (Angstroms)
 Number     Number       Type             X           Y           Z
 ---------------------------------------------------------------------
      1          6           0        0.845283   -4.052795    0.997285
      2          6           0        0.904796   -3.268182   -0.300253
      3          8           0        0.954363   -1.871976    0.024839
      4          6           0        1.023366   -1.049789   -1.108657
      5          7           0        1.237739    0.318192   -0.662655
      6          7           0        2.441774    0.824738   -0.497002
      7          6           0        2.253746    1.994948    0.263045
      8          8           0        3.118462    2.777397    0.626645
      9          7           0        0.862744    2.114054    0.528570
     10          7           0        0.312981    1.070499   -0.036252
     11          6           0       -1.093987    0.795068   -0.008159
     12          6           0       -1.820305    0.769160   -1.200757
     13          6           0       -3.193423    0.520049   -1.147893
     14          6           0       -3.823899    0.322346    0.083512
     15          6           0       -3.083592    0.375501    1.269189
     16          6           0       -1.709580    0.611605    1.231157
     17          1           0        0.814597   -5.125892    0.782872
     18          1           0        1.725838   -3.845689    1.611836
     19          1           0       -0.048657   -3.787531    1.569149
     20          1           0        0.019501   -3.469809   -0.923476
     21          1           0        1.799354   -3.537200   -0.881977
     22          1           0        1.887016   -1.278956   -1.742643
     23          1           0        0.098994   -1.097553   -1.696982
     24          1           0       -1.325551    0.966596   -2.146482
     25          1           0       -3.770268    0.500889   -2.067164
     26          1           0       -4.893123    0.138033    0.120422
     27          1           0       -3.575349    0.232396    2.226130
     28          1           0       -1.116041    0.661504    2.137007
 ---------------------------------------------------------------------
                    Distance matrix (angstroms):
                    1          2          3          4          5
     1  C    0.000000
     2  C    1.517486   0.000000
     3  O    2.390297   1.434410   0.000000
     4  C    3.672159   2.364073   1.401986   0.000000
     5  N    4.692009   3.619981   2.312960   1.454732   0.000000
     6  N    5.345279   4.376415   3.123616   2.428962   1.316712
     7  C    6.252845   5.462372   4.086348   3.558908   2.168110
     8  O    7.208068   6.504497   5.163542   4.695535   3.353670
     9  N    6.184660   5.445841   4.018778   3.565980   2.187409
    10  N    5.253540   4.386809   3.012186   2.479984   1.346671
    11  C    5.317280   4.537670   3.363027   3.016252   2.468344
    12  C    5.931947   4.953505   4.021998   3.376910   3.137604
    13  C    6.467135   5.644873   4.929626   4.499693   4.462219
    14  C    6.463598   5.949767   5.258353   5.176872   5.116343
    15  C    5.926196   5.625550   4.785879   4.955069   4.733836
    16  C    5.323406   4.922695   3.836661   3.962821   3.515580
    17  H    1.094738   2.152297   3.343967   4.498453   5.648597
    18  H    1.093592   2.159562   2.647504   3.963787   4.769639
    19  H    1.093857   2.161819   2.657121   3.976822   4.846929
    20  H    2.170509   1.101275   2.079985   2.626506   3.987616
    21  H    2.169727   1.100458   2.075884   2.615484   3.902251
    22  H    4.035665   2.646179   2.084588   1.095604   2.034408
    23  H    4.068105   2.704034   2.072693   1.096755   2.090671
    24  H    6.307938   5.129947   4.239119   3.265012   3.031934
    25  H    7.171485   6.259720   5.685869   5.128573   5.204436
    26  H    7.159695   6.737591   6.184041   6.158441   6.183295
    27  H    6.278129   6.221604   5.458237   5.823485   5.614112
    28  H    5.231670   5.046429   3.894399   4.247343   3.673724
                    6          7          8          9         10
     6  N    0.000000
     7  C    1.407983   0.000000
     8  O    2.352311   1.221542   0.000000
     9  N    2.281988   1.421118   2.353276   0.000000
    10  N    2.191905   2.170427   3.350173   1.307773   0.000000
    11  C    3.569517   3.566592   4.698652   2.420041   1.433949
    12  C    4.320148   4.499240   5.635941   3.463822   2.449038
    13  C    5.680840   5.817020   6.934299   4.669462   3.719356
    14  C    6.312531   6.306156   7.383674   5.037154   4.205693
    15  C    5.818154   5.667637   6.681874   4.375460   3.704579
    16  C    4.501744   4.307996   5.325982   3.060691   2.430568
    17  H    6.300459   7.283387   8.233722   7.244571   6.270394
    18  H    5.174229   6.017555   6.839245   6.118573   5.374129
    19  H    5.634204   6.359562   7.349642   6.061531   5.129186
    20  H    4.948982   6.021898   7.143810   5.830868   4.635482
    21  H    4.425767   5.667646   6.624962   5.899454   4.914819
    22  H    2.506972   3.856906   4.856334   4.209520   3.302922
    23  H    3.259413   4.248320   5.434305   3.981308   2.739391
    24  H    4.115051   4.435617   5.542426   3.641593   2.673697
    25  H    6.415587   6.629542   7.739102   5.550220   4.595866
    26  H    7.392800   7.385541   8.450325   6.099283   5.291272
    27  H    6.631145   6.398331   7.337744   5.110677   4.576013
    28  H    4.429751   4.079862   4.968824   2.934717   2.632952
                   11         12         13         14         15
    11  C    0.000000
    12  C    1.396603   0.000000
    13  C    2.404633   1.396533   0.000000
    14  C    2.772055   2.421441   1.397478   0.000000
    15  C    2.401288   2.802052   2.423890   1.398824   0.000000
    16  C    1.395893   2.439526   2.805361   2.423036   1.394669
    17  H    6.271060   6.754934   7.188096   7.189440   6.760008
    18  H    5.666782   6.463949   7.132664   7.106889   6.408312
    19  H    4.957906   5.619123   5.985576   5.775003   5.160585
    20  H    4.501870   4.629323   5.127593   5.492375   5.405865
    21  H    5.282379   5.634562   6.438929   6.888341   6.616639
    22  H    4.024474   4.269971   5.422270   6.205929   6.042789
    23  H    2.803095   2.722970   3.709197   4.536007   4.593138
    24  H    2.157654   1.085430   2.164609   3.410231   3.886761
    25  H    3.389472   2.150578   1.085438   2.158741   3.408592
    26  H    3.857676   3.403828   2.154887   1.085621   2.156492
    27  H    3.386119   3.887396   3.407733   2.158861   1.085376
    28  H    2.149433   3.412953   3.889228   3.415313   2.169369
                   16         17         18         19         20
    16  C    0.000000
    17  H    6.284210   0.000000
    18  H    5.640433   1.776643   0.000000
    19  H    4.714372   1.776133   1.775961   0.000000
    20  H    4.928499   2.507272   3.079071   2.513717   0.000000
    21  H    5.830140   2.503080   2.513896   3.079907   1.781612
    22  H    5.035197   4.725169   4.226893   4.583421   2.993073
    23  H    3.842676   4.784274   4.598603   4.233839   2.496443
    24  H    3.417886   7.090822   6.825981   6.167503   4.794434
    25  H    3.890709   7.797715   7.914225   6.742678   5.606854
    26  H    3.404842   7.792677   7.867973   6.401384   6.183860
    27  H    2.148224   7.075724   6.716451   5.387856   6.045601
    28  H    1.084132   6.249400   5.354145   4.610389   5.265336
                   21         22         23         24         25
    21  H    0.000000
    22  H    2.418284   0.000000
    23  H    3.083397   1.797780   0.000000
    24  H    5.625672   3.940327   2.547958   0.000000
    25  H    6.980797   5.939531   4.202766   2.489943   0.000000
    26  H    7.700740   7.172807   5.454435   4.307312   2.485558
    27  H    7.263444   6.919015   5.537181   4.971959   4.306095
    28  H    5.936574   5.275928   4.389768   4.299448   4.974512
                   26         27         28
    26  H    0.000000
    27  H    2.485848   0.000000
    28  H    4.313582   2.498054   0.000000
 Stoichiometry    C10H12N4O2
 Framework group  C1[X(C10H12N4O2)]
 Deg. of freedom    78
 Full point group                 C1      NOp   1
 Largest Abelian subgroup         C1      NOp   1
 Largest concise Abelian subgroup C1      NOp   1
                         Standard orientation:                         
 ---------------------------------------------------------------------
 Center     Atomic      Atomic             Coordinates (Angstroms)
 Number     Number       Type             X           Y           Z
 ---------------------------------------------------------------------
      1          6           0       -0.845283    4.052795    0.997285
      2          6           0       -0.904796    3.268182   -0.300253
      3          8           0       -0.954363    1.871976    0.024839
      4          6           0       -1.023366    1.049789   -1.108657
      5          7           0       -1.237739   -0.318192   -0.662655
      6          7           0       -2.441774   -0.824738   -0.497002
      7          6           0       -2.253746   -1.994948    0.263045
      8          8           0       -3.118462   -2.777397    0.626645
      9          7           0       -0.862744   -2.114054    0.528570
     10          7           0       -0.312981   -1.070499   -0.036252
     11          6           0        1.093987   -0.795068   -0.008159
     12          6           0        1.820305   -0.769160   -1.200757
     13          6           0        3.193423   -0.520049   -1.147893
     14          6           0        3.823899   -0.322346    0.083512
     15          6           0        3.083592   -0.375501    1.269189
     16          6           0        1.709580   -0.611605    1.231157
     17          1           0       -0.814597    5.125892    0.782872
     18          1           0       -1.725838    3.845689    1.611836
     19          1           0        0.048657    3.787531    1.569149
     20          1           0       -0.019501    3.469809   -0.923476
     21          1           0       -1.799354    3.537200   -0.881977
     22          1           0       -1.887016    1.278956   -1.742643
     23          1           0       -0.098994    1.097553   -1.696982
     24          1           0        1.325551   -0.966596   -2.146482
     25          1           0        3.770268   -0.500889   -2.067164
     26          1           0        4.893123   -0.138032    0.120422
     27          1           0        3.575349   -0.232396    2.226130
     28          1           0        1.116041   -0.661504    2.137007
 ---------------------------------------------------------------------
 Rotational constants (GHZ):           0.5541937           0.4600201           0.2957807
 Standard basis: 6-31+G(d,p) (6D, 7F)
 There are   364 symmetry adapted cartesian basis functions of A   symmetry.
 There are   364 symmetry adapted basis functions of A   symmetry.
   364 basis functions,   596 primitive gaussians,   364 cartesian basis functions
    58 alpha electrons       58 beta electrons
       nuclear repulsion energy      1087.4184823144 Hartrees.
 NAtoms=   28 NActive=   28 NUniq=   28 SFac= 1.00D+00 NAtFMM=   60 NAOKFM=F Big=F
 Integral buffers will be    131072 words long.
 Regular integral format.
 Two-electron integral symmetry is turned on.
 One-electron integrals computed using PRISM.
 NBasis=   364 RedAO= T EigKep=  1.92D-06  NBF=   364
 NBsUse=   364 1.00D-06 EigRej= -1.00D+00 NBFU=   364
 ExpMin= 4.38D-02 ExpMax= 5.48D+03 ExpMxC= 8.25D+02 IAcc=3 IRadAn=         5 AccDes= 0.00D+00
 Harris functional with IExCor=  402 and IRadAn=       5 diagonalized for initial guess.
 HarFok:  IExCor=  402 AccDes= 0.00D+00 IRadAn=         5 IDoV= 1 UseB2=F ITyADJ=14
 ICtDFT=  3500011 ScaDFX=  1.000000  1.000000  1.000000  1.000000
 FoFCou: FMM=F IPFlag=           0 FMFlag=      100000 FMFlg1=           0
         NFxFlg=           0 DoJE=T BraDBF=F KetDBF=T FulRan=T
         wScrn=  0.000000 ICntrl=       500 IOpCl=  0 I1Cent=   200000004 NGrid=           0
         NMat0=    1 NMatS0=      1 NMatT0=    0 NMatD0=    1 NMtDS0=    0 NMtDT0=    0
 Petite list used in FoFCou.
 Requested convergence on RMS density matrix=1.00D-08 within 128 cycles.
 Requested convergence on MAX density matrix=1.00D-06.
 Requested convergence on             energy=1.00D-06.
 No special actions if energy rises.
 EnCoef did     3 forward-backward iterations
 SCF Done:  E(RB3LYP) =  -757.674888427     A.U. after   18 cycles
            NFock= 18  Conv=0.30D-08     -V/T= 2.0094
 DoSCS=F DFT=T ScalE2(SS,OS)=  1.000000  1.000000
 ExpMin= 4.38D-02 ExpMax= 5.48D+03 ExpMxC= 8.25D+02 IAcc=3 IRadAn=         5 AccDes= 0.00D+00
 HarFok:  IExCor=  205 AccDes= 0.00D+00 IRadAn=         5 IDoV=-2 UseB2=F ITyADJ=14
 ICtDFT= 12500011 ScaDFX=  1.000000  1.000000  1.000000  1.000000
 Range of M.O.s used for correlation:    17   364
 NBasis=   364 NAE=    58 NBE=    58 NFC=    16 NFV=     0
 NROrb=    348 NOA=    42 NOB=    42 NVA=   306 NVB=   306

 **** Warning!!: The largest alpha MO coefficient is  0.16302422D+03

 Orbital symmetries:
       Occupied  (A) (A) (A) (A) (A) (A) (A) (A) (A) (A) (A) (A)
                 (A) (A) (A) (A) (A) (A) (A) (A) (A) (A) (A) (A)
                 (A) (A) (A) (A) (A) (A) (A) (A) (A) (A) (A) (A)
                 (A) (A) (A) (A) (A) (A) (A) (A) (A) (A) (A) (A)
                 (A) (A) (A) (A) (A) (A) (A) (A) (A) (A)
       Virtual   (A) (A) (A) (A) (A) (A) (A) (A) (A) (A) (A) (A)
                 (A) (A) (A) (A) (A) (A) (A) (A) (A) (A) (A) (A)
                 (A) (A) (A) (A) (A) (A) (A) (A) (A) (A) (A) (A)
                 (A) (A) (A) (A) (A) (A) (A) (A) (A) (A) (A) (A)
                 (A) (A) (A) (A) (A) (A) (A) (A) (A) (A) (A) (A)
                 (A) (A) (A) (A) (A) (A) (A) (A) (A) (A) (A) (A)
                 (A) (A) (A) (A) (A) (A) (A) (A) (A) (A) (A) (A)
                 (A) (A) (A) (A) (A) (A) (A) (A) (A) (A) (A) (A)
                 (A) (A) (A) (A) (A) (A) (A) (A) (A) (A) (A) (A)
                 (A) (A) (A) (A) (A) (A) (A) (A) (A) (A) (A) (A)
                 (A) (A) (A) (A) (A) (A) (A) (A) (A) (A) (A) (A)
                 (A) (A) (A) (A) (A) (A) (A) (A) (A) (A) (A) (A)
                 (A) (A) (A) (A) (A) (A) (A) (A) (A) (A) (A) (A)
                 (A) (A) (A) (A) (A) (A) (A) (A) (A) (A) (A) (A)
                 (A) (A) (A) (A) (A) (A) (A) (A) (A) (A) (A) (A)
                 (A) (A) (A) (A) (A) (A) (A) (A) (A) (A) (A) (A)
                 (A) (A) (A) (A) (A) (A) (A) (A) (A) (A) (A) (A)
                 (A) (A) (A) (A) (A) (A) (A) (A) (A) (A) (A) (A)
                 (A) (A) (A) (A) (A) (A) (A) (A) (A) (A) (A) (A)
                 (A) (A) (A) (A) (A) (A) (A) (A) (A) (A) (A) (A)
                 (A) (A) (A) (A) (A) (A) (A) (A) (A) (A) (A) (A)
                 (A) (A) (A) (A) (A) (A) (A) (A) (A) (A) (A) (A)
                 (A) (A) (A) (A) (A) (A) (A) (A) (A) (A) (A) (A)
                 (A) (A) (A) (A) (A) (A) (A) (A) (A) (A) (A) (A)
                 (A) (A) (A) (A) (A) (A) (A) (A) (A) (A) (A) (A)
                 (A) (A) (A) (A) (A) (A)
    24 initial guesses have been made.
 Convergence on wavefunction:    0.001000000000000
 Iteration     1 Dimension    24 NMult     0 NNew     24
 CISAX will form    24 AO SS matrices at one time.
 New state      1 was old state      2
 New state      2 was old state      4
 New state      4 was old state      7
 New state      5 was old state      8
 New state      7 was old state      5
 New state      8 was old state     12
 New state      9 was old state     11
 New state     11 was old state     20
 New state     12 was old state      9
 Vector   6 SDiff=8.28D+00 TDiff=8.39D+00 assumed to be singlet.
 Vector  12 SDiff=8.31D+00 TDiff=8.23D+00 assumed to be triplet.
 Iteration     2 Dimension    36 NMult    24 NNew     12
 New state      6 was old state      7
 Iteration     3 Dimension    48 NMult    36 NNew     12
 Iteration     4 Dimension    60 NMult    48 NNew     12
 Iteration     5 Dimension    70 NMult    60 NNew     10
 Iteration     6 Dimension    78 NMult    70 NNew      8
 Iteration     7 Dimension    82 NMult    78 NNew      4
 ***********************************************************************
 Excited states from <AA,BB:AA,BB> singles matrix:
 ***********************************************************************
 
 Ground to excited state transition densities written to RWF  633
 Ground to excited state transition electric dipole moments (Au):
       state          X           Y           Z        Dip. S.      Osc.
         1        -0.0000      0.0000     -0.0000      0.0000      0.0000
         2        -0.0000      0.0000     -0.0000      0.0000      0.0000
         3         0.8311     -0.2962      0.2439      0.8379      0.0635
         4        -0.0390      0.1848     -0.0159      0.0359      0.0028
         5         0.0000     -0.0000     -0.0000      0.0000      0.0000
         6         0.0798     -0.0985     -0.0362      0.0174      0.0016
 Ground to excited state transition velocity dipole moments (Au):
       state          X           Y           Z        Dip. S.      Osc.
         1         0.0000      0.0000      0.0000      0.0000      0.0000
         2         0.0000     -0.0000     -0.0000      0.0000      0.0000
         3        -0.0906      0.0312     -0.0270      0.0099      0.0580
         4         0.0029     -0.0201      0.0026      0.0004      0.0024
         5         0.0000      0.0000      0.0000      0.0000      0.0000
         6        -0.0086      0.0160      0.0063      0.0004      0.0018
 Ground to excited state transition magnetic dipole moments (Au):
       state          X           Y           Z
         1        -0.0000      0.0000     -0.0000
         2         0.0000     -0.0000     -0.0000
         3        -0.0650      0.2095     -0.0071
         4        -0.0899      0.0338     -0.1211
         5         0.0000      0.0000     -0.0000
         6         0.0299     -0.1798      0.0047
 Ground to excited state transition velocity quadrupole moments (Au):
       state          XX          YY          ZZ          XY          XZ          YZ
         1         0.0000     -0.0000      0.0000     -0.0000     -0.0000     -0.0000
         2         0.0000      0.0000      0.0000     -0.0000     -0.0000     -0.0000
         3         0.0531     -0.0236     -0.0145      0.0914      0.0757      0.0453
         4        -0.0271      0.0623     -0.0065      0.0532     -0.0137     -0.0105
         5         0.0000     -0.0000      0.0000     -0.0000     -0.0000      0.0000
         6         0.0803     -0.0417     -0.0077      0.0204      0.0663     -0.0081
 <0|del|b> * <b|rxdel|0> + <0|del|b> * <b|delr+rdel|0>
 Rotatory Strengths (R) in cgs (10**-40 erg-esu-cm/Gauss)
       state          XX          YY          ZZ    R(velocity)    E-M Angle
         1        -0.0000     -0.0000     -0.0000     -0.0000       90.00
         2         0.0000      0.0000      0.0000      0.0000       90.00
         3         5.8720     13.8068     58.6824     26.1204       54.75
         4        -3.4718     -2.2897     -1.9385     -2.5667      113.38
         5        -0.0000      0.0000     -0.0000     -0.0000       90.00
         6        -9.8032     -0.7372     -5.5507     -5.3637      152.53
 1/2[<0|r|b>*<b|rxdel|0> + (<0|rxdel|b>*<b|r|0>)*]
 Rotatory Strengths (R) in cgs (10**-40 erg-esu-cm/Gauss)
       state          XX          YY          ZZ     R(length)
         1        -0.0000     -0.0000     -0.0000     -0.0000
         2         0.0000      0.0000     -0.0000      0.0000
         3        38.2084     43.8681      1.2213     27.7659
         4        -2.4775     -4.4135     -1.3594     -2.7501
         5        -0.0000      0.0000     -0.0000     -0.0000
         6        -1.6888    -12.5179      0.1203     -4.6955
  1/2[<0|del|b>*<b|r|0> + (<0|r|b>*<b|del|0>)*] (Au)
       state          X           Y           Z        Dip. S.   Osc.(frdel)
         1        -0.0000      0.0000     -0.0000      0.0000      0.0000
         2        -0.0000     -0.0000      0.0000      0.0000      0.0000
         3        -0.0753     -0.0092     -0.0066      0.0911      0.0607
         4        -0.0001     -0.0037     -0.0000      0.0039      0.0026
         5         0.0000     -0.0000     -0.0000      0.0000      0.0000
         6        -0.0007     -0.0016     -0.0002      0.0025      0.0017

 Excitation energies and oscillator strengths:
 
 Excited State   1:      Triplet-A      1.2991 eV  954.39 nm  f=0.0000  <S**2>=2.000
      58 -> 59         0.70034
      58 -> 61        -0.21173
      58 <- 59         0.20221
 This state for optimization and/or second-order correction.
 Total Energy, E(TD-HF/TD-DFT) =  -757.627147715    
 Copying the excited state density for this state as the 1-particle RhoCI density.
 
 Excited State   2:      Triplet-A      2.9781 eV  416.32 nm  f=0.0000  <S**2>=2.000
      57 -> 59         0.67933
      57 -> 61        -0.12289
 
 Excited State   3:      Singlet-A      3.0955 eV  400.53 nm  f=0.0635  <S**2>=0.000
      57 -> 59         0.16629
      58 -> 59         0.67714
      58 -> 61         0.10293
 
 Excited State   4:      Singlet-A      3.1429 eV  394.50 nm  f=0.0028  <S**2>=0.000
      57 -> 59         0.67004
      57 -> 61        -0.12260
      58 -> 59        -0.16564
 
 Excited State   5:      Triplet-A      3.4332 eV  361.13 nm  f=0.0000  <S**2>=2.000
      55 -> 59        -0.12935
      55 -> 61        -0.14021
      56 -> 60         0.14947
      58 -> 59         0.17499
      58 -> 61         0.60379
 
 Excited State   6:      Singlet-A      3.7191 eV  333.37 nm  f=0.0016  <S**2>=0.000
      58 -> 60         0.64920
      58 -> 61        -0.27411
 SavETr:  write IOETrn=   770 NScale= 10 NData=  16 NLR=1 NState=    6 LETran=     118.

 **********************************************************************

            Population analysis using the SCF Density.

 **********************************************************************

 Orbital symmetries:
       Occupied  (A) (A) (A) (A) (A) (A) (A) (A) (A) (A) (A) (A)
                 (A) (A) (A) (A) (A) (A) (A) (A) (A) (A) (A) (A)
                 (A) (A) (A) (A) (A) (A) (A) (A) (A) (A) (A) (A)
                 (A) (A) (A) (A) (A) (A) (A) (A) (A) (A) (A) (A)
                 (A) (A) (A) (A) (A) (A) (A) (A) (A) (A)
       Virtual   (A) (A) (A) (A) (A) (A) (A) (A) (A) (A) (A) (A)
                 (A) (A) (A) (A) (A) (A) (A) (A) (A) (A) (A) (A)
                 (A) (A) (A) (A) (A) (A) (A) (A) (A) (A) (A) (A)
                 (A) (A) (A) (A) (A) (A) (A) (A) (A) (A) (A) (A)
                 (A) (A) (A) (A) (A) (A) (A) (A) (A) (A) (A) (A)
                 (A) (A) (A) (A) (A) (A) (A) (A) (A) (A) (A) (A)
                 (A) (A) (A) (A) (A) (A) (A) (A) (A) (A) (A) (A)
                 (A) (A) (A) (A) (A) (A) (A) (A) (A) (A) (A) (A)
                 (A) (A) (A) (A) (A) (A) (A) (A) (A) (A) (A) (A)
                 (A) (A) (A) (A) (A) (A) (A) (A) (A) (A) (A) (A)
                 (A) (A) (A) (A) (A) (A) (A) (A) (A) (A) (A) (A)
                 (A) (A) (A) (A) (A) (A) (A) (A) (A) (A) (A) (A)
                 (A) (A) (A) (A) (A) (A) (A) (A) (A) (A) (A) (A)
                 (A) (A) (A) (A) (A) (A) (A) (A) (A) (A) (A) (A)
                 (A) (A) (A) (A) (A) (A) (A) (A) (A) (A) (A) (A)
                 (A) (A) (A) (A) (A) (A) (A) (A) (A) (A) (A) (A)
                 (A) (A) (A) (A) (A) (A) (A) (A) (A) (A) (A) (A)
                 (A) (A) (A) (A) (A) (A) (A) (A) (A) (A) (A) (A)
                 (A) (A) (A) (A) (A) (A) (A) (A) (A) (A) (A) (A)
                 (A) (A) (A) (A) (A) (A) (A) (A) (A) (A) (A) (A)
                 (A) (A) (A) (A) (A) (A) (A) (A) (A) (A) (A) (A)
                 (A) (A) (A) (A) (A) (A) (A) (A) (A) (A) (A) (A)
                 (A) (A) (A) (A) (A) (A) (A) (A) (A) (A) (A) (A)
                 (A) (A) (A) (A) (A) (A) (A) (A) (A) (A) (A) (A)
                 (A) (A) (A) (A) (A) (A) (A) (A) (A) (A) (A) (A)
                 (A) (A) (A) (A) (A) (A)
 The electronic state is 1-A.
 Alpha  occ. eigenvalues --  -19.20103 -19.08675 -14.50655 -14.49828 -14.38330
 Alpha  occ. eigenvalues --  -14.37812 -10.32630 -10.28708 -10.28431 -10.27019
 Alpha  occ. eigenvalues --  -10.24389 -10.23898 -10.23758 -10.23586 -10.23513
 Alpha  occ. eigenvalues --  -10.20412  -1.18449  -1.08769  -1.00494  -0.99818
 Alpha  occ. eigenvalues --   -0.91688  -0.88365  -0.81483  -0.79536  -0.79225
 Alpha  occ. eigenvalues --   -0.75350  -0.70021  -0.66199  -0.65234  -0.64240
 Alpha  occ. eigenvalues --   -0.62153  -0.58541  -0.56228  -0.54524  -0.53192
 Alpha  occ. eigenvalues --   -0.52434  -0.51693  -0.48702  -0.48092  -0.47110
 Alpha  occ. eigenvalues --   -0.46666  -0.42962  -0.41634  -0.41284  -0.40652
 Alpha  occ. eigenvalues --   -0.39559  -0.39306  -0.38815  -0.37139  -0.36450
 Alpha  occ. eigenvalues --   -0.36331  -0.35255  -0.31855  -0.30710  -0.29700
 Alpha  occ. eigenvalues --   -0.29577  -0.24005  -0.21283
 Alpha virt. eigenvalues --   -0.08552  -0.05354  -0.05251  -0.02017  -0.00520
 Alpha virt. eigenvalues --   -0.00119   0.01230   0.01432   0.01873   0.02861
 Alpha virt. eigenvalues --    0.03015   0.03975   0.04449   0.04981   0.05397
 Alpha virt. eigenvalues --    0.06178   0.06730   0.07074   0.07457   0.07810
 Alpha virt. eigenvalues --    0.08184   0.08606   0.09109   0.09366   0.09833
 Alpha virt. eigenvalues --    0.09997   0.10349   0.11063   0.11528   0.12187
 Alpha virt. eigenvalues --    0.12819   0.13145   0.14054   0.14200   0.14591
 Alpha virt. eigenvalues --    0.14880   0.15208   0.15673   0.15974   0.16675
 Alpha virt. eigenvalues --    0.17301   0.17873   0.18077   0.18550   0.18971
 Alpha virt. eigenvalues --    0.19385   0.19790   0.20531   0.20643   0.21038
 Alpha virt. eigenvalues --    0.21391   0.21745   0.22267   0.22399   0.22753
 Alpha virt. eigenvalues --    0.22838   0.23547   0.23802   0.24298   0.24706
 Alpha virt. eigenvalues --    0.25033   0.25626   0.26364   0.26636   0.27492
 Alpha virt. eigenvalues --    0.28251   0.28763   0.29207   0.29924   0.30349
 Alpha virt. eigenvalues --    0.30823   0.31161   0.31192   0.32112   0.32476
 Alpha virt. eigenvalues --    0.33020   0.33608   0.33884   0.34164   0.34496
 Alpha virt. eigenvalues --    0.34965   0.35355   0.36075   0.36539   0.38311
 Alpha virt. eigenvalues --    0.39305   0.39893   0.40199   0.41992   0.42748
 Alpha virt. eigenvalues --    0.44291   0.44986   0.46366   0.46927   0.50463
 Alpha virt. eigenvalues --    0.53390   0.55632   0.57851   0.60096   0.62760
 Alpha virt. eigenvalues --    0.63262   0.64239   0.65352   0.66819   0.68647
 Alpha virt. eigenvalues --    0.69820   0.70742   0.70925   0.71255   0.72495
 Alpha virt. eigenvalues --    0.73800   0.75208   0.76847   0.78485   0.79858
 Alpha virt. eigenvalues --    0.80424   0.81169   0.82299   0.84078   0.85083
 Alpha virt. eigenvalues --    0.86271   0.87591   0.88899   0.89261   0.90223
 Alpha virt. eigenvalues --    0.90765   0.91388   0.91967   0.92577   0.93807
 Alpha virt. eigenvalues --    0.95361   0.96043   0.96500   0.97472   0.98485
 Alpha virt. eigenvalues --    0.99975   1.00873   1.02409   1.02896   1.04415
 Alpha virt. eigenvalues --    1.04623   1.04952   1.05840   1.07448   1.08268
 Alpha virt. eigenvalues --    1.09781   1.12324   1.12917   1.14080   1.16090
 Alpha virt. eigenvalues --    1.16927   1.18396   1.20261   1.22786   1.22965
 Alpha virt. eigenvalues --    1.25544   1.27781   1.28650   1.29457   1.30760
 Alpha virt. eigenvalues --    1.31465   1.34500   1.35381   1.36392   1.36629
 Alpha virt. eigenvalues --    1.36842   1.37711   1.38509   1.40065   1.40432
 Alpha virt. eigenvalues --    1.41694   1.42297   1.44218   1.45653   1.47202
 Alpha virt. eigenvalues --    1.48421   1.51385   1.53999   1.55798   1.58253
 Alpha virt. eigenvalues --    1.61219   1.63573   1.65347   1.66779   1.71741
 Alpha virt. eigenvalues --    1.73716   1.76510   1.78918   1.80119   1.81368
 Alpha virt. eigenvalues --    1.82777   1.84526   1.85532   1.86940   1.88827
 Alpha virt. eigenvalues --    1.89436   1.89777   1.90399   1.91981   1.92675
 Alpha virt. eigenvalues --    1.94639   1.94967   1.95648   1.96598   1.97660
 Alpha virt. eigenvalues --    1.97903   1.99343   2.00567   2.01494   2.02134
 Alpha virt. eigenvalues --    2.03140   2.03453   2.04525   2.05765   2.07574
 Alpha virt. eigenvalues --    2.07827   2.08811   2.10027   2.10763   2.15037
 Alpha virt. eigenvalues --    2.17042   2.21915   2.23727   2.24859   2.25530
 Alpha virt. eigenvalues --    2.26713   2.30360   2.34073   2.34695   2.35385
 Alpha virt. eigenvalues --    2.35580   2.36322   2.37409   2.38086   2.39066
 Alpha virt. eigenvalues --    2.41573   2.42739   2.44743   2.45767   2.46948
 Alpha virt. eigenvalues --    2.50647   2.50800   2.52441   2.53022   2.54951
 Alpha virt. eigenvalues --    2.56230   2.57355   2.59280   2.62081   2.62677
 Alpha virt. eigenvalues --    2.64502   2.64629   2.66561   2.68061   2.70541
 Alpha virt. eigenvalues --    2.71275   2.71981   2.72498   2.75407   2.77352
 Alpha virt. eigenvalues --    2.79331   2.80490   2.83095   2.84635   2.86752
 Alpha virt. eigenvalues --    2.88784   2.89720   2.93445   2.98806   3.02789
 Alpha virt. eigenvalues --    3.04629   3.07448   3.08236   3.12869   3.16087
 Alpha virt. eigenvalues --    3.23714   3.23820   3.24206   3.25088   3.26089
 Alpha virt. eigenvalues --    3.28413   3.33093   3.35838   3.37140   3.41701
 Alpha virt. eigenvalues --    3.44972   3.45876   3.50237   3.51141   3.86312
 Alpha virt. eigenvalues --    4.12876   4.21326   4.25352   4.27433   4.28024
 Alpha virt. eigenvalues --    4.36620   4.41456   4.43683   4.45319   4.46946
 Alpha virt. eigenvalues --    4.51614   4.52994   4.62625   4.66046   4.79106
 Alpha virt. eigenvalues --    4.85334
          Condensed to atoms (all electrons):
               1          2          3          4          5          6
     1  C    5.459886  -0.119551   0.024203  -0.055720   0.046094  -0.001119
     2  C   -0.119551   5.597874  -0.013105  -0.096825  -0.152094   0.070658
     3  O    0.024203  -0.013105   8.409470   0.288393  -0.333704   0.007898
     4  C   -0.055720  -0.096825   0.288393   5.276998   0.267329  -0.285143
     5  N    0.046094  -0.152094  -0.333704   0.267329  11.241871  -2.013627
     6  N   -0.001119   0.070658   0.007898  -0.285143  -2.013627   9.293646
     7  C   -0.002250  -0.002549  -0.017564  -0.059989  -0.174779   0.217710
     8  O   -0.000343   0.000811   0.001151  -0.002947  -0.029822  -0.094416
     9  N    0.009888  -0.024092  -0.100714   0.229797   1.805212  -1.461386
    10  N   -0.011491   0.052345   0.187280  -0.066345  -3.790230   1.387655
    11  C   -0.126238   0.208868   0.300942  -0.381532  -1.120993   0.700122
    12  C   -0.078169   0.055003  -0.013910  -0.107022  -0.621957  -0.157691
    13  C    0.007430  -0.016256  -0.043556   0.019488   0.250417  -0.052017
    14  C    0.009539  -0.012370  -0.003008   0.010552   0.060473  -0.011065
    15  C    0.003388  -0.009855  -0.005904   0.023776   0.153978  -0.030047
    16  C    0.154363  -0.164956  -0.153501   0.142998   1.233811  -0.128579
    17  H    0.407225  -0.053568   0.004743   0.000219  -0.000091   0.000068
    18  H    0.447006  -0.076641  -0.005820  -0.000920  -0.000819  -0.000266
    19  H    0.452360  -0.081944  -0.005226  -0.002958  -0.000723   0.000130
    20  H   -0.014887   0.385216  -0.061262   0.001861  -0.003260  -0.001504
    21  H    0.008342   0.379328  -0.057451  -0.015325  -0.005580   0.002872
    22  H   -0.002991  -0.004330  -0.036027   0.425149  -0.076008   0.042284
    23  H   -0.004424  -0.003399  -0.070919   0.413721  -0.048487  -0.023755
    24  H   -0.000216  -0.000324   0.000041  -0.000586   0.008747   0.008440
    25  H    0.000009   0.000007  -0.000035   0.000891  -0.000946  -0.000084
    26  H   -0.000006   0.000026   0.000005  -0.000242  -0.000040   0.000001
    27  H    0.000010  -0.000034  -0.000018  -0.000013  -0.000015  -0.000002
    28  H    0.000786  -0.000723  -0.000705   0.001969  -0.017988  -0.001704
               7          8          9         10         11         12
     1  C   -0.002250  -0.000343   0.009888  -0.011491  -0.126238  -0.078169
     2  C   -0.002549   0.000811  -0.024092   0.052345   0.208868   0.055003
     3  O   -0.017564   0.001151  -0.100714   0.187280   0.300942  -0.013910
     4  C   -0.059989  -0.002947   0.229797  -0.066345  -0.381532  -0.107022
     5  N   -0.174779  -0.029822   1.805212  -3.790230  -1.120993  -0.621957
     6  N    0.217710  -0.094416  -1.461386   1.387655   0.700122  -0.157691
     7  C    5.025163   0.376703  -0.117521   0.340588  -0.305371   0.105994
     8  O    0.376703   8.400252  -0.125528   0.024032   0.014741  -0.011638
     9  N   -0.117521  -0.125528   9.939542  -2.619037  -1.434568  -0.366857
    10  N    0.340588   0.024032  -2.619037  11.239570   0.660986   0.730890
    11  C   -0.305371   0.014741  -1.434568   0.660986  23.685668  -0.972095
    12  C    0.105994  -0.011638  -0.366857   0.730890  -0.972095  23.790713
    13  C   -0.014864   0.001124   0.167766  -0.162162  -1.617400  -0.345905
    14  C    0.008857   0.000244   0.033715  -0.022504  -1.370759  -0.566247
    15  C   -0.036996  -0.000563   0.211285  -0.196454  -1.588989  -0.344588
    16  C    0.107290   0.009099   0.914182  -1.164775  -9.294305 -15.426581
    17  H    0.000012   0.000000  -0.000018  -0.000045   0.000282   0.000285
    18  H   -0.000164   0.000001  -0.000040   0.000175   0.001337   0.000223
    19  H   -0.000128  -0.000000   0.000044   0.000025  -0.000385  -0.001140
    20  H    0.000004  -0.000000   0.000122   0.004106  -0.010423   0.017261
    21  H   -0.000420   0.000001  -0.000258  -0.002429   0.005221  -0.007269
    22  H   -0.003365   0.000032  -0.013126  -0.039014   0.068302  -0.049662
    23  H    0.000905  -0.000086   0.020359   0.060294  -0.170997   0.162323
    24  H    0.000673   0.000005  -0.012777  -0.013621   0.244407   0.048022
    25  H   -0.000003   0.000000   0.000728   0.001424  -0.003749   0.033561
    26  H    0.000001  -0.000000  -0.000118  -0.000163   0.002180   0.005098
    27  H   -0.000015  -0.000000  -0.000432  -0.000064   0.010019  -0.006114
    28  H    0.001984   0.000037   0.021283  -0.007318   0.115941   0.066079
              13         14         15         16         17         18
     1  C    0.007430   0.009539   0.003388   0.154363   0.407225   0.447006
     2  C   -0.016256  -0.012370  -0.009855  -0.164956  -0.053568  -0.076641
     3  O   -0.043556  -0.003008  -0.005904  -0.153501   0.004743  -0.005820
     4  C    0.019488   0.010552   0.023776   0.142998   0.000219  -0.000920
     5  N    0.250417   0.060473   0.153978   1.233811  -0.000091  -0.000819
     6  N   -0.052017  -0.011065  -0.030047  -0.128579   0.000068  -0.000266
     7  C   -0.014864   0.008857  -0.036996   0.107290   0.000012  -0.000164
     8  O    0.001124   0.000244  -0.000563   0.009099   0.000000   0.000001
     9  N    0.167766   0.033715   0.211285   0.914182  -0.000018  -0.000040
    10  N   -0.162162  -0.022504  -0.196454  -1.164775  -0.000045   0.000175
    11  C   -1.617400  -1.370759  -1.588989  -9.294305   0.000282   0.001337
    12  C   -0.345905  -0.566247  -0.344588 -15.426581   0.000285   0.000223
    13  C    6.740677   0.708894  -0.014413   0.258436  -0.000070  -0.000066
    14  C    0.708894   5.343641   0.548591   0.913934   0.000009   0.000031
    15  C   -0.014413   0.548591   6.376760   0.849762  -0.000010  -0.000213
    16  C    0.258436   0.913934   0.849762  26.760505  -0.000421  -0.001051
    17  H   -0.000070   0.000009  -0.000010  -0.000421   0.545649  -0.025153
    18  H   -0.000066   0.000031  -0.000213  -0.001051  -0.025153   0.518099
    19  H   -0.000283   0.000065  -0.000422   0.002304  -0.026342  -0.026140
    20  H    0.001722   0.000459  -0.001751  -0.010634  -0.001261   0.004668
    21  H   -0.000817  -0.000048   0.000232   0.003750  -0.001508  -0.005952
    22  H   -0.007692  -0.000446   0.000565   0.009628   0.000006  -0.000028
    23  H    0.035805   0.001490  -0.004360  -0.067829   0.000004   0.000004
    24  H   -0.037956  -0.024788  -0.000270   0.083825  -0.000000   0.000000
    25  H    0.256726   0.026253   0.000699  -0.002047   0.000000  -0.000000
    26  H    0.014409   0.274930   0.022383  -0.005066   0.000000   0.000000
    27  H    0.002172   0.017967   0.254811   0.035518  -0.000000  -0.000000
    28  H   -0.002674  -0.008619  -0.026776   0.168275  -0.000000  -0.000000
              19         20         21         22         23         24
     1  C    0.452360  -0.014887   0.008342  -0.002991  -0.004424  -0.000216
     2  C   -0.081944   0.385216   0.379328  -0.004330  -0.003399  -0.000324
     3  O   -0.005226  -0.061262  -0.057451  -0.036027  -0.070919   0.000041
     4  C   -0.002958   0.001861  -0.015325   0.425149   0.413721  -0.000586
     5  N   -0.000723  -0.003260  -0.005580  -0.076008  -0.048487   0.008747
     6  N    0.000130  -0.001504   0.002872   0.042284  -0.023755   0.008440
     7  C   -0.000128   0.000004  -0.000420  -0.003365   0.000905   0.000673
     8  O   -0.000000  -0.000000   0.000001   0.000032  -0.000086   0.000005
     9  N    0.000044   0.000122  -0.000258  -0.013126   0.020359  -0.012777
    10  N    0.000025   0.004106  -0.002429  -0.039014   0.060294  -0.013621
    11  C   -0.000385  -0.010423   0.005221   0.068302  -0.170997   0.244407
    12  C   -0.001140   0.017261  -0.007269  -0.049662   0.162323   0.048022
    13  C   -0.000283   0.001722  -0.000817  -0.007692   0.035805  -0.037956
    14  C    0.000065   0.000459  -0.000048  -0.000446   0.001490  -0.024788
    15  C   -0.000422  -0.001751   0.000232   0.000565  -0.004360  -0.000270
    16  C    0.002304  -0.010634   0.003750   0.009628  -0.067829   0.083825
    17  H   -0.026342  -0.001261  -0.001508   0.000006   0.000004  -0.000000
    18  H   -0.026140   0.004668  -0.005952  -0.000028   0.000004   0.000000
    19  H    0.530189  -0.006341   0.004693   0.000008  -0.000035  -0.000000
    20  H   -0.006341   0.618992  -0.051874  -0.002697   0.008244  -0.000003
    21  H    0.004693  -0.051874   0.607768   0.009410  -0.002540   0.000000
    22  H    0.000008  -0.002697   0.009410   0.570720  -0.050989   0.000078
    23  H   -0.000035   0.008244  -0.002540  -0.050989   0.610990  -0.000453
    24  H   -0.000000  -0.000003   0.000000   0.000078  -0.000453   0.560684
    25  H    0.000000  -0.000000   0.000000   0.000000  -0.000005  -0.005299
    26  H    0.000000   0.000000   0.000000  -0.000000  -0.000000  -0.000140
    27  H   -0.000000   0.000000  -0.000000  -0.000000   0.000000   0.000015
    28  H   -0.000002  -0.000000  -0.000000  -0.000001   0.000005  -0.000137
              25         26         27         28
     1  C    0.000009  -0.000006   0.000010   0.000786
     2  C    0.000007   0.000026  -0.000034  -0.000723
     3  O   -0.000035   0.000005  -0.000018  -0.000705
     4  C    0.000891  -0.000242  -0.000013   0.001969
     5  N   -0.000946  -0.000040  -0.000015  -0.017988
     6  N   -0.000084   0.000001  -0.000002  -0.001704
     7  C   -0.000003   0.000001  -0.000015   0.001984
     8  O    0.000000  -0.000000  -0.000000   0.000037
     9  N    0.000728  -0.000118  -0.000432   0.021283
    10  N    0.001424  -0.000163  -0.000064  -0.007318
    11  C   -0.003749   0.002180   0.010019   0.115941
    12  C    0.033561   0.005098  -0.006114   0.066079
    13  C    0.256726   0.014409   0.002172  -0.002674
    14  C    0.026253   0.274930   0.017967  -0.008619
    15  C    0.000699   0.022383   0.254811  -0.026776
    16  C   -0.002047  -0.005066   0.035518   0.168275
    17  H    0.000000   0.000000  -0.000000  -0.000000
    18  H   -0.000000   0.000000  -0.000000  -0.000000
    19  H    0.000000   0.000000  -0.000000  -0.000002
    20  H   -0.000000   0.000000   0.000000  -0.000000
    21  H    0.000000   0.000000  -0.000000  -0.000000
    22  H    0.000000  -0.000000  -0.000000  -0.000001
    23  H   -0.000005  -0.000000   0.000000   0.000005
    24  H   -0.005299  -0.000140   0.000015  -0.000137
    25  H    0.556297  -0.005460  -0.000157   0.000014
    26  H   -0.005460   0.559819  -0.005476  -0.000130
    27  H   -0.000157  -0.005476   0.554050  -0.005221
    28  H    0.000014  -0.000130  -0.005221   0.540003
 Mulliken charges:
               1
     1  C   -0.613122
     2  C    0.082481
     3  O   -0.301695
     4  C   -0.027577
     5  N    0.323233
     6  N   -0.469080
     7  C    0.550096
     8  O   -0.562890
     9  N   -0.077452
    10  N    0.406283
    11  C   -1.621211
    12  C    0.061396
    13  C   -0.148934
    14  C    0.060210
    15  C   -0.184618
    16  C    0.772064
    17  H    0.149986
    18  H    0.171730
    19  H    0.162253
    20  H    0.123245
    21  H    0.129854
    22  H    0.160194
    23  H    0.134133
    24  H    0.141633
    25  H    0.141177
    26  H    0.137990
    27  H    0.143001
    28  H    0.155622
 Sum of Mulliken charges =  -0.00000
 Mulliken charges with hydrogens summed into heavy atoms:
               1
     1  C   -0.129153
     2  C    0.335579
     3  O   -0.301695
     4  C    0.266749
     5  N    0.323233
     6  N   -0.469080
     7  C    0.550096
     8  O   -0.562890
     9  N   -0.077452
    10  N    0.406283
    11  C   -1.621211
    12  C    0.203029
    13  C   -0.007757
    14  C    0.198200
    15  C   -0.041617
    16  C    0.927686
 Electronic spatial extent (au):  <R**2>=           3864.4085
 Charge=             -0.0000 electrons
 Dipole moment (field-independent basis, Debye):
    X=              8.4070    Y=              7.9398    Z=             -3.0636  Tot=             11.9626
 Quadrupole moment (field-independent basis, Debye-Ang):
   XX=           -105.4765   YY=           -104.9202   ZZ=            -86.1682
   XY=            -20.4472   XZ=              4.9881   YZ=              3.4777
 Traceless Quadrupole moment (field-independent basis, Debye-Ang):
   XX=             -6.6215   YY=             -6.0653   ZZ=             12.6868
   XY=            -20.4472   XZ=              4.9881   YZ=              3.4777
 Octapole moment (field-independent basis, Debye-Ang**2):
  XXX=            114.4889  YYY=            103.5015  ZZZ=             -2.1106  XYY=             24.6147
  XXY=             62.3571  XXZ=             -9.1616  XZZ=              9.9588  YZZ=              5.3778
  YYZ=            -19.2133  XYZ=             -7.2807
 Hexadecapole moment (field-independent basis, Debye-Ang**3):
 XXXX=          -2597.8890 YYYY=          -2163.6175 ZZZZ=           -496.6541 XXXY=           -186.5171
 XXXZ=             29.1947 YYYX=           -163.7493 YYYZ=             48.9901 ZZZX=              5.2935
 ZZZY=              1.4379 XXYY=           -962.0258 XXZZ=           -478.9232 YYZZ=           -454.8992
 XXYZ=             34.7456 YYXZ=             38.2297 ZZXY=            -18.9142
 N-N= 1.087418482314D+03 E-N=-3.936156292445D+03  KE= 7.506391536510D+02
 Unable to Open any file for archive entry.
 1\1\GINC-N2\SP\RB3LYP TD-FC\6-31+G(d,p)\C10H12N4O2\HPCMGAC13\17-Sep-20
 25\0\\# td=(50-50,nstates=3) b3lyp/6-31+g(d,p) geom=connectivity\\Titl
 e Card Required\\0,1\C,0,0.845283,-4.052795,0.997285\C,0,0.904796,-3.2
 68182,-0.300253\O,0,0.954363,-1.871976,0.024839\C,0,1.023366,-1.049789
 ,-1.108657\N,0,1.237739,0.318192,-0.662655\N,0,2.441774,0.824738,-0.49
 7002\C,0,2.253746,1.994948,0.263045\O,0,3.118462,2.777397,0.626645\N,0
 ,0.862744,2.114054,0.52857\N,0,0.312981,1.070499,-0.036252\C,0,-1.0939
 87,0.795068,-0.008159\C,0,-1.820305,0.76916,-1.200757\C,0,-3.193423,0.
 520049,-1.147893\C,0,-3.823899,0.322346,0.083512\C,0,-3.083592,0.37550
 1,1.269189\C,0,-1.70958,0.611605,1.231157\H,0,0.814597,-5.125892,0.782
 872\H,0,1.725838,-3.845689,1.611836\H,0,-0.048657,-3.787531,1.569149\H
 ,0,0.019501,-3.469809,-0.923476\H,0,1.799354,-3.5372,-0.881977\H,0,1.8
 87016,-1.278956,-1.742643\H,0,0.098994,-1.097553,-1.696982\H,0,-1.3255
 51,0.966596,-2.146482\H,0,-3.770268,0.500889,-2.067164\H,0,-4.893123,0
 .138033,0.120422\H,0,-3.575349,0.232396,2.22613\H,0,-1.116041,0.661504
 ,2.137007\\Version=ES64L-G16RevC.02\State=1-A\HF=-757.6748884\RMSD=2.9
 95e-09\PG=C01 [X(C10H12N4O2)]\\@
 The archive entry for this job was punched.


 THERE'S SMALL CHOICE IN A BOWL OF ROTTEN APPLES.
                     SHAKESPEARE
 Job cpu time:       0 days  0 hours 36 minutes 46.3 seconds.
 Elapsed time:       0 days  0 hours  4 minutes 40.3 seconds.
 File lengths (MBytes):  RWF=    796 Int=      0 D2E=      0 Chk=     36 Scr=      2
 Normal termination of Gaussian 16 at Wed Sep 17 02:46:01 2025.
