 Entering Gaussian System, Link 0=g16
 Input=m2813e.gjf
 Output=m2813e.log
 Initial command:
 /hpc/softwares/Gaussian/g16/l1.exe "/hpc/home/hpcmgac13/pbs.12369.admin1.x8z/Gau-1722880.inp" -scrdir="/hpc/home/hpcmgac13/pbs.12369.admin1.x8z/"
 Default linda workers: n1
 Default is to use  16 SMP processors on each worker.
 Entering Link 1 = /hpc/softwares/Gaussian/g16/l1.exe PID=   1722881.
  
 Copyright (c) 1988-2021, Gaussian, Inc.  All Rights Reserved.
  
 This is part of the Gaussian(R) 16 program.  It is based on
 the Gaussian(R) 09 system (copyright 2009, Gaussian, Inc.),
 the Gaussian(R) 03 system (copyright 2003, Gaussian, Inc.),
 the Gaussian(R) 98 system (copyright 1998, Gaussian, Inc.),
 the Gaussian(R) 94 system (copyright 1995, Gaussian, Inc.),
 the Gaussian 92(TM) system (copyright 1992, Gaussian, Inc.),
 the Gaussian 90(TM) system (copyright 1990, Gaussian, Inc.),
 the Gaussian 88(TM) system (copyright 1988, Gaussian, Inc.),
 the Gaussian 86(TM) system (copyright 1986, Carnegie Mellon
 University), and the Gaussian 82(TM) system (copyright 1983,
 Carnegie Mellon University). Gaussian is a federally registered
 trademark of Gaussian, Inc.
  
 This software contains proprietary and confidential information,
 including trade secrets, belonging to Gaussian, Inc.
  
 This software is provided under written license and may be
 used, copied, transmitted, or stored only in accord with that
 written license.
  
 The following legend is applicable only to US Government
 contracts under FAR:
  
                    RESTRICTED RIGHTS LEGEND
  
 Use, reproduction and disclosure by the US Government is
 subject to restrictions as set forth in subparagraphs (a)
 and (c) of the Commercial Computer Software - Restricted
 Rights clause in FAR 52.227-19.
  
 Gaussian, Inc.
 340 Quinnipiac St., Bldg. 40, Wallingford CT 06492
  
  
 ---------------------------------------------------------------
 Warning -- This program may not be used in any manner that
 competes with the business of Gaussian, Inc. or will provide
 assistance to any competitor of Gaussian, Inc.  The licensee
 of this program is prohibited from giving any competitor of
 Gaussian, Inc. access to this program.  By using this program,
 the user acknowledges that Gaussian, Inc. is engaged in the
 business of creating and licensing software in the field of
 computational chemistry and represents and warrants to the
 licensee that it is not a competitor of Gaussian, Inc. and that
 it will not use this program in any manner prohibited above.
 ---------------------------------------------------------------
  

 Cite this work as:
 Gaussian 16, Revision C.02,
 M. J. Frisch, G. W. Trucks, H. B. Schlegel, G. E. Scuseria, 
 M. A. Robb, J. R. Cheeseman, G. Scalmani, V. Barone, 
 G. A. Petersson, H. Nakatsuji, X. Li, M. Caricato, A. V. Marenich, 
 J. Bloino, B. G. Janesko, R. Gomperts, B. Mennucci, H. P. Hratchian, 
 J. V. Ortiz, A. F. Izmaylov, J. L. Sonnenberg, D. Williams-Young, 
 F. Ding, F. Lipparini, F. Egidi, J. Goings, B. Peng, A. Petrone, 
 T. Henderson, D. Ranasinghe, V. G. Zakrzewski, J. Gao, N. Rega, 
 G. Zheng, W. Liang, M. Hada, M. Ehara, K. Toyota, R. Fukuda, 
 J. Hasegawa, M. Ishida, T. Nakajima, Y. Honda, O. Kitao, H. Nakai, 
 T. Vreven, K. Throssell, J. A. Montgomery, Jr., J. E. Peralta, 
 F. Ogliaro, M. J. Bearpark, J. J. Heyd, E. N. Brothers, K. N. Kudin, 
 V. N. Staroverov, T. A. Keith, R. Kobayashi, J. Normand, 
 K. Raghavachari, A. P. Rendell, J. C. Burant, S. S. Iyengar, 
 J. Tomasi, M. Cossi, J. M. Millam, M. Klene, C. Adamo, R. Cammi, 
 J. W. Ochterski, R. L. Martin, K. Morokuma, O. Farkas, 
 J. B. Foresman, and D. J. Fox, Gaussian, Inc., Wallingford CT, 2019.
 
 ******************************************
 Gaussian 16:  ES64L-G16RevC.02  7-Dec-2021
                29-Jul-2025 
 ******************************************
 SetLPE:    new flags="-opt 'Tsnet.Node.lindarsharg: ssh'  -nodelist 'n1' -env GAUSS_MDEF=2147483648 -env GAUSS_EXEDIR="/hpc/softwares/Gaussian/g16/bsd:/hpc/softwares/Gaussian/g16""
 Will use up to    1 processors via Linda.
 ----------------------------------------------------------
 # td=(50-50,nstates=3) b3lyp/6-31+g(d,p) geom=connectivity
 ----------------------------------------------------------
 1/38=1,57=2,172=1/1;
 2/12=2,17=6,18=5,40=1/2;
 3/5=1,6=6,7=111,11=9,25=1,30=1,74=-5/1,2,3,8;
 4//1;
 5/5=2,38=5/2;
 8/6=1,10=2,108=3/1;
 9/41=3,42=1,48=2,70=2/14;
 6/7=2,8=2,9=2,10=2/1;
 99/5=1,9=1/99;
 -------------------
 Title Card Required
 -------------------
 Symbolic Z-matrix:
 Charge =  0 Multiplicity = 1
 C                    -4.07386  -1.87033   0.09962 
 C                    -2.94258  -0.96908  -0.10455 
 C                    -2.0118   -0.21525  -0.27891 
 C                    -0.85944   0.67956  -0.48009 
 C                    -1.1674    2.04703   0.00067 
 N                    -1.38385   3.12115   0.38507 
 C                     0.40187   0.15596   0.19682 
 N                     1.40836  -0.11806  -0.55113 
 N                     2.54116  -0.66321  -0.05188 
 C                     3.7004   -0.4372   -0.90828 
 C                     2.77554  -0.66284   1.38466 
 H                    -4.54658  -2.12906  -0.85397 
 H                    -3.75356  -2.80107   0.58035 
 H                    -4.83327  -1.4051    0.73732 
 H                    -0.63257   0.7554   -1.5517 
 H                     0.35764   0.01539   1.27677 
 H                     3.38245  -0.53391  -1.94706 
 H                     4.13824   0.56334  -0.76419 
 H                     4.46256  -1.19141  -0.6937 
 H                     2.01942  -1.26648   1.89694 
 H                     3.75227  -1.1094    1.57803 
 H                     2.75743   0.35599   1.80723 
 
                          Input orientation:                          
 ---------------------------------------------------------------------
 Center     Atomic      Atomic             Coordinates (Angstroms)
 Number     Number       Type             X           Y           Z
 ---------------------------------------------------------------------
      1          6           0       -4.073858   -1.870329    0.099618
      2          6           0       -2.942581   -0.969082   -0.104551
      3          6           0       -2.011802   -0.215250   -0.278911
      4          6           0       -0.859436    0.679563   -0.480094
      5          6           0       -1.167404    2.047032    0.000668
      6          7           0       -1.383851    3.121154    0.385069
      7          6           0        0.401870    0.155956    0.196820
      8          7           0        1.408360   -0.118061   -0.551126
      9          7           0        2.541155   -0.663207   -0.051883
     10          6           0        3.700395   -0.437199   -0.908277
     11          6           0        2.775538   -0.662840    1.384657
     12          1           0       -4.546584   -2.129059   -0.853969
     13          1           0       -3.753560   -2.801074    0.580347
     14          1           0       -4.833274   -1.405100    0.737317
     15          1           0       -0.632571    0.755399   -1.551702
     16          1           0        0.357638    0.015388    1.276766
     17          1           0        3.382445   -0.533905   -1.947063
     18          1           0        4.138244    0.563336   -0.764190
     19          1           0        4.462564   -1.191407   -0.693703
     20          1           0        2.019419   -1.266480    1.896936
     21          1           0        3.752270   -1.109401    1.578028
     22          1           0        2.757429    0.355992    1.807227
 ---------------------------------------------------------------------
                    Distance matrix (angstroms):
                    1          2          3          4          5
     1  C    0.000000
     2  C    1.460725   0.000000
     3  C    2.671076   1.210377   0.000000
     4  C    4.143733   2.683012   1.472791   0.000000
     5  C    4.878830   3.501324   2.430862   1.481873   0.000000
     6  N    5.677369   4.404475   3.459304   2.642893   1.161185
     7  C    4.914002   3.541453   2.487956   1.524228   2.465211
     8  N    5.792117   4.455822   3.432354   2.405026   3.409790
     9  N    6.725957   5.492513   4.580570   3.681089   4.593644
    10  C    7.969236   6.712526   5.751048   4.714081   5.540131
    11  C    7.072735   5.916790   5.087870   4.300277   4.980524
    12  H    1.095326   2.116601   3.227766   4.650075   5.439577
    13  H    1.095435   2.117302   3.233965   4.649228   5.525248
    14  H    1.095359   2.115082   3.226324   4.649656   5.089054
    15  H    4.632900   3.225558   2.112921   1.097981   2.089070
    16  H    4.957798   3.710615   2.843865   2.238069   2.842843
    17  H    7.846744   6.602286   5.655278   4.649522   5.581758
    18  H    8.608572   7.274717   6.218099   5.007097   5.562038
    19  H    8.600046   7.431871   6.560667   5.645338   6.531935
    20  H    6.381458   5.358716   4.700015   4.210126   4.973031
    21  H    8.000812   6.904476   6.121459   5.357620   6.054282
    22  H    7.385047   6.156365   5.236779   4.291649   4.639783
                    6          7          8          9         10
     6  N    0.000000
     7  C    3.466502   0.000000
     8  N    4.377832   1.283562   0.000000
     9  N    5.469734   2.304218   1.352646   0.000000
    10  C    6.339099   3.528929   2.341544   1.458879   0.000000
    11  C    5.711244   2.777712   2.431710   1.455535   2.482704
    12  H    6.253226   5.550914   6.292629   7.282040   8.418907
    13  H    6.381727   5.114559   5.926568   6.677846   7.960236
    14  H    5.701717   5.489605   6.501888   7.453553   8.744617
    15  H    3.148381   2.118190   2.435053   3.786085   4.539921
    16  H    3.670653   1.089954   2.112585   2.644531   4.019113
    17  H    6.443281   3.735769   2.453279   2.077545   1.090651
    18  H    6.193284   3.879432   2.821695   2.135997   1.101609
    19  H    7.344556   4.370086   3.240457   2.093500   1.093514
    20  H    5.754939   2.744118   2.772231   2.105717   3.373812
    21  H    6.760213   3.838495   3.318127   2.079062   2.576094
    22  H    5.178692   2.860434   2.757996   2.131157   2.981996
                   11         12         13         14         15
    11  C    0.000000
    12  H    7.795814   0.000000
    13  H    6.917231   1.771371   0.000000
    14  H    7.672289   1.771581   1.771769   0.000000
    15  H    4.716865   4.911866   5.189866   5.249121   0.000000
    16  H    2.513538   5.761083   5.031839   5.408730   3.086804
    17  H    3.389000   8.161426   7.902558   8.686939   4.235442
    18  H    2.824539   9.093035   8.683755   9.306847   4.839188
    19  H    2.728556   9.059229   8.468703   9.407767   5.521469
    20  H    1.094773   7.171047   6.116835   6.951499   4.797307
    21  H    1.091244   8.707772   7.758518   8.631674   5.700835
    22  H    1.103137   8.161253   7.339297   7.865426   4.788949
                   16         17         18         19         20
    16  H    0.000000
    17  H    4.454689   0.000000
    18  H    4.331135   1.781673   0.000000
    19  H    4.710575   1.780415   1.785854   0.000000
    20  H    2.188450   4.143771   3.862543   3.561742   0.000000
    21  H    3.588793   3.590854   2.903965   2.381597   1.768940
    22  H    2.481209   3.908613   2.926060   3.399497   1.784691
                   21         22
    21  H    0.000000
    22  H    1.785950   0.000000
 Stoichiometry    C8H11N3
 Framework group  C1[X(C8H11N3)]
 Deg. of freedom    60
 Full point group                 C1      NOp   1
 Largest Abelian subgroup         C1      NOp   1
 Largest concise Abelian subgroup C1      NOp   1
                         Standard orientation:                         
 ---------------------------------------------------------------------
 Center     Atomic      Atomic             Coordinates (Angstroms)
 Number     Number       Type             X           Y           Z
 ---------------------------------------------------------------------
      1          6           0       -4.073858   -1.870329    0.099618
      2          6           0       -2.942581   -0.969082   -0.104551
      3          6           0       -2.011802   -0.215250   -0.278911
      4          6           0       -0.859436    0.679563   -0.480094
      5          6           0       -1.167404    2.047032    0.000668
      6          7           0       -1.383851    3.121154    0.385069
      7          6           0        0.401870    0.155956    0.196820
      8          7           0        1.408360   -0.118061   -0.551126
      9          7           0        2.541155   -0.663207   -0.051883
     10          6           0        3.700395   -0.437199   -0.908277
     11          6           0        2.775538   -0.662840    1.384657
     12          1           0       -4.546584   -2.129059   -0.853969
     13          1           0       -3.753560   -2.801074    0.580347
     14          1           0       -4.833274   -1.405100    0.737317
     15          1           0       -0.632571    0.755399   -1.551702
     16          1           0        0.357638    0.015388    1.276766
     17          1           0        3.382445   -0.533905   -1.947063
     18          1           0        4.138244    0.563336   -0.764190
     19          1           0        4.462564   -1.191407   -0.693703
     20          1           0        2.019419   -1.266480    1.896936
     21          1           0        3.752270   -1.109401    1.578028
     22          1           0        2.757429    0.355992    1.807227
 ---------------------------------------------------------------------
 Rotational constants (GHZ):           1.4729578           0.5166789           0.4232479
 Standard basis: 6-31+G(d,p) (6D, 7F)
 There are   264 symmetry adapted cartesian basis functions of A   symmetry.
 There are   264 symmetry adapted basis functions of A   symmetry.
   264 basis functions,   429 primitive gaussians,   264 cartesian basis functions
    40 alpha electrons       40 beta electrons
       nuclear repulsion energy       531.2344115848 Hartrees.
 NAtoms=   22 NActive=   22 NUniq=   22 SFac= 1.00D+00 NAtFMM=   60 NAOKFM=F Big=F
 Integral buffers will be    131072 words long.
 Regular integral format.
 Two-electron integral symmetry is turned on.
 One-electron integrals computed using PRISM.
 NBasis=   264 RedAO= T EigKep=  2.89D-06  NBF=   264
 NBsUse=   263 1.00D-06 EigRej=  3.48D-08 NBFU=   263
 ExpMin= 4.38D-02 ExpMax= 4.17D+03 ExpMxC= 6.27D+02 IAcc=3 IRadAn=         5 AccDes= 0.00D+00
 Harris functional with IExCor=  402 and IRadAn=       5 diagonalized for initial guess.
 HarFok:  IExCor=  402 AccDes= 0.00D+00 IRadAn=         5 IDoV= 1 UseB2=F ITyADJ=14
 ICtDFT=  3500011 ScaDFX=  1.000000  1.000000  1.000000  1.000000
 FoFCou: FMM=F IPFlag=           0 FMFlag=      100000 FMFlg1=           0
         NFxFlg=           0 DoJE=T BraDBF=F KetDBF=T FulRan=T
         wScrn=  0.000000 ICntrl=       500 IOpCl=  0 I1Cent=   200000004 NGrid=           0
         NMat0=    1 NMatS0=      1 NMatT0=    0 NMatD0=    1 NMtDS0=    0 NMtDT0=    0
 Petite list used in FoFCou.
 Requested convergence on RMS density matrix=1.00D-08 within 128 cycles.
 Requested convergence on MAX density matrix=1.00D-06.
 Requested convergence on             energy=1.00D-06.
 No special actions if energy rises.
 SCF Done:  E(RB3LYP) =  -475.628996556     A.U. after   15 cycles
            NFock= 15  Conv=0.30D-08     -V/T= 2.0098
 DoSCS=F DFT=T ScalE2(SS,OS)=  1.000000  1.000000
 ExpMin= 4.38D-02 ExpMax= 4.17D+03 ExpMxC= 6.27D+02 IAcc=3 IRadAn=         5 AccDes= 0.00D+00
 HarFok:  IExCor=  205 AccDes= 0.00D+00 IRadAn=         5 IDoV=-2 UseB2=F ITyADJ=14
 ICtDFT= 12500011 ScaDFX=  1.000000  1.000000  1.000000  1.000000
 Range of M.O.s used for correlation:    12   263
 NBasis=   264 NAE=    40 NBE=    40 NFC=    11 NFV=     0
 NROrb=    252 NOA=    29 NOB=    29 NVA=   223 NVB=   223

 **** Warning!!: The largest alpha MO coefficient is  0.13533446D+03

 Keep R1, R2, and R3 ints in memory in canonical form, NReq=1967583826.
 Orbital symmetries:
       Occupied  (A) (A) (A) (A) (A) (A) (A) (A) (A) (A) (A) (A)
                 (A) (A) (A) (A) (A) (A) (A) (A) (A) (A) (A) (A)
                 (A) (A) (A) (A) (A) (A) (A) (A) (A) (A) (A) (A)
                 (A) (A) (A) (A)
       Virtual   (A) (A) (A) (A) (A) (A) (A) (A) (A) (A) (A) (A)
                 (A) (A) (A) (A) (A) (A) (A) (A) (A) (A) (A) (A)
                 (A) (A) (A) (A) (A) (A) (A) (A) (A) (A) (A) (A)
                 (A) (A) (A) (A) (A) (A) (A) (A) (A) (A) (A) (A)
                 (A) (A) (A) (A) (A) (A) (A) (A) (A) (A) (A) (A)
                 (A) (A) (A) (A) (A) (A) (A) (A) (A) (A) (A) (A)
                 (A) (A) (A) (A) (A) (A) (A) (A) (A) (A) (A) (A)
                 (A) (A) (A) (A) (A) (A) (A) (A) (A) (A) (A) (A)
                 (A) (A) (A) (A) (A) (A) (A) (A) (A) (A) (A) (A)
                 (A) (A) (A) (A) (A) (A) (A) (A) (A) (A) (A) (A)
                 (A) (A) (A) (A) (A) (A) (A) (A) (A) (A) (A) (A)
                 (A) (A) (A) (A) (A) (A) (A) (A) (A) (A) (A) (A)
                 (A) (A) (A) (A) (A) (A) (A) (A) (A) (A) (A) (A)
                 (A) (A) (A) (A) (A) (A) (A) (A) (A) (A) (A) (A)
                 (A) (A) (A) (A) (A) (A) (A) (A) (A) (A) (A) (A)
                 (A) (A) (A) (A) (A) (A) (A) (A) (A) (A) (A) (A)
                 (A) (A) (A) (A) (A) (A) (A) (A) (A) (A) (A) (A)
                 (A) (A) (A) (A) (A) (A) (A) (A) (A) (A) (A) (A)
                 (A) (A) (A) (A) (A) (A) (A)
    24 initial guesses have been made.
 Convergence on wavefunction:    0.001000000000000
 Iteration     1 Dimension    24 NMult     0 NNew     24
 CISAX will form    24 AO SS matrices at one time.
 New state      1 was old state      2
 New state      2 was old state      4
 New state      4 was old state      8
 New state      5 was old state      6
 New state      6 was old state      5
 New state      7 was old state     16
 New state      8 was old state      7
 New state      9 was old state     12
 New state     10 was old state     11
 New state     11 was old state     14
 New state     12 was old state     10
 Vector   5 SDiff=7.88D+00 TDiff=1.08D+01 assumed to be singlet.
 Vector  11 SDiff=7.90D+00 TDiff=1.08D+01 assumed to be singlet.
 Iteration     2 Dimension    36 NMult    24 NNew     12
 New state      2 was old state      3
 New state      3 was old state      2
 New state      5 was old state      6
 New state      6 was old state      8
 Iteration     3 Dimension    48 NMult    36 NNew     12
 New state      2 was old state      4
 New state      3 was old state      2
 New state      4 was old state      3
 Iteration     4 Dimension    60 NMult    48 NNew     12
 New state      3 was old state      4
 New state      4 was old state      3
 Iteration     5 Dimension    72 NMult    60 NNew     12
 Iteration     6 Dimension    82 NMult    72 NNew     10
 Iteration     7 Dimension    92 NMult    82 NNew     10
 Iteration     8 Dimension   100 NMult    92 NNew      8
 Iteration     9 Dimension   106 NMult   100 NNew      6
 Iteration    10 Dimension   108 NMult   106 NNew      2
 ***********************************************************************
 Excited states from <AA,BB:AA,BB> singles matrix:
 ***********************************************************************
 
 Ground to excited state transition densities written to RWF  633
 Ground to excited state transition electric dipole moments (Au):
       state          X           Y           Z        Dip. S.      Osc.
         1         0.0000      0.0000     -0.0000      0.0000      0.0000
         2        -0.0000     -0.0000     -0.0000      0.0000      0.0000
         3        -0.0000      0.0000      0.0000      0.0000      0.0000
         4         1.3330      0.0350      0.0009      1.7781      0.2258
         5        -1.1146      0.4743      0.1388      1.4866      0.2001
         6         0.2475     -0.0969      0.0153      0.0709      0.0100
 Ground to excited state transition velocity dipole moments (Au):
       state          X           Y           Z        Dip. S.      Osc.
         1         0.0000     -0.0000      0.0000      0.0000      0.0000
         2         0.0000      0.0000      0.0000      0.0000      0.0000
         3         0.0000     -0.0000     -0.0000      0.0000      0.0000
         4        -0.2457     -0.0073     -0.0009      0.0604      0.2114
         5         0.2170     -0.0931     -0.0273      0.0565      0.1867
         6        -0.0540      0.0198     -0.0032      0.0033      0.0105
 Ground to excited state transition magnetic dipole moments (Au):
       state          X           Y           Z
         1        -0.0000     -0.0000     -0.0000
         2        -0.0000     -0.0000     -0.0000
         3        -0.0000      0.0000     -0.0000
         4         0.2383      0.1669     -0.1463
         5        -0.0286     -0.0853     -0.3990
         6        -0.0086      0.0264      0.1236
 Ground to excited state transition velocity quadrupole moments (Au):
       state          XX          YY          ZZ          XY          XZ          YZ
         1         0.0000     -0.0000     -0.0000     -0.0000     -0.0000      0.0000
         2         0.0000     -0.0000      0.0000      0.0000      0.0000      0.0000
         3         0.0000      0.0000      0.0000     -0.0000      0.0000      0.0000
         4        -0.6451      0.1497     -0.1347     -0.0351     -0.0624     -0.0647
         5         0.6541     -0.2366      0.1186     -0.3879     -0.1398     -0.1455
         6         0.0359      0.0862     -0.0520      0.2776      0.0768      0.0057
 <0|del|b> * <b|rxdel|0> + <0|del|b> * <b|delr+rdel|0>
 Rotatory Strengths (R) in cgs (10**-40 erg-esu-cm/Gauss)
       state          XX          YY          ZZ    R(velocity)    E-M Angle
         1        -0.0000      0.0000     -0.0000     -0.0000       90.00
         2        -0.0000     -0.0000     -0.0000     -0.0000       90.00
         3         0.0000     -0.0000     -0.0000     -0.0000       90.00
         4        -2.7901    -78.9587   -139.5661    -73.7716      138.16
         5        28.7058    -65.6637     81.1699     14.7373       82.54
         6        -3.8554      1.0979      4.7319      0.6582       85.38
 1/2[<0|r|b>*<b|rxdel|0> + (<0|rxdel|b>*<b|r|0>)*]
 Rotatory Strengths (R) in cgs (10**-40 erg-esu-cm/Gauss)
       state          XX          YY          ZZ     R(length)
         1         0.0000      0.0000     -0.0000      0.0000
         2        -0.0000     -0.0000     -0.0000     -0.0000
         3        -0.0000     -0.0000      0.0000      0.0000
         4      -224.6315     -4.1251      0.0913    -76.2218
         5       -22.5570     28.6179     39.1728     15.0779
         6         1.5101      1.8070     -1.3385      0.6596
  1/2[<0|del|b>*<b|r|0> + (<0|r|b>*<b|del|0>)*] (Au)
       state          X           Y           Z        Dip. S.   Osc.(frdel)
         1         0.0000     -0.0000     -0.0000     -0.0000     -0.0000
         2        -0.0000     -0.0000     -0.0000      0.0000      0.0000
         3        -0.0000     -0.0000     -0.0000      0.0000      0.0000
         4        -0.3275     -0.0003     -0.0000      0.3277      0.2185
         5        -0.2419     -0.0442     -0.0038      0.2899      0.1933
         6        -0.0134     -0.0019     -0.0000      0.0153      0.0102

 Excitation energies and oscillator strengths:
 
 Excited State   1:      Triplet-A      3.3544 eV  369.61 nm  f=0.0000  <S**2>=2.000
      33 -> 41         0.10220
      40 -> 41         0.66763
      40 -> 42        -0.13730
 This state for optimization and/or second-order correction.
 Total Energy, E(TD-HF/TD-DFT) =  -475.505723190    
 Copying the excited state density for this state as the 1-particle RhoCI density.
 
 Excited State   2:      Triplet-A      4.8997 eV  253.05 nm  f=0.0000  <S**2>=2.000
      37 -> 41        -0.28721
      38 -> 41        -0.35108
      38 -> 44        -0.28762
      38 -> 58        -0.10764
      39 -> 45        -0.18754
      39 -> 50        -0.15574
      39 -> 55        -0.10206
      40 -> 44         0.14063
 
 Excited State   3:      Triplet-A      4.9873 eV  248.60 nm  f=0.0000  <S**2>=2.000
      37 -> 41        -0.52371
      37 -> 42         0.10033
      38 -> 41        -0.13710
      38 -> 44         0.19215
      38 -> 58         0.10923
      39 -> 45         0.16559
      39 -> 50         0.13257
      40 -> 44        -0.10231
 
 Excited State   4:      Singlet-A      5.1842 eV  239.16 nm  f=0.2258  <S**2>=0.000
      40 -> 41         0.58600
      40 -> 42         0.36642
      40 -> 43        -0.10449
 
 Excited State   5:      Singlet-A      5.4936 eV  225.69 nm  f=0.2001  <S**2>=0.000
      40 -> 41        -0.36390
      40 -> 42         0.58102
 
 Excited State   6:      Singlet-A      5.7349 eV  216.19 nm  f=0.0100  <S**2>=0.000
      40 -> 43         0.62501
      40 -> 45         0.25380
      40 -> 46         0.13767
 SavETr:  write IOETrn=   770 NScale= 10 NData=  16 NLR=1 NState=    6 LETran=     118.

 **********************************************************************

            Population analysis using the SCF Density.

 **********************************************************************

 Orbital symmetries:
       Occupied  (A) (A) (A) (A) (A) (A) (A) (A) (A) (A) (A) (A)
                 (A) (A) (A) (A) (A) (A) (A) (A) (A) (A) (A) (A)
                 (A) (A) (A) (A) (A) (A) (A) (A) (A) (A) (A) (A)
                 (A) (A) (A) (A)
       Virtual   (A) (A) (A) (A) (A) (A) (A) (A) (A) (A) (A) (A)
                 (A) (A) (A) (A) (A) (A) (A) (A) (A) (A) (A) (A)
                 (A) (A) (A) (A) (A) (A) (A) (A) (A) (A) (A) (A)
                 (A) (A) (A) (A) (A) (A) (A) (A) (A) (A) (A) (A)
                 (A) (A) (A) (A) (A) (A) (A) (A) (A) (A) (A) (A)
                 (A) (A) (A) (A) (A) (A) (A) (A) (A) (A) (A) (A)
                 (A) (A) (A) (A) (A) (A) (A) (A) (A) (A) (A) (A)
                 (A) (A) (A) (A) (A) (A) (A) (A) (A) (A) (A) (A)
                 (A) (A) (A) (A) (A) (A) (A) (A) (A) (A) (A) (A)
                 (A) (A) (A) (A) (A) (A) (A) (A) (A) (A) (A) (A)
                 (A) (A) (A) (A) (A) (A) (A) (A) (A) (A) (A) (A)
                 (A) (A) (A) (A) (A) (A) (A) (A) (A) (A) (A) (A)
                 (A) (A) (A) (A) (A) (A) (A) (A) (A) (A) (A) (A)
                 (A) (A) (A) (A) (A) (A) (A) (A) (A) (A) (A) (A)
                 (A) (A) (A) (A) (A) (A) (A) (A) (A) (A) (A) (A)
                 (A) (A) (A) (A) (A) (A) (A) (A) (A) (A) (A) (A)
                 (A) (A) (A) (A) (A) (A) (A) (A) (A) (A) (A) (A)
                 (A) (A) (A) (A) (A) (A) (A) (A) (A) (A) (A) (A)
                 (A) (A) (A) (A) (A) (A) (A)
 The electronic state is 1-A.
 Alpha  occ. eigenvalues --  -14.39760 -14.38662 -14.34336 -10.27001 -10.23901
 Alpha  occ. eigenvalues --  -10.23698 -10.23356 -10.22617 -10.21901 -10.20683
 Alpha  occ. eigenvalues --  -10.20095  -1.02978  -0.91305  -0.87339  -0.81715
 Alpha  occ. eigenvalues --   -0.78132  -0.74319  -0.70712  -0.67722  -0.58023
 Alpha  occ. eigenvalues --   -0.55103  -0.54651  -0.51012  -0.48689  -0.48453
 Alpha  occ. eigenvalues --   -0.46489  -0.44411  -0.44044  -0.43647  -0.42207
 Alpha  occ. eigenvalues --   -0.41765  -0.39776  -0.37415  -0.36351  -0.33875
 Alpha  occ. eigenvalues --   -0.33564  -0.29515  -0.27583  -0.27494  -0.23054
 Alpha virt. eigenvalues --   -0.02327  -0.00387   0.00376   0.01099   0.01400
 Alpha virt. eigenvalues --    0.01642   0.02396   0.03198   0.03836   0.04041
 Alpha virt. eigenvalues --    0.04553   0.04660   0.05308   0.05562   0.06227
 Alpha virt. eigenvalues --    0.06425   0.07728   0.07739   0.08547   0.09239
 Alpha virt. eigenvalues --    0.09546   0.10047   0.11005   0.11270   0.12125
 Alpha virt. eigenvalues --    0.12645   0.14152   0.14968   0.15827   0.16182
 Alpha virt. eigenvalues --    0.16819   0.17350   0.17926   0.18162   0.19081
 Alpha virt. eigenvalues --    0.19740   0.20389   0.20755   0.21435   0.21543
 Alpha virt. eigenvalues --    0.21873   0.22453   0.22678   0.23807   0.24144
 Alpha virt. eigenvalues --    0.24705   0.25222   0.25644   0.26015   0.26350
 Alpha virt. eigenvalues --    0.27322   0.27567   0.28419   0.29081   0.29513
 Alpha virt. eigenvalues --    0.30924   0.31002   0.31772   0.32389   0.33062
 Alpha virt. eigenvalues --    0.35120   0.36182   0.36734   0.39151   0.42025
 Alpha virt. eigenvalues --    0.43470   0.46147   0.53546   0.60328   0.62789
 Alpha virt. eigenvalues --    0.64587   0.65356   0.65737   0.67218   0.68044
 Alpha virt. eigenvalues --    0.70671   0.71051   0.72977   0.73989   0.74990
 Alpha virt. eigenvalues --    0.75499   0.76729   0.77736   0.80045   0.82513
 Alpha virt. eigenvalues --    0.83836   0.84828   0.86012   0.86943   0.87474
 Alpha virt. eigenvalues --    0.88889   0.90002   0.92407   0.93213   0.94110
 Alpha virt. eigenvalues --    0.94802   0.95455   0.96823   0.97740   0.99706
 Alpha virt. eigenvalues --    1.00296   1.01035   1.01939   1.02488   1.03955
 Alpha virt. eigenvalues --    1.04616   1.05928   1.07710   1.08174   1.09288
 Alpha virt. eigenvalues --    1.10404   1.13449   1.15199   1.19687   1.22264
 Alpha virt. eigenvalues --    1.25554   1.26841   1.30116   1.34580   1.35959
 Alpha virt. eigenvalues --    1.40332   1.41911   1.43587   1.47520   1.48376
 Alpha virt. eigenvalues --    1.51462   1.52411   1.53208   1.54178   1.55377
 Alpha virt. eigenvalues --    1.57118   1.57777   1.64254   1.64621   1.67313
 Alpha virt. eigenvalues --    1.68654   1.71419   1.76416   1.78974   1.81922
 Alpha virt. eigenvalues --    1.83806   1.87361   1.89057   1.91189   1.93230
 Alpha virt. eigenvalues --    1.94804   1.95633   1.98238   1.99030   2.00010
 Alpha virt. eigenvalues --    2.01966   2.02030   2.02709   2.03941   2.06480
 Alpha virt. eigenvalues --    2.06700   2.07754   2.09684   2.10876   2.11931
 Alpha virt. eigenvalues --    2.12679   2.14405   2.16252   2.18823   2.20587
 Alpha virt. eigenvalues --    2.22946   2.24623   2.29871   2.32302   2.33616
 Alpha virt. eigenvalues --    2.35313   2.40577   2.44592   2.44868   2.49529
 Alpha virt. eigenvalues --    2.52984   2.54243   2.58699   2.62618   2.63814
 Alpha virt. eigenvalues --    2.65433   2.66887   2.69899   2.71333   2.73965
 Alpha virt. eigenvalues --    2.74655   2.77821   2.81278   2.83892   2.86144
 Alpha virt. eigenvalues --    2.87154   2.87845   2.89241   2.92427   2.97100
 Alpha virt. eigenvalues --    3.03334   3.06286   3.08719   3.11966   3.19263
 Alpha virt. eigenvalues --    3.23356   3.24336   3.25898   3.39471   3.41159
 Alpha virt. eigenvalues --    3.41278   3.41445   3.42180   3.46565   3.48583
 Alpha virt. eigenvalues --    3.52959   3.57390   4.06726   4.19712   4.28430
 Alpha virt. eigenvalues --    4.31548   4.40626   4.48306   4.51643   4.53561
 Alpha virt. eigenvalues --    4.60187   4.75286   5.02261
          Condensed to atoms (all electrons):
               1          2          3          4          5          6
     1  C    8.354196  -3.644190  -1.017117   1.377406   0.132697  -0.007383
     2  C   -3.644190  10.342447   1.790505  -2.064065  -0.114384   0.005649
     3  C   -1.017117   1.790505  12.866020  -6.357010  -0.952015  -0.022550
     4  C    1.377406  -2.064065  -6.357010  12.195373   0.461297   0.084236
     5  C    0.132697  -0.114384  -0.952015   0.461297   5.888410   0.409005
     6  N   -0.007383   0.005649  -0.022550   0.084236   0.409005   7.058832
     7  C    0.112885  -0.117282  -0.147844  -0.236243   0.075230  -0.027911
     8  N    0.002103   0.029123  -0.322309   0.177732   0.075057  -0.007922
     9  N   -0.015053  -0.006667   0.530170  -0.536357  -0.085622   0.006530
    10  C    0.000211   0.000462  -0.000363  -0.014185   0.006185  -0.000173
    11  C    0.004635   0.000091  -0.107781   0.074859   0.020235  -0.001470
    12  H    0.601691  -0.290478   0.007018   0.025337   0.000336   0.000004
    13  H    0.505807  -0.167928  -0.002175   0.011788  -0.000005   0.000001
    14  H    0.469942  -0.102625  -0.009258  -0.008788   0.001259  -0.000044
    15  H    0.014053  -0.005655  -0.246369   0.582073  -0.038399  -0.003698
    16  H    0.004325   0.005402  -0.041201  -0.003058  -0.001984  -0.000291
    17  H   -0.000038  -0.000273   0.004178  -0.008573  -0.000024   0.000005
    18  H    0.000024   0.000223  -0.008477   0.008351   0.002898  -0.000072
    19  H   -0.000009  -0.000047   0.001994  -0.002464  -0.000492   0.000003
    20  H   -0.000483  -0.000262   0.026118  -0.025951  -0.004869   0.000149
    21  H   -0.000017  -0.000121   0.000674  -0.003327  -0.000140  -0.000002
    22  H    0.000186   0.000841  -0.023083   0.028500   0.006350  -0.000348
               7          8          9         10         11         12
     1  C    0.112885   0.002103  -0.015053   0.000211   0.004635   0.601691
     2  C   -0.117282   0.029123  -0.006667   0.000462   0.000091  -0.290478
     3  C   -0.147844  -0.322309   0.530170  -0.000363  -0.107781   0.007018
     4  C   -0.236243   0.177732  -0.536357  -0.014185   0.074859   0.025337
     5  C    0.075230   0.075057  -0.085622   0.006185   0.020235   0.000336
     6  N   -0.027911  -0.007922   0.006530  -0.000173  -0.001470   0.000004
     7  C    5.856508   0.321381   0.243268  -0.005257  -0.094763   0.003516
     8  N    0.321381   7.285898  -0.489963  -0.066767   0.143588  -0.000069
     9  N    0.243268  -0.489963   7.521132   0.225219  -0.040012  -0.000007
    10  C   -0.005257  -0.066767   0.225219   5.097871  -0.114946   0.000000
    11  C   -0.094763   0.143588  -0.040012  -0.114946   5.220972   0.000022
    12  H    0.003516  -0.000069  -0.000007   0.000000   0.000022   0.527711
    13  H   -0.000080  -0.000047   0.000035  -0.000001  -0.000076  -0.027617
    14  H   -0.002175   0.000046  -0.000002   0.000001  -0.000006  -0.026873
    15  H    0.012010  -0.012650  -0.021104  -0.000433   0.001785   0.000023
    16  H    0.352629  -0.001961  -0.046355   0.001424   0.017947   0.000000
    17  H    0.001261  -0.052298   0.005703   0.412996   0.004364  -0.000000
    18  H   -0.008309   0.055551  -0.135313   0.405189   0.017318   0.000000
    19  H    0.001997   0.002032  -0.043238   0.403352  -0.012550  -0.000000
    20  H    0.016053  -0.035129  -0.011848   0.006932   0.385313  -0.000000
    21  H   -0.003745   0.009084  -0.052944  -0.006621   0.414763   0.000000
    22  H   -0.013387   0.044426  -0.120263  -0.002840   0.427309   0.000000
              13         14         15         16         17         18
     1  C    0.505807   0.469942   0.014053   0.004325  -0.000038   0.000024
     2  C   -0.167928  -0.102625  -0.005655   0.005402  -0.000273   0.000223
     3  C   -0.002175  -0.009258  -0.246369  -0.041201   0.004178  -0.008477
     4  C    0.011788  -0.008788   0.582073  -0.003058  -0.008573   0.008351
     5  C   -0.000005   0.001259  -0.038399  -0.001984  -0.000024   0.002898
     6  N    0.000001  -0.000044  -0.003698  -0.000291   0.000005  -0.000072
     7  C   -0.000080  -0.002175   0.012010   0.352629   0.001261  -0.008309
     8  N   -0.000047   0.000046  -0.012650  -0.001961  -0.052298   0.055551
     9  N    0.000035  -0.000002  -0.021104  -0.046355   0.005703  -0.135313
    10  C   -0.000001   0.000001  -0.000433   0.001424   0.412996   0.405189
    11  C   -0.000076  -0.000006   0.001785   0.017947   0.004364   0.017318
    12  H   -0.027617  -0.026873   0.000023   0.000000  -0.000000   0.000000
    13  H    0.529892  -0.027232  -0.000003  -0.000001   0.000000  -0.000000
    14  H   -0.027232   0.523844  -0.000004  -0.000000  -0.000000   0.000000
    15  H   -0.000003  -0.000004   0.499474   0.003428  -0.000003   0.000000
    16  H   -0.000001  -0.000000   0.003428   0.581367   0.000003  -0.000021
    17  H    0.000000  -0.000000  -0.000003   0.000003   0.513884  -0.030970
    18  H   -0.000000   0.000000   0.000000  -0.000021  -0.030970   0.590960
    19  H    0.000000  -0.000000   0.000000   0.000016  -0.018173  -0.043116
    20  H    0.000000  -0.000000  -0.000002  -0.000479  -0.000138  -0.000374
    21  H    0.000000  -0.000000   0.000000  -0.000069   0.000335  -0.001122
    22  H   -0.000000   0.000000  -0.000004  -0.001112  -0.000243   0.004334
              19         20         21         22
     1  C   -0.000009  -0.000483  -0.000017   0.000186
     2  C   -0.000047  -0.000262  -0.000121   0.000841
     3  C    0.001994   0.026118   0.000674  -0.023083
     4  C   -0.002464  -0.025951  -0.003327   0.028500
     5  C   -0.000492  -0.004869  -0.000140   0.006350
     6  N    0.000003   0.000149  -0.000002  -0.000348
     7  C    0.001997   0.016053  -0.003745  -0.013387
     8  N    0.002032  -0.035129   0.009084   0.044426
     9  N   -0.043238  -0.011848  -0.052944  -0.120263
    10  C    0.403352   0.006932  -0.006621  -0.002840
    11  C   -0.012550   0.385313   0.414763   0.427309
    12  H   -0.000000  -0.000000   0.000000   0.000000
    13  H    0.000000   0.000000   0.000000  -0.000000
    14  H   -0.000000  -0.000000  -0.000000   0.000000
    15  H    0.000000  -0.000002   0.000000  -0.000004
    16  H    0.000016  -0.000479  -0.000069  -0.001112
    17  H   -0.018173  -0.000138   0.000335  -0.000243
    18  H   -0.043116  -0.000374  -0.001122   0.004334
    19  H    0.563728   0.000444   0.002105  -0.000769
    20  H    0.000444   0.557111  -0.021203  -0.042181
    21  H    0.002105  -0.021203   0.540455  -0.029844
    22  H   -0.000769  -0.042181  -0.029844   0.565114
 Mulliken charges:
               1
     1  C   -0.895871
     2  C    0.339233
     3  C    0.030874
     4  C    0.233067
     5  C    0.118976
     6  N   -0.492551
     7  C   -0.339743
     8  N   -0.156906
     9  N    0.072690
    10  C   -0.348256
    11  C   -0.361596
    12  H    0.179386
    13  H    0.177643
    14  H    0.181917
    15  H    0.215477
    16  H    0.129991
    17  H    0.168005
    18  H    0.142927
    19  H    0.145188
    20  H    0.150799
    21  H    0.151738
    22  H    0.157013
 Sum of Mulliken charges =  -0.00000
 Mulliken charges with hydrogens summed into heavy atoms:
               1
     1  C   -0.356925
     2  C    0.339233
     3  C    0.030874
     4  C    0.448544
     5  C    0.118976
     6  N   -0.492551
     7  C   -0.209752
     8  N   -0.156906
     9  N    0.072690
    10  C    0.107864
    11  C    0.097954
 Electronic spatial extent (au):  <R**2>=           2698.2094
 Charge=             -0.0000 electrons
 Dipole moment (field-independent basis, Debye):
    X=              1.9978    Y=             -4.4374    Z=              0.5135  Tot=              4.8934
 Quadrupole moment (field-independent basis, Debye-Ang):
   XX=            -50.8431   YY=            -80.0233   ZZ=            -64.6275
   XY=              8.9714   XZ=              2.7082   YZ=             -4.4070
 Traceless Quadrupole moment (field-independent basis, Debye-Ang):
   XX=             14.3215   YY=            -14.8586   ZZ=              0.5371
   XY=              8.9714   XZ=              2.7082   YZ=             -4.4070
 Octapole moment (field-independent basis, Debye-Ang**2):
  XXX=             14.9045  YYY=            -64.9074  ZZZ=             -0.6606  XYY=             15.0557
  XXY=            -41.6615  XXZ=              2.5719  XZZ=              9.0113  YZZ=             -4.0378
  YYZ=             -7.0555  XYZ=              3.3159
 Hexadecapole moment (field-independent basis, Debye-Ang**3):
 XXXX=          -2291.4875 YYYY=          -1021.1473 ZZZZ=           -268.6657 XXXY=             78.2277
 XXXZ=            -14.2605 YYYX=            107.7124 YYYZ=            -36.3933 ZZZX=              1.4362
 ZZZY=             -5.6983 XXYY=           -565.8468 XXZZ=           -467.3732 YYZZ=           -186.9995
 XXYZ=             -9.4389 YYXZ=             14.1115 ZZXY=             -2.0387
 N-N= 5.312344115848D+02 E-N=-2.164786412538D+03  KE= 4.709917251124D+02
 Unable to Open any file for archive entry.
 1\1\GINC-N1\SP\RB3LYP TD-FC\6-31+G(d,p)\C8H11N3\HPCMGAC13\29-Jul-2025\
 0\\# td=(50-50,nstates=3) b3lyp/6-31+g(d,p) geom=connectivity\\Title C
 ard Required\\0,1\C,0,-4.073858,-1.870329,0.099618\C,0,-2.942581,-0.96
 9082,-0.104551\C,0,-2.011802,-0.21525,-0.278911\C,0,-0.859436,0.679563
 ,-0.480094\C,0,-1.167404,2.047032,0.000668\N,0,-1.383851,3.121154,0.38
 5069\C,0,0.40187,0.155956,0.19682\N,0,1.40836,-0.118061,-0.551126\N,0,
 2.541155,-0.663207,-0.051883\C,0,3.700395,-0.437199,-0.908277\C,0,2.77
 5538,-0.66284,1.384657\H,0,-4.546584,-2.129059,-0.853969\H,0,-3.75356,
 -2.801074,0.580347\H,0,-4.833274,-1.4051,0.737317\H,0,-0.632571,0.7553
 99,-1.551702\H,0,0.357638,0.015388,1.276766\H,0,3.382445,-0.533905,-1.
 947063\H,0,4.138244,0.563336,-0.76419\H,0,4.462564,-1.191407,-0.693703
 \H,0,2.019419,-1.26648,1.896936\H,0,3.75227,-1.109401,1.578028\H,0,2.7
 57429,0.355992,1.807227\\Version=ES64L-G16RevC.02\State=1-A\HF=-475.62
 89966\RMSD=3.003e-09\PG=C01 [X(C8H11N3)]\\@
 The archive entry for this job was punched.


       THE DEATH-KNELL OF THE ATOM

 SO THE ATOMS IN TURN, WE NOW CLEARLY DISCERN,
 FLY TO BITS WITH THE UTMOST FACILITY;
 THEY WEND ON THEIR WAY, AND, IN SPLITTING, DISPLAY
 AN ABSOLUTE LACK OF STABILITY.

          SIR WM. RAMSAY, 1905
 Job cpu time:       0 days  0 hours 31 minutes 33.3 seconds.
 Elapsed time:       0 days  0 hours  2 minutes  2.3 seconds.
 File lengths (MBytes):  RWF=    454 Int=      0 D2E=      0 Chk=     19 Scr=      2
 Normal termination of Gaussian 16 at Tue Jul 29 15:17:36 2025.
