 Entering Gaussian System, Link 0=g16
 Input=M2852E.gjf
 Output=M2852E.log
 Initial command:
 /hpc/softwares/Gaussian/g16/l1.exe "/hpc/home/hpcmgac13/pbs.14041.admin1.x8z/Gau-3792281.inp" -scrdir="/hpc/home/hpcmgac13/pbs.14041.admin1.x8z/"
 Default linda workers: n2
 Default is to use   8 SMP processors on each worker.
 Entering Link 1 = /hpc/softwares/Gaussian/g16/l1.exe PID=   3792282.
  
 Copyright (c) 1988-2021, Gaussian, Inc.  All Rights Reserved.
  
 This is part of the Gaussian(R) 16 program.  It is based on
 the Gaussian(R) 09 system (copyright 2009, Gaussian, Inc.),
 the Gaussian(R) 03 system (copyright 2003, Gaussian, Inc.),
 the Gaussian(R) 98 system (copyright 1998, Gaussian, Inc.),
 the Gaussian(R) 94 system (copyright 1995, Gaussian, Inc.),
 the Gaussian 92(TM) system (copyright 1992, Gaussian, Inc.),
 the Gaussian 90(TM) system (copyright 1990, Gaussian, Inc.),
 the Gaussian 88(TM) system (copyright 1988, Gaussian, Inc.),
 the Gaussian 86(TM) system (copyright 1986, Carnegie Mellon
 University), and the Gaussian 82(TM) system (copyright 1983,
 Carnegie Mellon University). Gaussian is a federally registered
 trademark of Gaussian, Inc.
  
 This software contains proprietary and confidential information,
 including trade secrets, belonging to Gaussian, Inc.
  
 This software is provided under written license and may be
 used, copied, transmitted, or stored only in accord with that
 written license.
  
 The following legend is applicable only to US Government
 contracts under FAR:
  
                    RESTRICTED RIGHTS LEGEND
  
 Use, reproduction and disclosure by the US Government is
 subject to restrictions as set forth in subparagraphs (a)
 and (c) of the Commercial Computer Software - Restricted
 Rights clause in FAR 52.227-19.
  
 Gaussian, Inc.
 340 Quinnipiac St., Bldg. 40, Wallingford CT 06492
  
  
 ---------------------------------------------------------------
 Warning -- This program may not be used in any manner that
 competes with the business of Gaussian, Inc. or will provide
 assistance to any competitor of Gaussian, Inc.  The licensee
 of this program is prohibited from giving any competitor of
 Gaussian, Inc. access to this program.  By using this program,
 the user acknowledges that Gaussian, Inc. is engaged in the
 business of creating and licensing software in the field of
 computational chemistry and represents and warrants to the
 licensee that it is not a competitor of Gaussian, Inc. and that
 it will not use this program in any manner prohibited above.
 ---------------------------------------------------------------
  

 Cite this work as:
 Gaussian 16, Revision C.02,
 M. J. Frisch, G. W. Trucks, H. B. Schlegel, G. E. Scuseria, 
 M. A. Robb, J. R. Cheeseman, G. Scalmani, V. Barone, 
 G. A. Petersson, H. Nakatsuji, X. Li, M. Caricato, A. V. Marenich, 
 J. Bloino, B. G. Janesko, R. Gomperts, B. Mennucci, H. P. Hratchian, 
 J. V. Ortiz, A. F. Izmaylov, J. L. Sonnenberg, D. Williams-Young, 
 F. Ding, F. Lipparini, F. Egidi, J. Goings, B. Peng, A. Petrone, 
 T. Henderson, D. Ranasinghe, V. G. Zakrzewski, J. Gao, N. Rega, 
 G. Zheng, W. Liang, M. Hada, M. Ehara, K. Toyota, R. Fukuda, 
 J. Hasegawa, M. Ishida, T. Nakajima, Y. Honda, O. Kitao, H. Nakai, 
 T. Vreven, K. Throssell, J. A. Montgomery, Jr., J. E. Peralta, 
 F. Ogliaro, M. J. Bearpark, J. J. Heyd, E. N. Brothers, K. N. Kudin, 
 V. N. Staroverov, T. A. Keith, R. Kobayashi, J. Normand, 
 K. Raghavachari, A. P. Rendell, J. C. Burant, S. S. Iyengar, 
 J. Tomasi, M. Cossi, J. M. Millam, M. Klene, C. Adamo, R. Cammi, 
 J. W. Ochterski, R. L. Martin, K. Morokuma, O. Farkas, 
 J. B. Foresman, and D. J. Fox, Gaussian, Inc., Wallingford CT, 2019.
 
 ******************************************
 Gaussian 16:  ES64L-G16RevC.02  7-Dec-2021
                17-Sep-2025 
 ******************************************
 SetLPE:    new flags="-opt 'Tsnet.Node.lindarsharg: ssh'  -nodelist 'n2.head.cm.mguif.local' -env GAUSS_MDEF=1342177280 -env GAUSS_EXEDIR="/hpc/softwares/Gaussian/g16/bsd:/hpc/softwares/Gaussian/g16""
 Will use up to    1 processors via Linda.
 ----------------------------------------------------------
 # td=(50-50,nstates=3) b3lyp/6-31+g(d,p) geom=connectivity
 ----------------------------------------------------------
 1/38=1,57=2,172=1/1;
 2/12=2,17=6,18=5,40=1/2;
 3/5=1,6=6,7=111,11=9,25=1,30=1,74=-5/1,2,3,8;
 4//1;
 5/5=2,38=5/2;
 8/6=1,10=2,108=3/1;
 9/41=3,42=1,48=2,70=2/14;
 6/7=2,8=2,9=2,10=2/1;
 99/5=1,9=1/99;
 -------------------
 Title Card Required
 -------------------
 Symbolic Z-matrix:
 Charge =  0 Multiplicity = 1
 C                    -3.15482  -0.02167  -1.29018 
 C                    -2.72092  -0.7212   -0.00002 
 C                    -3.15517  -0.02142   1.2899 
 O                    -1.31408  -1.07814   0.00022 
 C                    -0.27765  -0.19575   0.00013 
 C                    -0.36302   1.20537   0.00006 
 C                     0.80477   1.97714  -0.00003 
 C                     2.06407   1.38748  -0.00005 
 C                     2.14742  -0.01765   0.00001 
 C                     3.43366  -0.6579   -0.00001 
 N                     4.47869  -1.17022  -0.00003 
 C                     0.98914  -0.8019    0.0001 
 H                    -4.24892  -0.01002  -1.33882 
 H                    -2.80936   1.01249  -1.36 
 H                    -2.78246  -0.56883  -2.16113 
 H                    -3.17622  -1.71653   0.00003 
 H                    -2.78315  -0.5685    2.16105 
 H                    -4.24928  -0.00965   1.33818 
 H                    -2.80962   1.0127    1.35969 
 H                    -1.31993   1.7071    0.00006 
 H                     0.71859   3.05955  -0.00009 
 H                     2.96672   1.98754  -0.00011 
 H                     1.05043  -1.88421   0.00014 
 
                          Input orientation:                          
 ---------------------------------------------------------------------
 Center     Atomic      Atomic             Coordinates (Angstroms)
 Number     Number       Type             X           Y           Z
 ---------------------------------------------------------------------
      1          6           0       -3.154815   -0.021672   -1.290177
      2          6           0       -2.720915   -0.721201   -0.000015
      3          6           0       -3.155167   -0.021423    1.289898
      4          8           0       -1.314083   -1.078135    0.000221
      5          6           0       -0.277646   -0.195750    0.000129
      6          6           0       -0.363016    1.205369    0.000056
      7          6           0        0.804769    1.977142   -0.000033
      8          6           0        2.064071    1.387481   -0.000046
      9          6           0        2.147420   -0.017653    0.000011
     10          6           0        3.433663   -0.657904   -0.000012
     11          7           0        4.478694   -1.170215   -0.000030
     12          6           0        0.989135   -0.801899    0.000096
     13          1           0       -4.248919   -0.010023   -1.338822
     14          1           0       -2.809357    1.012487   -1.359996
     15          1           0       -2.782456   -0.568828   -2.161127
     16          1           0       -3.176219   -1.716526    0.000028
     17          1           0       -2.783150   -0.568500    2.161047
     18          1           0       -4.249284   -0.009645    1.338176
     19          1           0       -2.809617    1.012705    1.359692
     20          1           0       -1.319930    1.707095    0.000063
     21          1           0        0.718593    3.059546   -0.000086
     22          1           0        2.966716    1.987542   -0.000108
     23          1           0        1.050430   -1.884206    0.000140
 ---------------------------------------------------------------------
                    Distance matrix (angstroms):
                    1          2          3          4          5
     1  C    0.000000
     2  C    1.530401   0.000000
     3  C    2.580075   1.530405   0.000000
     4  O    2.483855   1.451406   2.483847   0.000000
     5  C    3.158052   2.499132   3.158167   1.361178   0.000000
     6  C    3.311264   3.044891   3.311317   2.473645   1.403717
     7  C    4.619311   4.439764   4.619446   3.718098   2.427567
     8  C    5.557600   5.229018   5.557824   4.182247   2.826705
     9  C    5.456949   4.918909   5.457220   3.620307   2.431597
    10  C    6.743690   6.154903   6.744009   4.766307   3.739973
    11  N    7.826499   7.213597   7.826843   5.793509   4.855137
    12  C    4.409748   3.710928   4.409985   2.319724   1.404333
    13  H    1.095247   2.152435   2.847208   3.398111   4.195032
    14  H    1.092566   2.205231   2.865396   2.908047   3.117585
    15  H    1.093885   2.167351   3.513992   2.662130   3.329307
    16  H    2.130168   1.094520   2.130160   1.968526   3.273299
    17  H    3.513987   2.167344   1.093888   2.662152   3.329573
    18  H    2.847147   2.152436   1.095245   3.398117   4.195106
    19  H    2.865467   2.205244   1.092564   2.907988   3.117636
    20  H    2.831988   2.803459   2.831880   2.785236   2.169603
    21  H    5.114834   5.111190   5.114924   4.610008   3.404327
    22  H    6.570720   6.299717   6.570959   5.265322   3.910582
    23  H    4.776823   3.946596   4.777079   2.498134   2.148178
                    6          7          8          9         10
     6  C    0.000000
     7  C    1.399770   0.000000
     8  C    2.433910   1.390518   0.000000
     9  C    2.792503   2.404562   1.407604   0.000000
    10  C    4.229250   3.722170   2.461581   1.436782   0.000000
    11  N    5.393103   4.837725   3.517416   2.600623   1.163852
    12  C    2.420214   2.785150   2.439031   1.398809   2.448765
    13  H    4.286025   5.592937   6.602968   6.534959   7.825230
    14  H    2.805625   3.980197   5.073498   5.242179   6.604170
    15  H    3.697591   4.901069   5.655638   5.410914   6.581678
    16  H    4.056055   5.430603   6.090607   5.588139   6.694118
    17  H    3.697775   4.901400   5.656124   5.411472   6.582320
    18  H    4.286012   5.592994   6.603124   6.535180   7.825513
    19  H    2.805635   3.980299   5.073675   5.242384   6.604413
    20  H    1.080469   2.141792   3.399061   3.872631   5.309413
    21  H    2.146590   1.085829   2.146186   3.392742   4.603373
    22  H    3.420367   2.161972   1.083901   2.166115   2.686340
    23  H    3.397544   3.869155   3.425114   2.165042   2.680227
                   11         12         13         14         15
    11  N    0.000000
    12  C    3.508943   0.000000
    13  H    8.905596   5.464154   0.000000
    14  H    7.728479   4.423843   1.765875   0.000000
    15  H    7.599757   4.353172   1.771712   1.772877   0.000000
    16  H    7.674383   4.264589   2.419785   3.071118   2.478478
    17  H    7.600440   4.353656   3.835291   3.859786   4.322174
    18  H    8.905915   5.464353   2.676998   3.224636   3.835282
    19  H    7.728743   4.424003   3.224832   2.719688   3.859812
    20  H    6.473249   3.409814   3.649669   2.133221   3.462593
    21  H    5.659438   3.870911   5.990880   4.299562   5.485667
    22  H    3.501072   3.419329   7.605775   6.013572   6.652669
    23  H    3.501825   1.084041   5.778277   5.013856   4.592636
                   16         17         18         19         20
    16  H    0.000000
    17  H    2.478401   0.000000
    18  H    2.419825   1.771718   0.000000
    19  H    3.071121   1.772873   1.765872   0.000000
    20  H    3.894482   3.462542   3.649501   2.133058   0.000000
    21  H    6.162826   5.485929   5.990883   4.299630   2.446365
    22  H    7.173268   6.653187   7.605946   6.013766   4.295810
    23  H    4.229974   4.593140   5.778520   5.014024   4.303028
                   21         22         23
    21  H    0.000000
    22  H    2.490632   0.000000
    23  H    4.954876   4.320021   0.000000
 Stoichiometry    C10H11NO
 Framework group  C1[X(C10H11NO)]
 Deg. of freedom    63
 Full point group                 C1      NOp   1
 Largest Abelian subgroup         C1      NOp   1
 Largest concise Abelian subgroup C1      NOp   1
                         Standard orientation:                         
 ---------------------------------------------------------------------
 Center     Atomic      Atomic             Coordinates (Angstroms)
 Number     Number       Type             X           Y           Z
 ---------------------------------------------------------------------
      1          6           0        3.154815   -0.021672    1.290177
      2          6           0        2.720915   -0.721201    0.000015
      3          6           0        3.155167   -0.021423   -1.289898
      4          8           0        1.314083   -1.078135   -0.000221
      5          6           0        0.277646   -0.195750   -0.000129
      6          6           0        0.363016    1.205369   -0.000056
      7          6           0       -0.804769    1.977142    0.000033
      8          6           0       -2.064071    1.387481    0.000046
      9          6           0       -2.147420   -0.017653   -0.000011
     10          6           0       -3.433663   -0.657904    0.000012
     11          7           0       -4.478694   -1.170215    0.000030
     12          6           0       -0.989135   -0.801899   -0.000096
     13          1           0        4.248919   -0.010023    1.338822
     14          1           0        2.809357    1.012487    1.359996
     15          1           0        2.782456   -0.568828    2.161127
     16          1           0        3.176219   -1.716526   -0.000028
     17          1           0        2.783150   -0.568500   -2.161047
     18          1           0        4.249284   -0.009645   -1.338176
     19          1           0        2.809617    1.012705   -1.359692
     20          1           0        1.319930    1.707095   -0.000063
     21          1           0       -0.718593    3.059546    0.000086
     22          1           0       -2.966716    1.987542    0.000108
     23          1           0       -1.050430   -1.884206   -0.000140
 ---------------------------------------------------------------------
 Rotational constants (GHZ):           2.2263037           0.4808715           0.4339572
 Standard basis: 6-31+G(d,p) (6D, 7F)
 There are   283 symmetry adapted cartesian basis functions of A   symmetry.
 There are   283 symmetry adapted basis functions of A   symmetry.
   283 basis functions,   461 primitive gaussians,   283 cartesian basis functions
    43 alpha electrons       43 beta electrons
       nuclear repulsion energy       638.1977492175 Hartrees.
 NAtoms=   23 NActive=   23 NUniq=   23 SFac= 1.00D+00 NAtFMM=   60 NAOKFM=F Big=F
 Integral buffers will be    131072 words long.
 Regular integral format.
 Two-electron integral symmetry is turned on.
 One-electron integrals computed using PRISM.
 NBasis=   283 RedAO= T EigKep=  1.63D-06  NBF=   283
 NBsUse=   283 1.00D-06 EigRej= -1.00D+00 NBFU=   283
 ExpMin= 4.38D-02 ExpMax= 5.48D+03 ExpMxC= 8.25D+02 IAcc=3 IRadAn=         5 AccDes= 0.00D+00
 Harris functional with IExCor=  402 and IRadAn=       5 diagonalized for initial guess.
 HarFok:  IExCor=  402 AccDes= 0.00D+00 IRadAn=         5 IDoV= 1 UseB2=F ITyADJ=14
 ICtDFT=  3500011 ScaDFX=  1.000000  1.000000  1.000000  1.000000
 FoFCou: FMM=F IPFlag=           0 FMFlag=      100000 FMFlg1=           0
         NFxFlg=           0 DoJE=T BraDBF=F KetDBF=T FulRan=T
         wScrn=  0.000000 ICntrl=       500 IOpCl=  0 I1Cent=   200000004 NGrid=           0
         NMat0=    1 NMatS0=      1 NMatT0=    0 NMatD0=    1 NMtDS0=    0 NMtDT0=    0
 Petite list used in FoFCou.
 Requested convergence on RMS density matrix=1.00D-08 within 128 cycles.
 Requested convergence on MAX density matrix=1.00D-06.
 Requested convergence on             energy=1.00D-06.
 No special actions if energy rises.
 SCF Done:  E(RB3LYP) =  -517.677741034     A.U. after   15 cycles
            NFock= 15  Conv=0.38D-08     -V/T= 2.0097
 DoSCS=F DFT=T ScalE2(SS,OS)=  1.000000  1.000000
 ExpMin= 4.38D-02 ExpMax= 5.48D+03 ExpMxC= 8.25D+02 IAcc=3 IRadAn=         5 AccDes= 0.00D+00
 HarFok:  IExCor=  205 AccDes= 0.00D+00 IRadAn=         5 IDoV=-2 UseB2=F ITyADJ=14
 ICtDFT= 12500011 ScaDFX=  1.000000  1.000000  1.000000  1.000000
 Range of M.O.s used for correlation:    13   283
 NBasis=   283 NAE=    43 NBE=    43 NFC=    12 NFV=     0
 NROrb=    271 NOA=    31 NOB=    31 NVA=   240 NVB=   240

 **** Warning!!: The largest alpha MO coefficient is  0.21595728D+03

 Orbital symmetries:
       Occupied  (A) (A) (A) (A) (A) (A) (A) (A) (A) (A) (A) (A)
                 (A) (A) (A) (A) (A) (A) (A) (A) (A) (A) (A) (A)
                 (A) (A) (A) (A) (A) (A) (A) (A) (A) (A) (A) (A)
                 (A) (A) (A) (A) (A) (A) (A)
       Virtual   (A) (A) (A) (A) (A) (A) (A) (A) (A) (A) (A) (A)
                 (A) (A) (A) (A) (A) (A) (A) (A) (A) (A) (A) (A)
                 (A) (A) (A) (A) (A) (A) (A) (A) (A) (A) (A) (A)
                 (A) (A) (A) (A) (A) (A) (A) (A) (A) (A) (A) (A)
                 (A) (A) (A) (A) (A) (A) (A) (A) (A) (A) (A) (A)
                 (A) (A) (A) (A) (A) (A) (A) (A) (A) (A) (A) (A)
                 (A) (A) (A) (A) (A) (A) (A) (A) (A) (A) (A) (A)
                 (A) (A) (A) (A) (A) (A) (A) (A) (A) (A) (A) (A)
                 (A) (A) (A) (A) (A) (A) (A) (A) (A) (A) (A) (A)
                 (A) (A) (A) (A) (A) (A) (A) (A) (A) (A) (A) (A)
                 (A) (A) (A) (A) (A) (A) (A) (A) (A) (A) (A) (A)
                 (A) (A) (A) (A) (A) (A) (A) (A) (A) (A) (A) (A)
                 (A) (A) (A) (A) (A) (A) (A) (A) (A) (A) (A) (A)
                 (A) (A) (A) (A) (A) (A) (A) (A) (A) (A) (A) (A)
                 (A) (A) (A) (A) (A) (A) (A) (A) (A) (A) (A) (A)
                 (A) (A) (A) (A) (A) (A) (A) (A) (A) (A) (A) (A)
                 (A) (A) (A) (A) (A) (A) (A) (A) (A) (A) (A) (A)
                 (A) (A) (A) (A) (A) (A) (A) (A) (A) (A) (A) (A)
                 (A) (A) (A) (A) (A) (A) (A) (A) (A) (A) (A) (A)
                 (A) (A) (A) (A) (A) (A) (A) (A) (A) (A) (A) (A)
    24 initial guesses have been made.
 Convergence on wavefunction:    0.001000000000000
 Iteration     1 Dimension    24 NMult     0 NNew     24
 CISAX will form    24 AO SS matrices at one time.
 New state      1 was old state      2
 New state      2 was old state      4
 New state      3 was old state      6
 New state      4 was old state      1
 New state      5 was old state     12
 New state      6 was old state      8
 New state      8 was old state     10
 New state     10 was old state      5
 New state     11 was old state     24
 New state     12 was old state     14
 Vector   5 SDiff=4.28D-05 TDiff=7.32D+00 assumed to be singlet.
 Vector   6 SDiff=1.10D+01 TDiff=2.37D+00 assumed to be triplet.
 Vector  11 SDiff=4.28D-05 TDiff=6.83D+00 assumed to be singlet.
 Vector  12 SDiff=1.10D+01 TDiff=2.22D+00 assumed to be triplet.
 Iteration     2 Dimension    36 NMult    24 NNew     12
 New state      5 was old state      7
 New state      6 was old state     10
 Iteration     3 Dimension    48 NMult    36 NNew     12
 New state      5 was old state      6
 New state      6 was old state      5
 Iteration     4 Dimension    60 NMult    48 NNew     12
 Iteration     5 Dimension    72 NMult    60 NNew     12
 Iteration     6 Dimension    80 NMult    72 NNew      8
 Iteration     7 Dimension    82 NMult    80 NNew      2
 Iteration     8 Dimension    84 NMult    82 NNew      2
 ***********************************************************************
 Excited states from <AA,BB:AA,BB> singles matrix:
 ***********************************************************************
 
 Ground to excited state transition densities written to RWF  633
 Ground to excited state transition electric dipole moments (Au):
       state          X           Y           Z        Dip. S.      Osc.
         1         0.0000     -0.0000      0.0000      0.0000      0.0000
         2         0.0000     -0.0000     -0.0000      0.0000      0.0000
         3        -0.0000      0.0000     -0.0000      0.0000      0.0000
         4         0.1176      0.6464      0.0000      0.4317      0.0476
         5         0.1831      0.4216     -0.0000      0.2113      0.0277
         6        -0.0001      0.0000      0.0583      0.0034      0.0005
 Ground to excited state transition velocity dipole moments (Au):
       state          X           Y           Z        Dip. S.      Osc.
         1        -0.0000      0.0000     -0.0000      0.0000      0.0000
         2        -0.0000     -0.0000      0.0000      0.0000      0.0000
         3         0.0000     -0.0000      0.0000      0.0000      0.0000
         4        -0.0191     -0.1050     -0.0000      0.0114      0.0460
         5        -0.0287     -0.0774      0.0000      0.0068      0.0231
         6         0.0000     -0.0000     -0.0125      0.0002      0.0005
 Ground to excited state transition magnetic dipole moments (Au):
       state          X           Y           Z
         1        -0.0000     -0.0000     -0.0000
         2         0.0000      0.0000      0.0000
         3        -0.0000     -0.0000      0.0000
         4        -0.0000     -0.0000      0.6982
         5        -0.0000     -0.0000      0.2785
         6        -0.0650     -0.0891      0.0000
 Ground to excited state transition velocity quadrupole moments (Au):
       state          XX          YY          ZZ          XY          XZ          YZ
         1         0.0000     -0.0000     -0.0000     -0.0000     -0.0000     -0.0000
         2         0.0000      0.0000     -0.0000      0.0000      0.0000     -0.0000
         3        -0.0000     -0.0000     -0.0000     -0.0000     -0.0000     -0.0000
         4         0.2420     -0.1705     -0.0015      0.2644      0.0000      0.0000
         5         1.0799     -0.0753     -0.0248      0.3728     -0.0000      0.0000
         6         0.0001      0.0000     -0.0000     -0.0000     -0.0302     -0.0942
 <0|del|b> * <b|rxdel|0> + <0|del|b> * <b|delr+rdel|0>
 Rotatory Strengths (R) in cgs (10**-40 erg-esu-cm/Gauss)
       state          XX          YY          ZZ    R(velocity)    E-M Angle
         1         0.0000     -0.0000     -0.0000      0.0000       90.00
         2         0.0000     -0.0000     -0.0000      0.0000       90.00
         3        -0.0000      0.0000      0.0000     -0.0000       90.00
         4         0.0089     -0.0027      0.0059      0.0040       90.00
         5         0.0006      0.0013      0.0046      0.0021       90.00
         6        -0.0002     -0.0034      0.0011     -0.0009       90.00
 1/2[<0|r|b>*<b|rxdel|0> + (<0|rxdel|b>*<b|r|0>)*]
 Rotatory Strengths (R) in cgs (10**-40 erg-esu-cm/Gauss)
       state          XX          YY          ZZ     R(length)
         1         0.0000     -0.0000      0.0000      0.0000
         2        -0.0000      0.0000      0.0000     -0.0000
         3        -0.0000      0.0000      0.0000     -0.0000
         4         0.0007      0.0208     -0.0109      0.0035
         5         0.0050      0.0022      0.0024      0.0032
         6        -0.0024      0.0010     -0.0010     -0.0008
  1/2[<0|del|b>*<b|r|0> + (<0|r|b>*<b|del|0>)*] (Au)
       state          X           Y           Z        Dip. S.   Osc.(frdel)
         1        -0.0000     -0.0000     -0.0000      0.0000      0.0000
         2        -0.0000      0.0000     -0.0000      0.0000      0.0000
         3        -0.0000     -0.0000     -0.0000      0.0000      0.0000
         4        -0.0022     -0.0679     -0.0000      0.0701      0.0467
         5        -0.0053     -0.0326     -0.0000      0.0379      0.0253
         6        -0.0000     -0.0000     -0.0007      0.0007      0.0005

 Excitation energies and oscillator strengths:
 
 Excited State   1:      Triplet-A      3.3656 eV  368.39 nm  f=0.0000  <S**2>=2.000
      42 -> 44         0.40969
      43 -> 44         0.45616
      43 -> 45         0.32449
 This state for optimization and/or second-order correction.
 Total Energy, E(TD-HF/TD-DFT) =  -517.554056987    
 Copying the excited state density for this state as the 1-particle RhoCI density.
 
 Excited State   2:      Triplet-A      3.6316 eV  341.41 nm  f=0.0000  <S**2>=2.000
      42 -> 44        -0.36074
      42 -> 45         0.11797
      43 -> 44         0.53157
      43 -> 45        -0.25777
 
 Excited State   3:      Triplet-A      4.1955 eV  295.51 nm  f=0.0000  <S**2>=2.000
      42 -> 44        -0.43146
      43 -> 45         0.54970
 
 Excited State   4:      Singlet-A      4.4963 eV  275.75 nm  f=0.0476  <S**2>=0.000
      42 -> 45        -0.21574
      43 -> 44         0.66058
 
 Excited State   5:      Singlet-A      5.3580 eV  231.40 nm  f=0.0277  <S**2>=0.000
      42 -> 44         0.47841
      43 -> 44         0.13372
      43 -> 45         0.49176
 
 Excited State   6:      Singlet-A      5.6514 eV  219.39 nm  f=0.0005  <S**2>=0.000
      43 -> 46         0.68748
      43 -> 47         0.14170
 SavETr:  write IOETrn=   770 NScale= 10 NData=  16 NLR=1 NState=    6 LETran=     118.

 **********************************************************************

            Population analysis using the SCF Density.

 **********************************************************************

 Orbital symmetries:
       Occupied  (A) (A) (A) (A) (A) (A) (A) (A) (A) (A) (A) (A)
                 (A) (A) (A) (A) (A) (A) (A) (A) (A) (A) (A) (A)
                 (A) (A) (A) (A) (A) (A) (A) (A) (A) (A) (A) (A)
                 (A) (A) (A) (A) (A) (A) (A)
       Virtual   (A) (A) (A) (A) (A) (A) (A) (A) (A) (A) (A) (A)
                 (A) (A) (A) (A) (A) (A) (A) (A) (A) (A) (A) (A)
                 (A) (A) (A) (A) (A) (A) (A) (A) (A) (A) (A) (A)
                 (A) (A) (A) (A) (A) (A) (A) (A) (A) (A) (A) (A)
                 (A) (A) (A) (A) (A) (A) (A) (A) (A) (A) (A) (A)
                 (A) (A) (A) (A) (A) (A) (A) (A) (A) (A) (A) (A)
                 (A) (A) (A) (A) (A) (A) (A) (A) (A) (A) (A) (A)
                 (A) (A) (A) (A) (A) (A) (A) (A) (A) (A) (A) (A)
                 (A) (A) (A) (A) (A) (A) (A) (A) (A) (A) (A) (A)
                 (A) (A) (A) (A) (A) (A) (A) (A) (A) (A) (A) (A)
                 (A) (A) (A) (A) (A) (A) (A) (A) (A) (A) (A) (A)
                 (A) (A) (A) (A) (A) (A) (A) (A) (A) (A) (A) (A)
                 (A) (A) (A) (A) (A) (A) (A) (A) (A) (A) (A) (A)
                 (A) (A) (A) (A) (A) (A) (A) (A) (A) (A) (A) (A)
                 (A) (A) (A) (A) (A) (A) (A) (A) (A) (A) (A) (A)
                 (A) (A) (A) (A) (A) (A) (A) (A) (A) (A) (A) (A)
                 (A) (A) (A) (A) (A) (A) (A) (A) (A) (A) (A) (A)
                 (A) (A) (A) (A) (A) (A) (A) (A) (A) (A) (A) (A)
                 (A) (A) (A) (A) (A) (A) (A) (A) (A) (A) (A) (A)
                 (A) (A) (A) (A) (A) (A) (A) (A) (A) (A) (A) (A)
 The electronic state is 1-A.
 Alpha  occ. eigenvalues --  -19.19712 -14.34404 -10.27841 -10.27153 -10.24717
 Alpha  occ. eigenvalues --  -10.23576 -10.22032 -10.21782 -10.21765 -10.21694
 Alpha  occ. eigenvalues --  -10.20177 -10.20177  -1.07921  -0.91338  -0.88055
 Alpha  occ. eigenvalues --   -0.81628  -0.78893  -0.76110  -0.71668  -0.66872
 Alpha  occ. eigenvalues --   -0.65185  -0.61401  -0.54858  -0.52364  -0.50768
 Alpha  occ. eigenvalues --   -0.49597  -0.46963  -0.46766  -0.45276  -0.43198
 Alpha  occ. eigenvalues --   -0.42377  -0.41113  -0.40837  -0.39443  -0.38653
 Alpha  occ. eigenvalues --   -0.37260  -0.36367  -0.36009  -0.33726  -0.33465
 Alpha  occ. eigenvalues --   -0.33159  -0.27368  -0.24489
 Alpha virt. eigenvalues --   -0.05817  -0.02610  -0.01110   0.00125   0.01345
 Alpha virt. eigenvalues --    0.01667   0.02497   0.02847   0.03465   0.03863
 Alpha virt. eigenvalues --    0.04840   0.05507   0.05590   0.05889   0.06111
 Alpha virt. eigenvalues --    0.06760   0.07634   0.07653   0.08722   0.09339
 Alpha virt. eigenvalues --    0.09546   0.09949   0.10233   0.11334   0.12281
 Alpha virt. eigenvalues --    0.12460   0.13439   0.13807   0.14214   0.14521
 Alpha virt. eigenvalues --    0.14999   0.15989   0.16443   0.16599   0.17126
 Alpha virt. eigenvalues --    0.17883   0.18631   0.19432   0.19788   0.19821
 Alpha virt. eigenvalues --    0.20871   0.21480   0.22115   0.22563   0.22858
 Alpha virt. eigenvalues --    0.23554   0.23818   0.24431   0.24811   0.25348
 Alpha virt. eigenvalues --    0.26833   0.26915   0.27067   0.27133   0.28314
 Alpha virt. eigenvalues --    0.28597   0.28985   0.29529   0.29995   0.30938
 Alpha virt. eigenvalues --    0.31572   0.31973   0.32687   0.33114   0.33839
 Alpha virt. eigenvalues --    0.35613   0.37566   0.37625   0.39233   0.40785
 Alpha virt. eigenvalues --    0.43849   0.45654   0.46777   0.55448   0.58947
 Alpha virt. eigenvalues --    0.62079   0.62967   0.63253   0.65076   0.66496
 Alpha virt. eigenvalues --    0.67133   0.67376   0.68817   0.69953   0.71541
 Alpha virt. eigenvalues --    0.73263   0.73310   0.74283   0.74726   0.74980
 Alpha virt. eigenvalues --    0.76777   0.79165   0.79361   0.80340   0.80417
 Alpha virt. eigenvalues --    0.82480   0.84606   0.86097   0.87623   0.90091
 Alpha virt. eigenvalues --    0.92293   0.94446   0.95178   0.95701   0.96412
 Alpha virt. eigenvalues --    0.98110   0.99779   1.00462   1.01569   1.02561
 Alpha virt. eigenvalues --    1.03742   1.05610   1.06529   1.07578   1.09527
 Alpha virt. eigenvalues --    1.11178   1.13543   1.16855   1.18754   1.19557
 Alpha virt. eigenvalues --    1.19649   1.20275   1.22166   1.23124   1.26250
 Alpha virt. eigenvalues --    1.27371   1.28721   1.31298   1.32338   1.35461
 Alpha virt. eigenvalues --    1.36333   1.38456   1.38621   1.39535   1.40665
 Alpha virt. eigenvalues --    1.43683   1.45412   1.48294   1.52829   1.55383
 Alpha virt. eigenvalues --    1.55756   1.60697   1.65641   1.66325   1.71508
 Alpha virt. eigenvalues --    1.75202   1.77977   1.80425   1.81485   1.81593
 Alpha virt. eigenvalues --    1.83417   1.85745   1.86976   1.88946   1.90938
 Alpha virt. eigenvalues --    1.92291   1.94466   1.94807   1.95727   1.97028
 Alpha virt. eigenvalues --    1.97637   2.01249   2.02646   2.03391   2.04981
 Alpha virt. eigenvalues --    2.06250   2.06569   2.06821   2.09245   2.11107
 Alpha virt. eigenvalues --    2.11778   2.12760   2.14066   2.16680   2.18774
 Alpha virt. eigenvalues --    2.25206   2.28703   2.29168   2.31027   2.31764
 Alpha virt. eigenvalues --    2.33118   2.37153   2.37686   2.39872   2.41139
 Alpha virt. eigenvalues --    2.42144   2.47797   2.49191   2.50744   2.52031
 Alpha virt. eigenvalues --    2.55341   2.56368   2.59952   2.60771   2.63932
 Alpha virt. eigenvalues --    2.65208   2.66889   2.68336   2.68930   2.70086
 Alpha virt. eigenvalues --    2.71930   2.73967   2.75923   2.79072   2.83456
 Alpha virt. eigenvalues --    2.84559   2.86037   2.88482   2.90771   2.97719
 Alpha virt. eigenvalues --    3.03353   3.06321   3.08536   3.18911   3.19835
 Alpha virt. eigenvalues --    3.25676   3.26115   3.26576   3.27937   3.36611
 Alpha virt. eigenvalues --    3.38652   3.43035   3.43231   3.47072   3.48097
 Alpha virt. eigenvalues --    3.49611   3.54589   3.82867   4.24045   4.27172
 Alpha virt. eigenvalues --    4.31701   4.35787   4.37991   4.43028   4.49023
 Alpha virt. eigenvalues --    4.50287   4.59232   4.68314   4.74072   4.94203
          Condensed to atoms (all electrons):
               1          2          3          4          5          6
     1  C    5.343350   0.011445  -0.021396  -0.047990   0.048825  -0.026755
     2  C    0.011445   5.733612   0.011450   0.074123   0.015240  -0.034809
     3  C   -0.021396   0.011450   5.343433  -0.047978   0.048860  -0.026639
     4  O   -0.047990   0.074123  -0.047978   8.519466   0.280605   0.255001
     5  C    0.048825   0.015240   0.048860   0.280605  10.821929   0.215411
     6  C   -0.026755  -0.034809  -0.026639   0.255001   0.215411  10.088269
     7  C   -0.040069   0.048034  -0.040154   0.048605  -0.429786  -1.733287
     8  C    0.010848  -0.013425   0.010865   0.013257   0.628641   0.864410
     9  C   -0.021734   0.044558  -0.021746  -0.055898   1.634997  -0.450636
    10  C   -0.013213   0.002745  -0.013226  -0.030852  -2.535949  -0.539399
    11  N    0.000097   0.000132   0.000097   0.000082   0.158905   0.001493
    12  C   -0.013121  -0.091261  -0.013305  -0.598281  -4.751138  -3.473014
    13  H    0.417292  -0.067033   0.012141   0.011447  -0.036691   0.030966
    14  H    0.420422  -0.086876   0.002244  -0.008817   0.058853  -0.076041
    15  H    0.406689  -0.055526   0.009973  -0.000499   0.007139  -0.010413
    16  H   -0.016013   0.350941  -0.016009  -0.081081   0.077812  -0.077112
    17  H    0.009964  -0.055506   0.406676  -0.000506   0.007160  -0.010399
    18  H    0.012131  -0.067019   0.417293   0.011447  -0.036708   0.030980
    19  H    0.002251  -0.086901   0.420431  -0.008817   0.058875  -0.076049
    20  H   -0.001356  -0.012270  -0.001363  -0.011898   0.110384   0.161943
    21  H   -0.001197   0.002783  -0.001197  -0.000770  -0.006281   0.056194
    22  H    0.000037   0.000183   0.000037   0.000102   0.028373   0.009916
    23  H   -0.001496   0.002640  -0.001495  -0.014256   0.111965   0.062953
               7          8          9         10         11         12
     1  C   -0.040069   0.010848  -0.021734  -0.013213   0.000097  -0.013121
     2  C    0.048034  -0.013425   0.044558   0.002745   0.000132  -0.091261
     3  C   -0.040154   0.010865  -0.021746  -0.013226   0.000097  -0.013305
     4  O    0.048605   0.013257  -0.055898  -0.030852   0.000082  -0.598281
     5  C   -0.429786   0.628641   1.634997  -2.535949   0.158905  -4.751138
     6  C   -1.733287   0.864410  -0.450636  -0.539399   0.001493  -3.473014
     7  C    7.361684  -0.289049   0.643941   0.070437   0.009903   0.360306
     8  C   -0.289049   8.376567   0.034213  -0.709041   0.022027  -3.048113
     9  C    0.643941   0.034213   8.813944  -4.045004   0.668511  -1.909544
    10  C    0.070437  -0.709041  -4.045004  11.294528  -0.413134   3.229664
    11  N    0.009903   0.022027   0.668511  -0.413134   7.350228  -0.266274
    12  C    0.360306  -3.048113  -1.909544   3.229664  -0.266274  16.551395
    13  H    0.002586   0.000995  -0.001117  -0.000111   0.000000  -0.015043
    14  H    0.019575  -0.005786   0.002702   0.000326  -0.000000   0.017111
    15  H   -0.010513   0.000555  -0.000115  -0.000027  -0.000000   0.015471
    16  H   -0.010150  -0.001337   0.002422   0.000071  -0.000000   0.033224
    17  H   -0.010495   0.000552  -0.000115  -0.000027  -0.000000   0.015430
    18  H    0.002588   0.000996  -0.001117  -0.000111   0.000000  -0.015049
    19  H    0.019551  -0.005786   0.002703   0.000327  -0.000000   0.017129
    20  H   -0.060722  -0.028138   0.015114   0.004621  -0.000013   0.114413
    21  H    0.263788   0.009670  -0.013791  -0.006683   0.000032   0.009753
    22  H   -0.030304   0.231332   0.084538  -0.042293   0.000197   0.023483
    23  H   -0.002835   0.043970   0.046228  -0.025333   0.000836   0.080603
              13         14         15         16         17         18
     1  C    0.417292   0.420422   0.406689  -0.016013   0.009964   0.012131
     2  C   -0.067033  -0.086876  -0.055526   0.350941  -0.055506  -0.067019
     3  C    0.012141   0.002244   0.009973  -0.016009   0.406676   0.417293
     4  O    0.011447  -0.008817  -0.000499  -0.081081  -0.000506   0.011447
     5  C   -0.036691   0.058853   0.007139   0.077812   0.007160  -0.036708
     6  C    0.030966  -0.076041  -0.010413  -0.077112  -0.010399   0.030980
     7  C    0.002586   0.019575  -0.010513  -0.010150  -0.010495   0.002588
     8  C    0.000995  -0.005786   0.000555  -0.001337   0.000552   0.000996
     9  C   -0.001117   0.002702  -0.000115   0.002422  -0.000115  -0.001117
    10  C   -0.000111   0.000326  -0.000027   0.000071  -0.000027  -0.000111
    11  N    0.000000  -0.000000  -0.000000  -0.000000  -0.000000   0.000000
    12  C   -0.015043   0.017111   0.015471   0.033224   0.015430  -0.015049
    13  H    0.546758  -0.027596  -0.023926  -0.003909   0.000055   0.001202
    14  H   -0.027596   0.555086  -0.027419   0.005292   0.000011  -0.000028
    15  H   -0.023926  -0.027419   0.527482  -0.004620  -0.000134   0.000055
    16  H   -0.003909   0.005292  -0.004620   0.603466  -0.004621  -0.003907
    17  H    0.000055   0.000011  -0.000134  -0.004621   0.527483  -0.023926
    18  H    0.001202  -0.000028   0.000055  -0.003907  -0.023926   0.546762
    19  H   -0.000028   0.002473   0.000011   0.005292  -0.027419  -0.027597
    20  H    0.000173   0.002515  -0.000098   0.000013  -0.000098   0.000173
    21  H   -0.000000  -0.000014   0.000000  -0.000000   0.000000  -0.000000
    22  H   -0.000000   0.000000  -0.000000   0.000000  -0.000000  -0.000000
    23  H    0.000000  -0.000001  -0.000003  -0.000016  -0.000003   0.000000
              19         20         21         22         23
     1  C    0.002251  -0.001356  -0.001197   0.000037  -0.001496
     2  C   -0.086901  -0.012270   0.002783   0.000183   0.002640
     3  C    0.420431  -0.001363  -0.001197   0.000037  -0.001495
     4  O   -0.008817  -0.011898  -0.000770   0.000102  -0.014256
     5  C    0.058875   0.110384  -0.006281   0.028373   0.111965
     6  C   -0.076049   0.161943   0.056194   0.009916   0.062953
     7  C    0.019551  -0.060722   0.263788  -0.030304  -0.002835
     8  C   -0.005786  -0.028138   0.009670   0.231332   0.043970
     9  C    0.002703   0.015114  -0.013791   0.084538   0.046228
    10  C    0.000327   0.004621  -0.006683  -0.042293  -0.025333
    11  N   -0.000000  -0.000013   0.000032   0.000197   0.000836
    12  C    0.017129   0.114413   0.009753   0.023483   0.080603
    13  H   -0.000028   0.000173  -0.000000  -0.000000   0.000000
    14  H    0.002473   0.002515  -0.000014   0.000000  -0.000001
    15  H    0.000011  -0.000098   0.000000  -0.000000  -0.000003
    16  H    0.005292   0.000013  -0.000000   0.000000  -0.000016
    17  H   -0.027419  -0.000098   0.000000  -0.000000  -0.000003
    18  H   -0.027597   0.000173  -0.000000  -0.000000   0.000000
    19  H    0.555093   0.002517  -0.000014   0.000000  -0.000001
    20  H    0.002517   0.605090  -0.006832  -0.000138  -0.000142
    21  H   -0.000014  -0.006832   0.565450  -0.004845   0.000013
    22  H    0.000000  -0.000138  -0.004845   0.555240  -0.000119
    23  H   -0.000001  -0.000142   0.000013  -0.000119   0.546144
 Mulliken charges:
               1
     1  C   -0.479010
     2  C    0.272740
     3  C   -0.478992
     4  O   -0.306488
     5  C   -0.517422
     6  C    0.757019
     7  C   -0.193635
     8  C   -0.148224
     9  C    0.526944
    10  C   -0.228315
    11  N   -0.533118
    12  C   -0.273839
    13  H    0.151839
    14  H    0.145966
    15  H    0.165917
    16  H    0.140243
    17  H    0.165917
    18  H    0.151836
    19  H    0.145960
    20  H    0.106113
    21  H    0.133941
    22  H    0.144261
    23  H    0.150348
 Sum of Mulliken charges =  -0.00000
 Mulliken charges with hydrogens summed into heavy atoms:
               1
     1  C   -0.015288
     2  C    0.412982
     3  C   -0.015280
     4  O   -0.306488
     5  C   -0.517422
     6  C    0.863132
     7  C   -0.059693
     8  C   -0.003963
     9  C    0.526944
    10  C   -0.228315
    11  N   -0.533118
    12  C   -0.123491
 Electronic spatial extent (au):  <R**2>=           2588.6998
 Charge=             -0.0000 electrons
 Dipole moment (field-independent basis, Debye):
    X=              6.2805    Y=              2.5707    Z=              0.0003  Tot=              6.7863
 Quadrupole moment (field-independent basis, Debye-Ang):
   XX=            -86.0995   YY=            -69.6642   ZZ=            -73.6711
   XY=             -9.0782   XZ=              0.0006   YZ=             -0.0001
 Traceless Quadrupole moment (field-independent basis, Debye-Ang):
   XX=             -9.6212   YY=              6.8140   ZZ=              2.8072
   XY=             -9.0782   XZ=              0.0006   YZ=             -0.0001
 Octapole moment (field-independent basis, Debye-Ang**2):
  XXX=            173.5095  YYY=              9.0771  ZZZ=             -0.0006  XYY=             10.5686
  XXY=             38.9058  XXZ=              0.0003  XZZ=              9.7595  YZZ=             -5.6430
  YYZ=              0.0008  XYZ=             -0.0017
 Hexadecapole moment (field-independent basis, Debye-Ang**3):
 XXXX=          -3355.0840 YYYY=           -516.3990 ZZZZ=           -263.1333 XXXY=           -252.1524
 XXXZ=              0.0082 YYYX=            -35.3915 YYYZ=              0.0033 ZZZX=             -0.0017
 ZZZY=              0.0003 XXYY=           -595.0225 XXZZ=           -516.7222 YYZZ=           -144.0725
 XXYZ=              0.0024 YYXZ=             -0.0002 ZZXY=             -4.6164
 N-N= 6.381977492175D+02 E-N=-2.476982841583D+03  KE= 5.126950362188D+02
 Unable to Open any file for archive entry.
 1\1\GINC-N2\SP\RB3LYP TD-FC\6-31+G(d,p)\C10H11N1O1\HPCMGAC13\17-Sep-20
 25\0\\# td=(50-50,nstates=3) b3lyp/6-31+g(d,p) geom=connectivity\\Titl
 e Card Required\\0,1\C,0,-3.154815,-0.021672,-1.290177\C,0,-2.720915,-
 0.721201,-0.000015\C,0,-3.155167,-0.021423,1.289898\O,0,-1.314083,-1.0
 78135,0.000221\C,0,-0.277646,-0.19575,0.000129\C,0,-0.363016,1.205369,
 0.000056\C,0,0.804769,1.977142,-0.000033\C,0,2.064071,1.387481,-0.0000
 46\C,0,2.14742,-0.017653,0.000011\C,0,3.433663,-0.657904,-0.000012\N,0
 ,4.478694,-1.170215,-0.00003\C,0,0.989135,-0.801899,0.000096\H,0,-4.24
 8919,-0.010023,-1.338822\H,0,-2.809357,1.012487,-1.359996\H,0,-2.78245
 6,-0.568828,-2.161127\H,0,-3.176219,-1.716526,0.000028\H,0,-2.78315,-0
 .5685,2.161047\H,0,-4.249284,-0.009645,1.338176\H,0,-2.809617,1.012705
 ,1.359692\H,0,-1.31993,1.707095,0.000063\H,0,0.718593,3.059546,-0.0000
 86\H,0,2.966716,1.987542,-0.000108\H,0,1.05043,-1.884206,0.00014\\Vers
 ion=ES64L-G16RevC.02\State=1-A\HF=-517.677741\RMSD=3.751e-09\PG=C01 [X
 (C10H11N1O1)]\\@
 The archive entry for this job was punched.


 ALMOST ANYTHING IS EASIER TO GET INTO THAN OUT OF.

                         -- AGNES ALLEN'S LAW FROM
                PAUL DICKSON'S "THE OFFICIAL RULES"
 Job cpu time:       0 days  0 hours 19 minutes 55.8 seconds.
 Elapsed time:       0 days  0 hours  2 minutes 32.2 seconds.
 File lengths (MBytes):  RWF=    501 Int=      0 D2E=      0 Chk=     22 Scr=      2
 Normal termination of Gaussian 16 at Wed Sep 17 09:05:14 2025.
