 Entering Gaussian System, Link 0=g16
 Input=M327e.gjf
 Output=M327e.log
 Initial command:
 /hpc/softwares/Gaussian/g16/l1.exe "/hpc/home/hpcmgac13/pbs.13581.admin1.x8z/Gau-3371169.inp" -scrdir="/hpc/home/hpcmgac13/pbs.13581.admin1.x8z/"
 Default linda workers: n2
 Default is to use  16 SMP processors on each worker.
 Entering Link 1 = /hpc/softwares/Gaussian/g16/l1.exe PID=   3371170.
  
 Copyright (c) 1988-2021, Gaussian, Inc.  All Rights Reserved.
  
 This is part of the Gaussian(R) 16 program.  It is based on
 the Gaussian(R) 09 system (copyright 2009, Gaussian, Inc.),
 the Gaussian(R) 03 system (copyright 2003, Gaussian, Inc.),
 the Gaussian(R) 98 system (copyright 1998, Gaussian, Inc.),
 the Gaussian(R) 94 system (copyright 1995, Gaussian, Inc.),
 the Gaussian 92(TM) system (copyright 1992, Gaussian, Inc.),
 the Gaussian 90(TM) system (copyright 1990, Gaussian, Inc.),
 the Gaussian 88(TM) system (copyright 1988, Gaussian, Inc.),
 the Gaussian 86(TM) system (copyright 1986, Carnegie Mellon
 University), and the Gaussian 82(TM) system (copyright 1983,
 Carnegie Mellon University). Gaussian is a federally registered
 trademark of Gaussian, Inc.
  
 This software contains proprietary and confidential information,
 including trade secrets, belonging to Gaussian, Inc.
  
 This software is provided under written license and may be
 used, copied, transmitted, or stored only in accord with that
 written license.
  
 The following legend is applicable only to US Government
 contracts under FAR:
  
                    RESTRICTED RIGHTS LEGEND
  
 Use, reproduction and disclosure by the US Government is
 subject to restrictions as set forth in subparagraphs (a)
 and (c) of the Commercial Computer Software - Restricted
 Rights clause in FAR 52.227-19.
  
 Gaussian, Inc.
 340 Quinnipiac St., Bldg. 40, Wallingford CT 06492
  
  
 ---------------------------------------------------------------
 Warning -- This program may not be used in any manner that
 competes with the business of Gaussian, Inc. or will provide
 assistance to any competitor of Gaussian, Inc.  The licensee
 of this program is prohibited from giving any competitor of
 Gaussian, Inc. access to this program.  By using this program,
 the user acknowledges that Gaussian, Inc. is engaged in the
 business of creating and licensing software in the field of
 computational chemistry and represents and warrants to the
 licensee that it is not a competitor of Gaussian, Inc. and that
 it will not use this program in any manner prohibited above.
 ---------------------------------------------------------------
  

 Cite this work as:
 Gaussian 16, Revision C.02,
 M. J. Frisch, G. W. Trucks, H. B. Schlegel, G. E. Scuseria, 
 M. A. Robb, J. R. Cheeseman, G. Scalmani, V. Barone, 
 G. A. Petersson, H. Nakatsuji, X. Li, M. Caricato, A. V. Marenich, 
 J. Bloino, B. G. Janesko, R. Gomperts, B. Mennucci, H. P. Hratchian, 
 J. V. Ortiz, A. F. Izmaylov, J. L. Sonnenberg, D. Williams-Young, 
 F. Ding, F. Lipparini, F. Egidi, J. Goings, B. Peng, A. Petrone, 
 T. Henderson, D. Ranasinghe, V. G. Zakrzewski, J. Gao, N. Rega, 
 G. Zheng, W. Liang, M. Hada, M. Ehara, K. Toyota, R. Fukuda, 
 J. Hasegawa, M. Ishida, T. Nakajima, Y. Honda, O. Kitao, H. Nakai, 
 T. Vreven, K. Throssell, J. A. Montgomery, Jr., J. E. Peralta, 
 F. Ogliaro, M. J. Bearpark, J. J. Heyd, E. N. Brothers, K. N. Kudin, 
 V. N. Staroverov, T. A. Keith, R. Kobayashi, J. Normand, 
 K. Raghavachari, A. P. Rendell, J. C. Burant, S. S. Iyengar, 
 J. Tomasi, M. Cossi, J. M. Millam, M. Klene, C. Adamo, R. Cammi, 
 J. W. Ochterski, R. L. Martin, K. Morokuma, O. Farkas, 
 J. B. Foresman, and D. J. Fox, Gaussian, Inc., Wallingford CT, 2019.
 
 ******************************************
 Gaussian 16:  ES64L-G16RevC.02  7-Dec-2021
                27-Aug-2025 
 ******************************************
 SetLPE:    new flags="-opt 'Tsnet.Node.lindarsharg: ssh'  -nodelist 'n2.head.cm.mguif.local' -env GAUSS_MDEF=2147483648 -env GAUSS_EXEDIR="/hpc/softwares/Gaussian/g16/bsd:/hpc/softwares/Gaussian/g16""
 Will use up to    1 processors via Linda.
 ----------------------------------------------------------
 # td=(50-50,nstates=3) b3lyp/6-31+g(d,p) geom=connectivity
 ----------------------------------------------------------
 1/38=1,57=2,172=1/1;
 2/12=2,17=6,18=5,40=1/2;
 3/5=1,6=6,7=111,11=9,25=1,30=1,74=-5/1,2,3,8;
 4//1;
 5/5=2,38=5/2;
 8/6=1,10=2,108=3/1;
 9/41=3,42=1,48=2,70=2/14;
 6/7=2,8=2,9=2,10=2/1;
 99/5=1,9=1/99;
 -------------------
 Title Card Required
 -------------------
 Symbolic Z-matrix:
 Charge =  0 Multiplicity = 1
 C                    -2.22107  -1.25234  -0.85352 
 C                    -2.15123   0.22379  -0.4307 
 C                    -3.4819    0.93535  -0.72141 
 C                    -1.77722   0.3938    1.05588 
 C                    -0.37297  -0.11588   1.45713 
 C                     0.7318    0.65375   0.81183 
 C                     1.79167   0.13594   0.14251 
 C                     2.80228   0.9897   -0.42049 
 N                     3.61413   1.68879  -0.87312 
 C                     1.96934  -1.27967  -0.03813 
 N                     2.10887  -2.42531  -0.18258 
 H                    -2.50137  -1.33896  -1.90862 
 H                    -1.26607  -1.77206  -0.7284 
 H                    -2.97556  -1.78953  -0.26468 
 H                    -1.37273   0.71338  -1.03561 
 H                    -3.43282   2.00042  -0.46786 
 H                    -3.7477    0.85514  -1.78083 
 H                    -4.29903   0.49011  -0.13979 
 H                    -1.85318   1.45602   1.32592 
 H                    -2.51562  -0.13303   1.67457 
 H                    -0.26527   0.01463   2.54468 
 H                    -0.26562  -1.18607   1.25933 
 H                     0.68971   1.73897   0.89253 
 
                          Input orientation:                          
 ---------------------------------------------------------------------
 Center     Atomic      Atomic             Coordinates (Angstroms)
 Number     Number       Type             X           Y           Z
 ---------------------------------------------------------------------
      1          6           0       -2.221074   -1.252340   -0.853520
      2          6           0       -2.151231    0.223792   -0.430700
      3          6           0       -3.481899    0.935349   -0.721413
      4          6           0       -1.777215    0.393802    1.055876
      5          6           0       -0.372968   -0.115881    1.457131
      6          6           0        0.731803    0.653747    0.811827
      7          6           0        1.791668    0.135940    0.142513
      8          6           0        2.802275    0.989703   -0.420488
      9          7           0        3.614134    1.688785   -0.873115
     10          6           0        1.969343   -1.279668   -0.038128
     11          7           0        2.108870   -2.425311   -0.182575
     12          1           0       -2.501368   -1.338962   -1.908621
     13          1           0       -1.266071   -1.772056   -0.728402
     14          1           0       -2.975562   -1.789529   -0.264677
     15          1           0       -1.372729    0.713378   -1.035612
     16          1           0       -3.432817    2.000416   -0.467858
     17          1           0       -3.747695    0.855144   -1.780832
     18          1           0       -4.299028    0.490106   -0.139793
     19          1           0       -1.853177    1.456021    1.325924
     20          1           0       -2.515618   -0.133031    1.674570
     21          1           0       -0.265274    0.014630    2.544681
     22          1           0       -0.265623   -1.186066    1.259331
     23          1           0        0.689710    1.738967    0.892534
 ---------------------------------------------------------------------
                    Distance matrix (angstroms):
                    1          2          3          4          5
     1  C    0.000000
     2  C    1.537082   0.000000
     3  C    2.528461   1.536719   0.000000
     4  C    2.559802   1.542303   2.521503   0.000000
     5  C    3.169565   2.615627   3.939110   1.546833   0.000000
     6  C    3.889220   3.168694   4.492818   2.534226   1.493072
     7  C    4.361365   3.985316   5.403326   3.692919   2.545051
     8  C    5.517999   5.012379   6.291610   4.848348   3.850966
     9  N    6.534543   5.965012   7.137532   5.870659   4.958210
    10  C    4.269099   4.403820   5.923615   4.246651   3.012743
    11  N    4.535906   5.022726   6.545310   4.958106   3.765850
    12  H    1.095128   2.179231   2.746524   3.509289   4.165849
    13  H    1.094436   2.203530   3.498569   2.852342   2.883939
    14  H    1.097525   2.181868   2.808905   2.819012   3.541076
    15  H    2.148696   1.100763   2.143966   2.154080   2.810865
    16  H    3.492489   2.190944   1.095932   2.764777   4.188911
    17  H    2.762602   2.184069   1.095194   3.484615   4.776618
    18  H    2.804179   2.183708   1.097371   2.792569   4.281511
    19  H    3.495789   2.166322   2.667475   1.098638   2.163125
    20  H    2.780440   2.166163   2.795688   1.097986   2.153723
    21  H    4.120453   3.528948   4.675657   2.155523   1.100634
    22  H    2.879639   2.898176   4.332226   2.195971   1.093592
    23  H    4.524299   3.481041   4.544552   2.814581   2.210999
                    6          7          8          9         10
     6  C    0.000000
     7  C    1.356252   0.000000
     8  C    2.432760   1.437779   0.000000
     9  N    3.495449   2.600810   1.163057   0.000000
    10  C    2.447861   1.438105   2.447452   3.494890   0.000000
    11  N    3.516496   2.601212   3.492812   4.434913   1.163112
    12  H    4.671736   4.981229   5.980456   6.902093   4.846598
    13  H    3.499761   3.707925   4.926821   5.984544   3.344672
    14  H    4.568699   5.157491   6.413408   7.476159   4.976281
    15  H    2.801007   3.425613   4.229112   5.083958   4.017045
    16  H    4.560172   5.580687   6.316657   7.065470   6.334584
    17  H    5.179608   5.907711   6.691095   7.464277   6.346571
    18  H    5.122657   6.107512   7.124387   8.036960   6.514208
    19  H    2.755007   4.053143   4.994061   5.897579   4.894516
    20  H    3.450955   4.579548   5.824928   6.883573   4.935888
    21  H    2.098908   3.164828   4.376397   5.434513   3.652345
    22  H    2.140101   2.688388   4.119194   5.278694   2.585969
    23  H    1.089031   2.084835   2.597759   3.416473   3.408189
                   11         12         13         14         15
    11  N    0.000000
    12  H    5.041199   0.000000
    13  H    3.480646   1.762511   0.000000
    14  H    5.124686   1.769300   1.771357   0.000000
    15  H    4.764512   2.499614   2.506618   3.070498   0.000000
    16  H    7.097798   3.754310   4.358235   3.822832   2.494549
    17  H    6.900374   2.526611   3.764073   3.144712   2.493173
    18  H    7.040074   3.115417   3.829186   2.638919   3.068480
    19  H    5.747880   4.323698   3.871102   3.784621   2.521746
    20  H    5.485383   3.780705   3.165761   2.591566   3.060668
    21  H    4.362086   5.163742   3.860947   4.300365   3.812244
    22  H    3.041881   3.880445   2.301166   3.167102   3.178102
    23  H    4.528917   5.244339   4.333566   5.217628   3.003870
                   16         17         18         19         20
    16  H    0.000000
    17  H    1.770508   0.000000
    18  H    1.771718   1.769246   0.000000
    19  H    2.451384   3.688114   3.010566   0.000000
    20  H    3.159565   3.799251   2.619306   1.756550   0.000000
    21  H    4.801257   5.616385   4.868639   2.466660   2.417218
    22  H    4.813311   5.053113   4.586443   3.083081   2.518687
    23  H    4.349052   5.255339   5.245270   2.595026   3.793426
                   21         22         23
    21  H    0.000000
    22  H    1.758919   0.000000
    23  H    2.571949   3.098874   0.000000
 Stoichiometry    C9H12N2
 Framework group  C1[X(C9H12N2)]
 Deg. of freedom    63
 Full point group                 C1      NOp   1
 Largest Abelian subgroup         C1      NOp   1
 Largest concise Abelian subgroup C1      NOp   1
                         Standard orientation:                         
 ---------------------------------------------------------------------
 Center     Atomic      Atomic             Coordinates (Angstroms)
 Number     Number       Type             X           Y           Z
 ---------------------------------------------------------------------
      1          6           0        2.221074    1.252340   -0.853520
      2          6           0        2.151231   -0.223792   -0.430700
      3          6           0        3.481899   -0.935349   -0.721413
      4          6           0        1.777215   -0.393802    1.055876
      5          6           0        0.372968    0.115881    1.457131
      6          6           0       -0.731803   -0.653747    0.811827
      7          6           0       -1.791668   -0.135940    0.142513
      8          6           0       -2.802275   -0.989703   -0.420488
      9          7           0       -3.614134   -1.688785   -0.873115
     10          6           0       -1.969343    1.279668   -0.038128
     11          7           0       -2.108870    2.425311   -0.182575
     12          1           0        2.501368    1.338962   -1.908621
     13          1           0        1.266071    1.772056   -0.728402
     14          1           0        2.975562    1.789529   -0.264677
     15          1           0        1.372729   -0.713378   -1.035612
     16          1           0        3.432817   -2.000416   -0.467858
     17          1           0        3.747695   -0.855144   -1.780832
     18          1           0        4.299028   -0.490106   -0.139793
     19          1           0        1.853177   -1.456021    1.325924
     20          1           0        2.515618    0.133031    1.674570
     21          1           0        0.265274   -0.014630    2.544681
     22          1           0        0.265623    1.186066    1.259331
     23          1           0       -0.689710   -1.738967    0.892534
 ---------------------------------------------------------------------
 Rotational constants (GHZ):           1.6249940           0.5611967           0.4992307
 Standard basis: 6-31+G(d,p) (6D, 7F)
 There are   269 symmetry adapted cartesian basis functions of A   symmetry.
 There are   269 symmetry adapted basis functions of A   symmetry.
   269 basis functions,   436 primitive gaussians,   269 cartesian basis functions
    40 alpha electrons       40 beta electrons
       nuclear repulsion energy       539.9311796814 Hartrees.
 NAtoms=   23 NActive=   23 NUniq=   23 SFac= 1.00D+00 NAtFMM=   60 NAOKFM=F Big=F
 Integral buffers will be    131072 words long.
 Regular integral format.
 Two-electron integral symmetry is turned on.
 One-electron integrals computed using PRISM.
 NBasis=   269 RedAO= T EigKep=  6.73D-06  NBF=   269
 NBsUse=   269 1.00D-06 EigRej= -1.00D+00 NBFU=   269
 ExpMin= 4.38D-02 ExpMax= 4.17D+03 ExpMxC= 6.27D+02 IAcc=3 IRadAn=         5 AccDes= 0.00D+00
 Harris functional with IExCor=  402 and IRadAn=       5 diagonalized for initial guess.
 HarFok:  IExCor=  402 AccDes= 0.00D+00 IRadAn=         5 IDoV= 1 UseB2=F ITyADJ=14
 ICtDFT=  3500011 ScaDFX=  1.000000  1.000000  1.000000  1.000000
 FoFCou: FMM=F IPFlag=           0 FMFlag=      100000 FMFlg1=           0
         NFxFlg=           0 DoJE=T BraDBF=F KetDBF=T FulRan=T
         wScrn=  0.000000 ICntrl=       500 IOpCl=  0 I1Cent=   200000004 NGrid=           0
         NMat0=    1 NMatS0=      1 NMatT0=    0 NMatD0=    1 NMtDS0=    0 NMtDT0=    0
 Petite list used in FoFCou.
 Requested convergence on RMS density matrix=1.00D-08 within 128 cycles.
 Requested convergence on MAX density matrix=1.00D-06.
 Requested convergence on             energy=1.00D-06.
 No special actions if energy rises.
 SCF Done:  E(RB3LYP) =  -459.673922285     A.U. after   15 cycles
            NFock= 15  Conv=0.18D-08     -V/T= 2.0100
 DoSCS=F DFT=T ScalE2(SS,OS)=  1.000000  1.000000
 ExpMin= 4.38D-02 ExpMax= 4.17D+03 ExpMxC= 6.27D+02 IAcc=3 IRadAn=         5 AccDes= 0.00D+00
 HarFok:  IExCor=  205 AccDes= 0.00D+00 IRadAn=         5 IDoV=-2 UseB2=F ITyADJ=14
 ICtDFT= 12500011 ScaDFX=  1.000000  1.000000  1.000000  1.000000
 Range of M.O.s used for correlation:    12   269
 NBasis=   269 NAE=    40 NBE=    40 NFC=    11 NFV=     0
 NROrb=    258 NOA=    29 NOB=    29 NVA=   229 NVB=   229

 **** Warning!!: The largest alpha MO coefficient is  0.10035316D+03

 Keep R1, R2, and R3 ints in memory in canonical form, NReq=2114787066.
 Orbital symmetries:
       Occupied  (A) (A) (A) (A) (A) (A) (A) (A) (A) (A) (A) (A)
                 (A) (A) (A) (A) (A) (A) (A) (A) (A) (A) (A) (A)
                 (A) (A) (A) (A) (A) (A) (A) (A) (A) (A) (A) (A)
                 (A) (A) (A) (A)
       Virtual   (A) (A) (A) (A) (A) (A) (A) (A) (A) (A) (A) (A)
                 (A) (A) (A) (A) (A) (A) (A) (A) (A) (A) (A) (A)
                 (A) (A) (A) (A) (A) (A) (A) (A) (A) (A) (A) (A)
                 (A) (A) (A) (A) (A) (A) (A) (A) (A) (A) (A) (A)
                 (A) (A) (A) (A) (A) (A) (A) (A) (A) (A) (A) (A)
                 (A) (A) (A) (A) (A) (A) (A) (A) (A) (A) (A) (A)
                 (A) (A) (A) (A) (A) (A) (A) (A) (A) (A) (A) (A)
                 (A) (A) (A) (A) (A) (A) (A) (A) (A) (A) (A) (A)
                 (A) (A) (A) (A) (A) (A) (A) (A) (A) (A) (A) (A)
                 (A) (A) (A) (A) (A) (A) (A) (A) (A) (A) (A) (A)
                 (A) (A) (A) (A) (A) (A) (A) (A) (A) (A) (A) (A)
                 (A) (A) (A) (A) (A) (A) (A) (A) (A) (A) (A) (A)
                 (A) (A) (A) (A) (A) (A) (A) (A) (A) (A) (A) (A)
                 (A) (A) (A) (A) (A) (A) (A) (A) (A) (A) (A) (A)
                 (A) (A) (A) (A) (A) (A) (A) (A) (A) (A) (A) (A)
                 (A) (A) (A) (A) (A) (A) (A) (A) (A) (A) (A) (A)
                 (A) (A) (A) (A) (A) (A) (A) (A) (A) (A) (A) (A)
                 (A) (A) (A) (A) (A) (A) (A) (A) (A) (A) (A) (A)
                 (A) (A) (A) (A) (A) (A) (A) (A) (A) (A) (A) (A)
                 (A)
    24 initial guesses have been made.
 Convergence on wavefunction:    0.001000000000000
 Iteration     1 Dimension    24 NMult     0 NNew     24
 CISAX will form    24 AO SS matrices at one time.
 New state      1 was old state      2
 New state      2 was old state      4
 New state      4 was old state     10
 New state      5 was old state      8
 New state      6 was old state      9
 New state      7 was old state      6
 New state      8 was old state      7
 New state      9 was old state     12
 New state     10 was old state      5
 New state     11 was old state     16
 New state     12 was old state     14
 Vector   5 SDiff=7.42D+00 TDiff=1.84D+00 assumed to be triplet.
 Vector  11 SDiff=7.52D+00 TDiff=1.89D+00 assumed to be triplet.
 Iteration     2 Dimension    36 NMult    24 NNew     12
 New state      2 was old state      3
 New state      3 was old state      2
 New state      5 was old state      6
 New state      6 was old state      8
 Iteration     3 Dimension    48 NMult    36 NNew     12
 Iteration     4 Dimension    60 NMult    48 NNew     12
 New state      3 was old state      4
 New state      4 was old state      3
 Iteration     5 Dimension    72 NMult    60 NNew     12
 New state      2 was old state      3
 New state      3 was old state      2
 Iteration     6 Dimension    82 NMult    72 NNew     10
 Iteration     7 Dimension    88 NMult    82 NNew      6
 Iteration     8 Dimension    90 NMult    88 NNew      2
 Iteration     9 Dimension    92 NMult    90 NNew      2
 ***********************************************************************
 Excited states from <AA,BB:AA,BB> singles matrix:
 ***********************************************************************
 
 Ground to excited state transition densities written to RWF  633
 Ground to excited state transition electric dipole moments (Au):
       state          X           Y           Z        Dip. S.      Osc.
         1        -0.0000      0.0000      0.0000      0.0000      0.0000
         2        -0.0000      0.0000     -0.0000      0.0000      0.0000
         3        -1.5181      0.3381     -0.6644      2.8604      0.3720
         4        -0.0000      0.0000     -0.0000      0.0000      0.0000
         5        -0.1811      0.0688     -0.0752      0.0432      0.0061
         6        -0.0375      0.0460     -0.1067      0.0149      0.0021
 Ground to excited state transition velocity dipole moments (Au):
       state          X           Y           Z        Dip. S.      Osc.
         1         0.0000     -0.0000     -0.0000      0.0000      0.0000
         2         0.0000     -0.0000      0.0000      0.0000      0.0000
         3         0.2911     -0.0652      0.1274      0.1052      0.3595
         4         0.0000      0.0000      0.0000      0.0000      0.0000
         5         0.0378     -0.0142      0.0165      0.0019      0.0060
         6         0.0080     -0.0087      0.0228      0.0007      0.0020
 Ground to excited state transition magnetic dipole moments (Au):
       state          X           Y           Z
         1         0.0000      0.0000      0.0000
         2        -0.0000      0.0000      0.0000
         3        -0.0860      0.8421      0.5047
         4        -0.0000      0.0000      0.0000
         5         0.1305      0.2914      0.0421
         6        -0.1537      0.4511     -0.1021
 Ground to excited state transition velocity quadrupole moments (Au):
       state          XX          YY          ZZ          XY          XZ          YZ
         1        -0.0000     -0.0000     -0.0000      0.0000      0.0000     -0.0000
         2        -0.0000     -0.0000      0.0000      0.0000     -0.0000     -0.0000
         3        -0.9804     -0.4673      0.3731     -0.0440     -0.3109     -0.1497
         4        -0.0000     -0.0000      0.0000     -0.0000     -0.0000      0.0000
         5        -0.1668     -0.0607      0.0113     -0.0031      0.0323     -0.0322
         6        -0.1963     -0.0559      0.0535     -0.0145      0.1006      0.0122
 <0|del|b> * <b|rxdel|0> + <0|del|b> * <b|delr+rdel|0>
 Rotatory Strengths (R) in cgs (10**-40 erg-esu-cm/Gauss)
       state          XX          YY          ZZ    R(velocity)    E-M Angle
         1        -0.0000     -0.0000      0.0000     -0.0000       90.00
         2        -0.0000     -0.0000     -0.0000     -0.0000       90.00
         3       -29.8026      2.3144    -29.1127    -18.8670       92.80
         4        -0.0000      0.0000      0.0000      0.0000       90.00
         5        -5.0371      7.4086      2.5877      1.6531       83.89
         6        -9.3536     -5.1096    -10.0580     -8.1738      126.82
 1/2[<0|r|b>*<b|rxdel|0> + (<0|rxdel|b>*<b|r|0>)*]
 Rotatory Strengths (R) in cgs (10**-40 erg-esu-cm/Gauss)
       state          XX          YY          ZZ     R(length)
         1         0.0000     -0.0000     -0.0000     -0.0000
         2        -0.0000     -0.0000      0.0000     -0.0000
         3       -92.3516   -201.3610    237.1581    -18.8515
         4        -0.0000     -0.0000      0.0000     -0.0000
         5        16.7170    -14.1821      2.2402      1.5917
         6        -4.0775    -14.6655     -7.7059     -8.8163
  1/2[<0|del|b>*<b|r|0> + (<0|r|b>*<b|del|0>)*] (Au)
       state          X           Y           Z        Dip. S.   Osc.(frdel)
         1        -0.0000     -0.0000     -0.0000      0.0000      0.0000
         2        -0.0000     -0.0000     -0.0000      0.0000      0.0000
         3        -0.4419     -0.0220     -0.0846      0.5485      0.3657
         4        -0.0000      0.0000     -0.0000      0.0000      0.0000
         5        -0.0069     -0.0010     -0.0012      0.0091      0.0060
         6        -0.0003     -0.0004     -0.0024      0.0031      0.0021

 Excitation energies and oscillator strengths:
 
 Excited State   1:      Triplet-A      2.9645 eV  418.23 nm  f=0.0000  <S**2>=2.000
      40 -> 41         0.69596
      40 <- 41         0.12108
 This state for optimization and/or second-order correction.
 Total Energy, E(TD-HF/TD-DFT) =  -459.564978728    
 Copying the excited state density for this state as the 1-particle RhoCI density.
 
 Excited State   2:      Triplet-A      5.2067 eV  238.12 nm  f=0.0000  <S**2>=2.000
      27 -> 47         0.12027
      35 -> 41         0.55121
      36 -> 42         0.18723
      40 -> 47        -0.28976
 
 Excited State   3:      Singlet-A      5.3080 eV  233.58 nm  f=0.3720  <S**2>=0.000
      37 -> 41        -0.10548
      40 -> 41         0.68065
 
 Excited State   4:      Triplet-A      5.5110 eV  224.97 nm  f=0.0000  <S**2>=2.000
      34 -> 41        -0.10920
      34 -> 47         0.11659
      35 -> 42         0.10590
      36 -> 41         0.59452
      39 -> 41         0.23578
      40 -> 42         0.11476
 
 Excited State   5:      Singlet-A      5.8004 eV  213.75 nm  f=0.0061  <S**2>=0.000
      36 -> 41         0.50552
      38 -> 41         0.18518
      39 -> 41         0.44127
 
 Excited State   6:      Singlet-A      5.8825 eV  210.77 nm  f=0.0021  <S**2>=0.000
      34 -> 41        -0.21707
      36 -> 41        -0.32154
      37 -> 41        -0.16707
      38 -> 41        -0.31776
      39 -> 41         0.45872
 SavETr:  write IOETrn=   770 NScale= 10 NData=  16 NLR=1 NState=    6 LETran=     118.

 **********************************************************************

            Population analysis using the SCF Density.

 **********************************************************************

 Orbital symmetries:
       Occupied  (A) (A) (A) (A) (A) (A) (A) (A) (A) (A) (A) (A)
                 (A) (A) (A) (A) (A) (A) (A) (A) (A) (A) (A) (A)
                 (A) (A) (A) (A) (A) (A) (A) (A) (A) (A) (A) (A)
                 (A) (A) (A) (A)
       Virtual   (A) (A) (A) (A) (A) (A) (A) (A) (A) (A) (A) (A)
                 (A) (A) (A) (A) (A) (A) (A) (A) (A) (A) (A) (A)
                 (A) (A) (A) (A) (A) (A) (A) (A) (A) (A) (A) (A)
                 (A) (A) (A) (A) (A) (A) (A) (A) (A) (A) (A) (A)
                 (A) (A) (A) (A) (A) (A) (A) (A) (A) (A) (A) (A)
                 (A) (A) (A) (A) (A) (A) (A) (A) (A) (A) (A) (A)
                 (A) (A) (A) (A) (A) (A) (A) (A) (A) (A) (A) (A)
                 (A) (A) (A) (A) (A) (A) (A) (A) (A) (A) (A) (A)
                 (A) (A) (A) (A) (A) (A) (A) (A) (A) (A) (A) (A)
                 (A) (A) (A) (A) (A) (A) (A) (A) (A) (A) (A) (A)
                 (A) (A) (A) (A) (A) (A) (A) (A) (A) (A) (A) (A)
                 (A) (A) (A) (A) (A) (A) (A) (A) (A) (A) (A) (A)
                 (A) (A) (A) (A) (A) (A) (A) (A) (A) (A) (A) (A)
                 (A) (A) (A) (A) (A) (A) (A) (A) (A) (A) (A) (A)
                 (A) (A) (A) (A) (A) (A) (A) (A) (A) (A) (A) (A)
                 (A) (A) (A) (A) (A) (A) (A) (A) (A) (A) (A) (A)
                 (A) (A) (A) (A) (A) (A) (A) (A) (A) (A) (A) (A)
                 (A) (A) (A) (A) (A) (A) (A) (A) (A) (A) (A) (A)
                 (A) (A) (A) (A) (A) (A) (A) (A) (A) (A) (A) (A)
                 (A)
 The electronic state is 1-A.
 Alpha  occ. eigenvalues --  -14.37243 -14.36957 -10.29645 -10.27376 -10.26506
 Alpha  occ. eigenvalues --  -10.26258 -10.23315 -10.21686 -10.21329 -10.19236
 Alpha  occ. eigenvalues --  -10.19054  -0.94556  -0.93135  -0.87738  -0.83391
 Alpha  occ. eigenvalues --   -0.78238  -0.70201  -0.69921  -0.65106  -0.61294
 Alpha  occ. eigenvalues --   -0.57673  -0.53673  -0.48321  -0.47760  -0.45823
 Alpha  occ. eigenvalues --   -0.44326  -0.42676  -0.41087  -0.40279  -0.39925
 Alpha  occ. eigenvalues --   -0.39545  -0.38728  -0.38316  -0.36935  -0.36883
 Alpha  occ. eigenvalues --   -0.35847  -0.34834  -0.34664  -0.34343  -0.29877
 Alpha virt. eigenvalues --   -0.09978  -0.02673  -0.01261   0.00324   0.00420
 Alpha virt. eigenvalues --    0.00581   0.01313   0.02756   0.03183   0.03507
 Alpha virt. eigenvalues --    0.03805   0.04260   0.04519   0.05975   0.06372
 Alpha virt. eigenvalues --    0.06837   0.07368   0.07949   0.08325   0.09036
 Alpha virt. eigenvalues --    0.09178   0.09762   0.10302   0.10618   0.11257
 Alpha virt. eigenvalues --    0.11691   0.12116   0.12877   0.13591   0.14131
 Alpha virt. eigenvalues --    0.14693   0.15096   0.16624   0.16983   0.17699
 Alpha virt. eigenvalues --    0.18516   0.18890   0.19144   0.19335   0.19765
 Alpha virt. eigenvalues --    0.20172   0.21514   0.22209   0.22781   0.23098
 Alpha virt. eigenvalues --    0.23299   0.24092   0.24356   0.24733   0.25680
 Alpha virt. eigenvalues --    0.25733   0.26313   0.26671   0.26972   0.27231
 Alpha virt. eigenvalues --    0.28181   0.28426   0.28616   0.29443   0.30363
 Alpha virt. eigenvalues --    0.30749   0.32210   0.34505   0.35638   0.36177
 Alpha virt. eigenvalues --    0.37025   0.40002   0.42085   0.46394   0.58013
 Alpha virt. eigenvalues --    0.60970   0.61360   0.62599   0.63582   0.65047
 Alpha virt. eigenvalues --    0.65512   0.67839   0.68295   0.69638   0.70491
 Alpha virt. eigenvalues --    0.71189   0.71919   0.72861   0.74226   0.74561
 Alpha virt. eigenvalues --    0.76263   0.77068   0.79560   0.81224   0.83695
 Alpha virt. eigenvalues --    0.84535   0.86426   0.87606   0.88335   0.90150
 Alpha virt. eigenvalues --    0.91862   0.93190   0.95298   0.96216   0.97825
 Alpha virt. eigenvalues --    0.98422   0.99022   0.99651   1.00449   1.01223
 Alpha virt. eigenvalues --    1.02572   1.03371   1.04216   1.06129   1.07692
 Alpha virt. eigenvalues --    1.09474   1.09654   1.10671   1.11298   1.12416
 Alpha virt. eigenvalues --    1.14203   1.15534   1.16370   1.22825   1.23234
 Alpha virt. eigenvalues --    1.27053   1.29595   1.31590   1.33358   1.37507
 Alpha virt. eigenvalues --    1.41763   1.43950   1.48127   1.50092   1.50313
 Alpha virt. eigenvalues --    1.50882   1.51209   1.52750   1.57270   1.60397
 Alpha virt. eigenvalues --    1.62516   1.66358   1.70148   1.71587   1.74830
 Alpha virt. eigenvalues --    1.75959   1.77355   1.79528   1.83423   1.85170
 Alpha virt. eigenvalues --    1.86242   1.87502   1.88229   1.89980   1.91185
 Alpha virt. eigenvalues --    1.91386   1.93989   1.96260   1.97582   2.00003
 Alpha virt. eigenvalues --    2.01692   2.02173   2.03230   2.04058   2.04747
 Alpha virt. eigenvalues --    2.08156   2.10512   2.12591   2.13425   2.14908
 Alpha virt. eigenvalues --    2.16477   2.17948   2.20911   2.23125   2.23270
 Alpha virt. eigenvalues --    2.26923   2.28567   2.31430   2.34600   2.35681
 Alpha virt. eigenvalues --    2.40011   2.41478   2.45453   2.47961   2.49823
 Alpha virt. eigenvalues --    2.53909   2.58062   2.60143   2.62260   2.65732
 Alpha virt. eigenvalues --    2.69327   2.71664   2.71968   2.72572   2.73464
 Alpha virt. eigenvalues --    2.75636   2.76875   2.81103   2.82479   2.86225
 Alpha virt. eigenvalues --    2.87479   2.87887   2.88936   2.90249   2.93381
 Alpha virt. eigenvalues --    2.95329   2.96220   3.04575   3.08547   3.22092
 Alpha virt. eigenvalues --    3.24892   3.25994   3.29280   3.32367   3.33543
 Alpha virt. eigenvalues --    3.36795   3.43444   3.44097   3.48179   3.49639
 Alpha virt. eigenvalues --    3.51541   3.53321   3.56780   4.18497   4.23271
 Alpha virt. eigenvalues --    4.25754   4.32563   4.40582   4.51364   4.54205
 Alpha virt. eigenvalues --    4.57470   4.64951   4.71088   4.81948
          Condensed to atoms (all electrons):
               1          2          3          4          5          6
     1  C    5.400547   0.090973  -0.256425  -0.054418   0.109171  -0.086553
     2  C    0.090973   6.480679  -0.402377  -0.026250  -0.074315   0.094872
     3  C   -0.256425  -0.402377   5.954801   0.110693  -0.124396   0.060367
     4  C   -0.054418  -0.026250   0.110693   5.592189   0.311651  -0.212018
     5  C    0.109171  -0.074315  -0.124396   0.311651   5.984243  -0.764417
     6  C   -0.086553   0.094872   0.060367  -0.212018  -0.764417   8.100361
     7  C    0.048280   0.011934  -0.037545   0.060344   0.940651  -1.239271
     8  C    0.001939  -0.042546  -0.018509  -0.103078  -0.408820   0.924698
     9  N    0.000613   0.000183  -0.000163   0.002088   0.021204  -0.109302
    10  C   -0.030852  -0.001278  -0.010179  -0.025210  -0.505040  -1.204695
    11  N    0.007313  -0.011395  -0.001161  -0.006564   0.017841   0.082445
    12  H    0.439149  -0.068729  -0.025432   0.005534   0.001762   0.008740
    13  H    0.417940  -0.063622   0.012069  -0.001574   0.013419  -0.019529
    14  H    0.467666  -0.098226  -0.033910   0.002779   0.003362  -0.001302
    15  H    0.007964   0.274138  -0.031648  -0.000758  -0.015983   0.036021
    16  H    0.001422  -0.114652   0.472261  -0.002984   0.005194  -0.003730
    17  H   -0.011655  -0.097191   0.468428   0.008230  -0.010087   0.003962
    18  H   -0.006245  -0.110969   0.450216   0.013362  -0.002397   0.003261
    19  H    0.002674  -0.064612   0.002773   0.440224  -0.075445  -0.006633
    20  H    0.012952  -0.075190  -0.019066   0.400374  -0.024939   0.012891
    21  H   -0.004676   0.031510   0.001770  -0.069334   0.352158   0.036283
    22  H    0.009904  -0.011940  -0.000802  -0.028929   0.471425  -0.173151
    23  H    0.001940   0.006179   0.000031  -0.004950   0.009229   0.157012
               7          8          9         10         11         12
     1  C    0.048280   0.001939   0.000613  -0.030852   0.007313   0.439149
     2  C    0.011934  -0.042546   0.000183  -0.001278  -0.011395  -0.068729
     3  C   -0.037545  -0.018509  -0.000163  -0.010179  -0.001161  -0.025432
     4  C    0.060344  -0.103078   0.002088  -0.025210  -0.006564   0.005534
     5  C    0.940651  -0.408820   0.021204  -0.505040   0.017841   0.001762
     6  C   -1.239271   0.924698  -0.109302  -1.204695   0.082445   0.008740
     7  C    8.825943  -2.726680   0.298973  -1.155771   0.069802  -0.004442
     8  C   -2.726680   9.523104  -0.063553  -1.091198   0.066777   0.000470
     9  N    0.298973  -0.063553   7.258117   0.077251  -0.000900   0.000000
    10  C   -1.155771  -1.091198   0.077251  10.239006   0.018823   0.001399
    11  N    0.069802   0.066777  -0.000900   0.018823   7.227273  -0.000056
    12  H   -0.004442   0.000470   0.000000   0.001399  -0.000056   0.547523
    13  H    0.013637  -0.003672   0.000038  -0.011440   0.001804  -0.026012
    14  H   -0.000601  -0.000169  -0.000001   0.003906  -0.000105  -0.028476
    15  H   -0.016618  -0.001318  -0.000042   0.005861  -0.000156  -0.003369
    16  H   -0.000309   0.000381   0.000002  -0.000581   0.000002   0.000111
    17  H   -0.001555  -0.000400   0.000001  -0.000047   0.000000   0.003011
    18  H   -0.000544   0.000114  -0.000000   0.000099  -0.000001  -0.000261
    19  H    0.012256   0.002446   0.000047  -0.006837   0.000059  -0.000127
    20  H    0.001980   0.002293  -0.000006  -0.000742  -0.000007   0.000089
    21  H   -0.032447  -0.007921  -0.000051   0.012228  -0.000039   0.000001
    22  H    0.101160   0.001216   0.000240  -0.058094   0.008413  -0.000068
    23  H    0.130017  -0.039508   0.001781   0.037541  -0.000070   0.000001
              13         14         15         16         17         18
     1  C    0.417940   0.467666   0.007964   0.001422  -0.011655  -0.006245
     2  C   -0.063622  -0.098226   0.274138  -0.114652  -0.097191  -0.110969
     3  C    0.012069  -0.033910  -0.031648   0.472261   0.468428   0.450216
     4  C   -0.001574   0.002779  -0.000758  -0.002984   0.008230   0.013362
     5  C    0.013419   0.003362  -0.015983   0.005194  -0.010087  -0.002397
     6  C   -0.019529  -0.001302   0.036021  -0.003730   0.003962   0.003261
     7  C    0.013637  -0.000601  -0.016618  -0.000309  -0.001555  -0.000544
     8  C   -0.003672  -0.000169  -0.001318   0.000381  -0.000400   0.000114
     9  N    0.000038  -0.000001  -0.000042   0.000002   0.000001  -0.000000
    10  C   -0.011440   0.003906   0.005861  -0.000581  -0.000047   0.000099
    11  N    0.001804  -0.000105  -0.000156   0.000002   0.000000  -0.000001
    12  H   -0.026012  -0.028476  -0.003369   0.000111   0.003011  -0.000261
    13  H    0.552215  -0.029371  -0.004131  -0.000149   0.000065   0.000019
    14  H   -0.029371   0.553919   0.005577   0.000012  -0.000231   0.003293
    15  H   -0.004131   0.005577   0.617645  -0.004417  -0.004267   0.005325
    16  H   -0.000149   0.000012  -0.004417   0.559810  -0.026642  -0.029992
    17  H    0.000065  -0.000231  -0.004267  -0.026642   0.548437  -0.029754
    18  H    0.000019   0.003293   0.005325  -0.029992  -0.029754   0.553896
    19  H   -0.000035   0.000028  -0.003726   0.003556   0.000129  -0.000554
    20  H   -0.000219   0.003719   0.005609  -0.000276  -0.000029   0.003136
    21  H   -0.000014  -0.000023  -0.000056  -0.000003   0.000002  -0.000002
    22  H    0.001202   0.000120  -0.000110  -0.000001   0.000001  -0.000004
    23  H    0.000006  -0.000000  -0.000063   0.000006   0.000000  -0.000001
              19         20         21         22         23
     1  C    0.002674   0.012952  -0.004676   0.009904   0.001940
     2  C   -0.064612  -0.075190   0.031510  -0.011940   0.006179
     3  C    0.002773  -0.019066   0.001770  -0.000802   0.000031
     4  C    0.440224   0.400374  -0.069334  -0.028929  -0.004950
     5  C   -0.075445  -0.024939   0.352158   0.471425   0.009229
     6  C   -0.006633   0.012891   0.036283  -0.173151   0.157012
     7  C    0.012256   0.001980  -0.032447   0.101160   0.130017
     8  C    0.002446   0.002293  -0.007921   0.001216  -0.039508
     9  N    0.000047  -0.000006  -0.000051   0.000240   0.001781
    10  C   -0.006837  -0.000742   0.012228  -0.058094   0.037541
    11  N    0.000059  -0.000007  -0.000039   0.008413  -0.000070
    12  H   -0.000127   0.000089   0.000001  -0.000068   0.000001
    13  H   -0.000035  -0.000219  -0.000014   0.001202   0.000006
    14  H    0.000028   0.003719  -0.000023   0.000120  -0.000000
    15  H   -0.003726   0.005609  -0.000056  -0.000110  -0.000063
    16  H    0.003556  -0.000276  -0.000003  -0.000001   0.000006
    17  H    0.000129  -0.000029   0.000002   0.000001   0.000000
    18  H   -0.000554   0.003136  -0.000002  -0.000004  -0.000001
    19  H    0.583193  -0.031441  -0.003373   0.004576   0.002311
    20  H   -0.031441   0.566819  -0.004612  -0.002754   0.000031
    21  H   -0.003373  -0.004612   0.544044  -0.028098  -0.002142
    22  H    0.004576  -0.002754  -0.028098   0.539247   0.004041
    23  H    0.002311   0.000031  -0.002142   0.004041   0.541554
 Mulliken charges:
               1
     1  C   -0.569622
     2  C    0.272822
     3  C   -0.571798
     4  C   -0.411403
     5  C   -0.235471
     6  C    0.299684
     7  C    0.700807
     8  C   -0.016065
     9  N   -0.486521
    10  C   -0.294151
    11  N   -0.480099
    12  H    0.149182
    13  H    0.147355
    14  H    0.148034
    15  H    0.128521
    16  H    0.140977
    17  H    0.149591
    18  H    0.148001
    19  H    0.138510
    20  H    0.149389
    21  H    0.174796
    22  H    0.162406
    23  H    0.155054
 Sum of Mulliken charges =  -0.00000
 Mulliken charges with hydrogens summed into heavy atoms:
               1
     1  C   -0.125051
     2  C    0.401343
     3  C   -0.133228
     4  C   -0.123504
     5  C    0.101731
     6  C    0.454739
     7  C    0.700807
     8  C   -0.016065
     9  N   -0.486521
    10  C   -0.294151
    11  N   -0.480099
 Electronic spatial extent (au):  <R**2>=           2366.6414
 Charge=             -0.0000 electrons
 Dipole moment (field-independent basis, Debye):
    X=              4.9019    Y=             -1.5018    Z=              2.5138  Tot=              5.7099
 Quadrupole moment (field-independent basis, Debye-Ang):
   XX=            -83.2332   YY=            -78.9446   ZZ=            -66.2160
   XY=             -1.2678   XZ=             -4.7183   YZ=             -2.1967
 Traceless Quadrupole moment (field-independent basis, Debye-Ang):
   XX=             -7.1020   YY=             -2.8133   ZZ=              9.9153
   XY=             -1.2678   XZ=             -4.7183   YZ=             -2.1967
 Octapole moment (field-independent basis, Debye-Ang**2):
  XXX=             72.9504  YYY=            -22.5472  ZZZ=              5.6651  XYY=             37.0928
  XXY=             21.0528  XXZ=             18.4189  XZZ=              8.9515  YZZ=              1.9743
  YYZ=              9.6855  XYZ=              8.4503
 Hexadecapole moment (field-independent basis, Debye-Ang**3):
 XXXX=          -2571.5118 YYYY=           -748.6726 ZZZZ=           -360.5739 XXXY=            -95.9412
 XXXZ=            -66.5918 YYYX=             22.4499 YYYZ=             -6.5187 ZZZX=             -9.8156
 ZZZY=             -4.3502 XXYY=           -606.8637 XXZZ=           -461.7487 YYZZ=           -178.8285
 XXYZ=            -30.8561 YYXZ=            -21.4975 ZZXY=             -7.6217
 N-N= 5.399311796814D+02 E-N=-2.143123446944D+03  KE= 4.551344217961D+02
 Unable to Open any file for archive entry.
 1\1\GINC-N2\SP\RB3LYP TD-FC\6-31+G(d,p)\C9H12N2\HPCMGAC13\27-Aug-2025\
 0\\# td=(50-50,nstates=3) b3lyp/6-31+g(d,p) geom=connectivity\\Title C
 ard Required\\0,1\C,0,-2.221074,-1.25234,-0.85352\C,0,-2.151231,0.2237
 92,-0.4307\C,0,-3.481899,0.935349,-0.721413\C,0,-1.777215,0.393802,1.0
 55876\C,0,-0.372968,-0.115881,1.457131\C,0,0.731803,0.653747,0.811827\
 C,0,1.791668,0.13594,0.142513\C,0,2.802275,0.989703,-0.420488\N,0,3.61
 4134,1.688785,-0.873115\C,0,1.969343,-1.279668,-0.038128\N,0,2.10887,-
 2.425311,-0.182575\H,0,-2.501368,-1.338962,-1.908621\H,0,-1.266071,-1.
 772056,-0.728402\H,0,-2.975562,-1.789529,-0.264677\H,0,-1.372729,0.713
 378,-1.035612\H,0,-3.432817,2.000416,-0.467858\H,0,-3.747695,0.855144,
 -1.780832\H,0,-4.299028,0.490106,-0.139793\H,0,-1.853177,1.456021,1.32
 5924\H,0,-2.515618,-0.133031,1.67457\H,0,-0.265274,0.01463,2.544681\H,
 0,-0.265623,-1.186066,1.259331\H,0,0.68971,1.738967,0.892534\\Version=
 ES64L-G16RevC.02\State=1-A\HF=-459.6739223\RMSD=1.750e-09\PG=C01 [X(C9
 H12N2)]\\@
 The archive entry for this job was punched.


 I take a simple view of life: keep your eyes open and get on with it.
 -- Laurence Olivier
 Job cpu time:       0 days  0 hours 23 minutes 55.3 seconds.
 Elapsed time:       0 days  0 hours  1 minutes 32.0 seconds.
 File lengths (MBytes):  RWF=    463 Int=      0 D2E=      0 Chk=     20 Scr=      2
 Normal termination of Gaussian 16 at Wed Aug 27 20:40:15 2025.
