 Entering Gaussian System, Link 0=g16
 Input=M375e.gjf
 Output=M375e.log
 Initial command:
 /hpc/softwares/Gaussian/g16/l1.exe "/hpc/home/hpcmgac13/pbs.13580.admin1.x8z/Gau-3370891.inp" -scrdir="/hpc/home/hpcmgac13/pbs.13580.admin1.x8z/"
 Default linda workers: n2
 Default is to use  16 SMP processors on each worker.
 Entering Link 1 = /hpc/softwares/Gaussian/g16/l1.exe PID=   3370892.
  
 Copyright (c) 1988-2021, Gaussian, Inc.  All Rights Reserved.
  
 This is part of the Gaussian(R) 16 program.  It is based on
 the Gaussian(R) 09 system (copyright 2009, Gaussian, Inc.),
 the Gaussian(R) 03 system (copyright 2003, Gaussian, Inc.),
 the Gaussian(R) 98 system (copyright 1998, Gaussian, Inc.),
 the Gaussian(R) 94 system (copyright 1995, Gaussian, Inc.),
 the Gaussian 92(TM) system (copyright 1992, Gaussian, Inc.),
 the Gaussian 90(TM) system (copyright 1990, Gaussian, Inc.),
 the Gaussian 88(TM) system (copyright 1988, Gaussian, Inc.),
 the Gaussian 86(TM) system (copyright 1986, Carnegie Mellon
 University), and the Gaussian 82(TM) system (copyright 1983,
 Carnegie Mellon University). Gaussian is a federally registered
 trademark of Gaussian, Inc.
  
 This software contains proprietary and confidential information,
 including trade secrets, belonging to Gaussian, Inc.
  
 This software is provided under written license and may be
 used, copied, transmitted, or stored only in accord with that
 written license.
  
 The following legend is applicable only to US Government
 contracts under FAR:
  
                    RESTRICTED RIGHTS LEGEND
  
 Use, reproduction and disclosure by the US Government is
 subject to restrictions as set forth in subparagraphs (a)
 and (c) of the Commercial Computer Software - Restricted
 Rights clause in FAR 52.227-19.
  
 Gaussian, Inc.
 340 Quinnipiac St., Bldg. 40, Wallingford CT 06492
  
  
 ---------------------------------------------------------------
 Warning -- This program may not be used in any manner that
 competes with the business of Gaussian, Inc. or will provide
 assistance to any competitor of Gaussian, Inc.  The licensee
 of this program is prohibited from giving any competitor of
 Gaussian, Inc. access to this program.  By using this program,
 the user acknowledges that Gaussian, Inc. is engaged in the
 business of creating and licensing software in the field of
 computational chemistry and represents and warrants to the
 licensee that it is not a competitor of Gaussian, Inc. and that
 it will not use this program in any manner prohibited above.
 ---------------------------------------------------------------
  

 Cite this work as:
 Gaussian 16, Revision C.02,
 M. J. Frisch, G. W. Trucks, H. B. Schlegel, G. E. Scuseria, 
 M. A. Robb, J. R. Cheeseman, G. Scalmani, V. Barone, 
 G. A. Petersson, H. Nakatsuji, X. Li, M. Caricato, A. V. Marenich, 
 J. Bloino, B. G. Janesko, R. Gomperts, B. Mennucci, H. P. Hratchian, 
 J. V. Ortiz, A. F. Izmaylov, J. L. Sonnenberg, D. Williams-Young, 
 F. Ding, F. Lipparini, F. Egidi, J. Goings, B. Peng, A. Petrone, 
 T. Henderson, D. Ranasinghe, V. G. Zakrzewski, J. Gao, N. Rega, 
 G. Zheng, W. Liang, M. Hada, M. Ehara, K. Toyota, R. Fukuda, 
 J. Hasegawa, M. Ishida, T. Nakajima, Y. Honda, O. Kitao, H. Nakai, 
 T. Vreven, K. Throssell, J. A. Montgomery, Jr., J. E. Peralta, 
 F. Ogliaro, M. J. Bearpark, J. J. Heyd, E. N. Brothers, K. N. Kudin, 
 V. N. Staroverov, T. A. Keith, R. Kobayashi, J. Normand, 
 K. Raghavachari, A. P. Rendell, J. C. Burant, S. S. Iyengar, 
 J. Tomasi, M. Cossi, J. M. Millam, M. Klene, C. Adamo, R. Cammi, 
 J. W. Ochterski, R. L. Martin, K. Morokuma, O. Farkas, 
 J. B. Foresman, and D. J. Fox, Gaussian, Inc., Wallingford CT, 2019.
 
 ******************************************
 Gaussian 16:  ES64L-G16RevC.02  7-Dec-2021
                27-Aug-2025 
 ******************************************
 SetLPE:    new flags="-opt 'Tsnet.Node.lindarsharg: ssh'  -nodelist 'n2.head.cm.mguif.local' -env GAUSS_MDEF=2147483648 -env GAUSS_EXEDIR="/hpc/softwares/Gaussian/g16/bsd:/hpc/softwares/Gaussian/g16""
 Will use up to    1 processors via Linda.
 ----------------------------------------------------------
 # td=(50-50,nstates=3) b3lyp/6-31+g(d,p) geom=connectivity
 ----------------------------------------------------------
 1/38=1,57=2,172=1/1;
 2/12=2,17=6,18=5,40=1/2;
 3/5=1,6=6,7=111,11=9,25=1,30=1,74=-5/1,2,3,8;
 4//1;
 5/5=2,38=5/2;
 8/6=1,10=2,108=3/1;
 9/41=3,42=1,48=2,70=2/14;
 6/7=2,8=2,9=2,10=2/1;
 99/5=1,9=1/99;
 -------------------
 Title Card Required
 -------------------
 Symbolic Z-matrix:
 Charge =  0 Multiplicity = 1
 C                     4.27127   1.29326   0.00056 
 N                     2.99702   0.58965   0.00031 
 C                     2.51108   0.04347   1.18571 
 C                     1.5219   -0.8676    1.23469 
 C                     0.80832  -1.38716  -0.00062 
 C                    -0.68149  -1.01461  -0.00033 
 C                    -1.67266  -2.00404  -0.00007 
 C                    -3.03127  -1.66913   0.00026 
 C                    -3.42405  -0.33369   0.00034 
 C                    -2.43777   0.67013   0.00006 
 C                    -2.82542   2.05316   0.00009 
 N                    -3.14061   3.17382   0.00028 
 C                    -1.07692   0.32748  -0.00025 
 C                     1.52177  -0.86632  -1.23548 
 C                     2.51095   0.04467  -1.18571 
 H                     4.33517   1.93274   0.8849 
 H                     5.13155   0.6071    0.00023 
 H                     4.33507   1.93351  -0.88322 
 H                     2.98533   0.41376   2.08916 
 H                     1.19227  -1.22357   2.20577 
 H                     0.8367   -2.48896  -0.00123 
 H                    -1.37824  -3.05093  -0.00014 
 H                    -3.78333  -2.45242   0.00045 
 H                    -4.47368  -0.05986   0.00058 
 H                    -0.32723   1.11212  -0.00046 
 H                     1.19201  -1.22135  -2.20686 
 H                     2.9852    0.41592  -2.08876 
 
                          Input orientation:                          
 ---------------------------------------------------------------------
 Center     Atomic      Atomic             Coordinates (Angstroms)
 Number     Number       Type             X           Y           Z
 ---------------------------------------------------------------------
      1          6           0        4.271269    1.293255    0.000556
      2          7           0        2.997022    0.589649    0.000308
      3          6           0        2.511077    0.043469    1.185708
      4          6           0        1.521899   -0.867600    1.234693
      5          6           0        0.808324   -1.387161   -0.000616
      6          6           0       -0.681494   -1.014614   -0.000333
      7          6           0       -1.672660   -2.004042   -0.000072
      8          6           0       -3.031271   -1.669131    0.000260
      9          6           0       -3.424047   -0.333689    0.000340
     10          6           0       -2.437765    0.670131    0.000063
     11          6           0       -2.825416    2.053157    0.000087
     12          7           0       -3.140610    3.173820    0.000280
     13          6           0       -1.076922    0.327479   -0.000252
     14          6           0        1.521770   -0.866316   -1.235478
     15          6           0        2.510954    0.044668   -1.185712
     16          1           0        4.335167    1.932737    0.884897
     17          1           0        5.131546    0.607097    0.000225
     18          1           0        4.335071    1.933514   -0.883221
     19          1           0        2.985327    0.413756    2.089161
     20          1           0        1.192271   -1.223568    2.205769
     21          1           0        0.836695   -2.488960   -0.001228
     22          1           0       -1.378237   -3.050930   -0.000140
     23          1           0       -3.783334   -2.452415    0.000450
     24          1           0       -4.473679   -0.059855    0.000583
     25          1           0       -0.327233    1.112117   -0.000462
     26          1           0        1.192014   -1.221345   -2.206857
     27          1           0        2.985195    0.415920   -2.088764
 ---------------------------------------------------------------------
                    Distance matrix (angstroms):
                    1          2          3          4          5
     1  C    0.000000
     2  N    1.455598   0.000000
     3  C    2.462687   1.392705   0.000000
     4  C    3.708291   2.413145   1.345704   0.000000
     5  C    4.379112   2.949267   2.520602   1.518263   0.000000
     6  C    5.464076   4.013121   3.566335   2.530186   1.535692
     7  C    6.797239   5.341644   4.806457   3.608511   2.556526
     8  C    7.880534   6.437577   5.920803   4.785147   3.849935
     9  C    7.865420   6.487116   6.064078   5.125531   4.361510
    10  C    6.737909   5.435383   5.127328   4.423558   3.843117
    11  C    7.137254   6.003552   5.824320   5.380913   5.003984
    12  N    7.646730   6.659464   6.568554   6.292523   6.032962
    13  C    5.434691   4.082371   3.789578   3.115634   2.548361
    14  C    3.708271   2.413166   2.769220   2.470171   1.518278
    15  C    2.462704   1.392806   2.371420   2.769264   2.520622
    16  H    1.093197   2.092132   2.643317   3.984811   4.923868
    17  H    1.100404   2.134595   2.930854   4.090011   4.761020
    18  H    1.093190   2.092121   3.343605   4.499526   4.923801
    19  H    2.605655   2.096278   1.085474   2.124526   3.514230
    20  H    4.547262   3.377712   2.094077   1.085521   2.245509
    21  H    5.108958   3.760964   3.259688   2.150770   1.102164
    22  H    7.126630   5.691811   5.109629   3.834388   2.747576
    23  H    8.882943   7.431513   6.874146   5.672785   4.713607
    24  H    8.849012   7.498882   7.085338   6.174337   5.446219
    25  H    4.602068   3.365062   3.256534   2.977277   2.745156
    26  H    4.547274   3.377770   3.853463   3.475374   2.245487
    27  H    2.605563   2.096317   3.329516   3.851496   3.514289
                    6          7          8          9         10
     6  C    0.000000
     7  C    1.400492   0.000000
     8  C    2.439230   1.399282   0.000000
     9  C    2.825820   2.420214   1.392005   0.000000
    10  C    2.433691   2.781472   2.413379   1.407269   0.000000
    11  C    3.742676   4.217785   3.727976   2.460771   1.436327
    12  N    4.856978   5.381926   4.844185   3.518942   2.600471
    13  C    1.399134   2.406428   2.793910   2.438471   1.403319
    14  C    2.530207   3.609021   4.785577   5.125626   4.423251
    15  C    3.566360   4.806826   5.921140   6.064166   5.127093
    16  H    5.885355   7.237084   8.247451   8.131699   6.946201
    17  H    6.035013   7.288022   8.474243   8.607163   7.569573
    18  H    5.885310   7.237205   8.247581   8.131716   6.946052
    19  H    4.455536   5.648671   6.700849   6.782472   5.817215
    20  H    2.901990   3.699014   4.785510   5.192898   4.650634
    21  H    2.116269   2.555780   3.953895   4.774842   4.549939
    22  H    2.152216   1.087501   2.154505   3.401285   3.868966
    23  H    3.418872   2.157773   1.085879   2.148973   3.400125
    24  H    3.910528   3.409629   2.161090   1.084764   2.162828
    25  H    2.156035   3.394204   3.879067   3.417691   2.156316
    26  H    2.901985   3.699848   4.786232   5.193041   4.650105
    27  H    4.455623   5.649289   6.701442   6.782673   5.816899
                   11         12         13         14         15
    11  C    0.000000
    12  N    1.164145   0.000000
    13  C    2.456664   3.515745   0.000000
    14  C    5.380332   6.291866   3.115145   0.000000
    15  C    5.823830   6.567979   3.789215   1.345680   0.000000
    16  H    7.216047   7.629553   5.714110   4.499543   3.343648
    17  H    8.087295   8.661214   6.214762   4.090036   2.930917
    18  H    7.215755   7.629203   5.713900   3.984695   2.643226
    19  H    6.388787   7.036226   4.568912   3.851468   3.329572
    20  H    5.634161   6.555537   3.524417   3.475396   3.853504
    21  H    5.834542   6.919974   3.405034   2.150738   3.259665
    22  H    5.305283   6.469426   3.391819   3.835184   5.110197
    23  H    4.606277   5.662827   3.879752   5.673390   6.874625
    24  H    2.679849   3.497675   3.418770   6.174434   7.085430
    25  H    2.669546   3.487938   1.085214   2.976285   3.255698
    26  H    5.633179   6.554431   3.523639   1.085524   2.094070
    27  H    6.388039   7.035311   4.568424   2.124580   1.085466
                   16         17         18         19         20
    16  H    0.000000
    17  H    1.781624   0.000000
    18  H    1.768118   1.781637   0.000000
    19  H    2.362123   3.001215   3.600907   0.000000
    20  H    4.645940   4.871719   5.420906   2.430942   0.000000
    21  H    5.707533   5.294461   5.707436   4.172782   2.568752
    22  H    7.633034   7.467157   7.633243   5.950623   3.848740
    23  H    9.269405   9.425269   9.269614   7.641493   5.579439
    24  H    9.074591   9.628353   9.074619   7.760363   6.190320
    25  H    4.816145   5.482090   4.815707   3.978352   3.554120
    26  H    5.420940   4.871789   4.645854   4.934095   4.412627
    27  H    3.600808   3.001207   2.361904   4.177926   4.934117
                   21         22         23         24         25
    21  H    0.000000
    22  H    2.285112   0.000000
    23  H    4.620174   2.478450   0.000000
    24  H    5.839574   4.304450   2.490165   0.000000
    25  H    3.784506   4.293666   4.964929   4.308890   0.000000
    26  H    2.568638   3.850087   5.580486   6.190471   3.552652
    27  H    4.172791   5.951549   7.642326   7.760576   3.977169
                   26         27
    26  H    0.000000
    27  H    2.431066   0.000000
 Stoichiometry    C13H12N2
 Framework group  C1[X(C13H12N2)]
 Deg. of freedom    75
 Full point group                 C1      NOp   1
 Largest Abelian subgroup         C1      NOp   1
 Largest concise Abelian subgroup C1      NOp   1
                         Standard orientation:                         
 ---------------------------------------------------------------------
 Center     Atomic      Atomic             Coordinates (Angstroms)
 Number     Number       Type             X           Y           Z
 ---------------------------------------------------------------------
      1          6           0       -4.271269    1.293255   -0.000556
      2          7           0       -2.997022    0.589649   -0.000308
      3          6           0       -2.511077    0.043469   -1.185708
      4          6           0       -1.521899   -0.867600   -1.234693
      5          6           0       -0.808324   -1.387161    0.000616
      6          6           0        0.681494   -1.014614    0.000333
      7          6           0        1.672660   -2.004042    0.000072
      8          6           0        3.031271   -1.669131   -0.000260
      9          6           0        3.424047   -0.333689   -0.000340
     10          6           0        2.437765    0.670131   -0.000063
     11          6           0        2.825416    2.053157   -0.000087
     12          7           0        3.140610    3.173820   -0.000280
     13          6           0        1.076922    0.327479    0.000252
     14          6           0       -1.521770   -0.866316    1.235478
     15          6           0       -2.510954    0.044668    1.185712
     16          1           0       -4.335167    1.932737   -0.884897
     17          1           0       -5.131546    0.607097   -0.000225
     18          1           0       -4.335071    1.933514    0.883221
     19          1           0       -2.985327    0.413756   -2.089161
     20          1           0       -1.192271   -1.223568   -2.205769
     21          1           0       -0.836695   -2.488960    0.001228
     22          1           0        1.378237   -3.050930    0.000140
     23          1           0        3.783334   -2.452415   -0.000450
     24          1           0        4.473679   -0.059855   -0.000583
     25          1           0        0.327233    1.112117    0.000462
     26          1           0       -1.192014   -1.221345    2.206857
     27          1           0       -2.985195    0.415920    2.088764
 ---------------------------------------------------------------------
 Rotational constants (GHZ):           1.0455185           0.3656951           0.3000575
 Standard basis: 6-31+G(d,p) (6D, 7F)
 There are   345 symmetry adapted cartesian basis functions of A   symmetry.
 There are   345 symmetry adapted basis functions of A   symmetry.
   345 basis functions,   564 primitive gaussians,   345 cartesian basis functions
    52 alpha electrons       52 beta electrons
       nuclear repulsion energy       874.1355362051 Hartrees.
 NAtoms=   27 NActive=   27 NUniq=   27 SFac= 1.00D+00 NAtFMM=   60 NAOKFM=F Big=F
 Integral buffers will be    131072 words long.
 Regular integral format.
 Two-electron integral symmetry is turned on.
 One-electron integrals computed using PRISM.
 NBasis=   345 RedAO= T EigKep=  1.59D-06  NBF=   345
 NBsUse=   345 1.00D-06 EigRej= -1.00D+00 NBFU=   345
 ExpMin= 4.38D-02 ExpMax= 4.17D+03 ExpMxC= 6.27D+02 IAcc=3 IRadAn=         5 AccDes= 0.00D+00
 Harris functional with IExCor=  402 and IRadAn=       5 diagonalized for initial guess.
 HarFok:  IExCor=  402 AccDes= 0.00D+00 IRadAn=         5 IDoV= 1 UseB2=F ITyADJ=14
 ICtDFT=  3500011 ScaDFX=  1.000000  1.000000  1.000000  1.000000
 FoFCou: FMM=F IPFlag=           0 FMFlag=      100000 FMFlg1=           0
         NFxFlg=           0 DoJE=T BraDBF=F KetDBF=T FulRan=T
         wScrn=  0.000000 ICntrl=       500 IOpCl=  0 I1Cent=   200000004 NGrid=           0
         NMat0=    1 NMatS0=      1 NMatT0=    0 NMatD0=    1 NMtDS0=    0 NMtDT0=    0
 Petite list used in FoFCou.
 Requested convergence on RMS density matrix=1.00D-08 within 128 cycles.
 Requested convergence on MAX density matrix=1.00D-06.
 Requested convergence on             energy=1.00D-06.
 No special actions if energy rises.
 SCF Done:  E(RB3LYP) =  -612.103906077     A.U. after   17 cycles
            NFock= 17  Conv=0.26D-08     -V/T= 2.0098
 DoSCS=F DFT=T ScalE2(SS,OS)=  1.000000  1.000000
 ExpMin= 4.38D-02 ExpMax= 4.17D+03 ExpMxC= 6.27D+02 IAcc=3 IRadAn=         5 AccDes= 0.00D+00
 HarFok:  IExCor=  205 AccDes= 0.00D+00 IRadAn=         5 IDoV=-2 UseB2=F ITyADJ=14
 ICtDFT= 12500011 ScaDFX=  1.000000  1.000000  1.000000  1.000000
 Range of M.O.s used for correlation:    16   345
 NBasis=   345 NAE=    52 NBE=    52 NFC=    15 NFV=     0
 NROrb=    330 NOA=    37 NOB=    37 NVA=   293 NVB=   293

 **** Warning!!: The largest alpha MO coefficient is  0.20440412D+03

 Orbital symmetries:
       Occupied  (A) (A) (A) (A) (A) (A) (A) (A) (A) (A) (A) (A)
                 (A) (A) (A) (A) (A) (A) (A) (A) (A) (A) (A) (A)
                 (A) (A) (A) (A) (A) (A) (A) (A) (A) (A) (A) (A)
                 (A) (A) (A) (A) (A) (A) (A) (A) (A) (A) (A) (A)
                 (A) (A) (A) (A)
       Virtual   (A) (A) (A) (A) (A) (A) (A) (A) (A) (A) (A) (A)
                 (A) (A) (A) (A) (A) (A) (A) (A) (A) (A) (A) (A)
                 (A) (A) (A) (A) (A) (A) (A) (A) (A) (A) (A) (A)
                 (A) (A) (A) (A) (A) (A) (A) (A) (A) (A) (A) (A)
                 (A) (A) (A) (A) (A) (A) (A) (A) (A) (A) (A) (A)
                 (A) (A) (A) (A) (A) (A) (A) (A) (A) (A) (A) (A)
                 (A) (A) (A) (A) (A) (A) (A) (A) (A) (A) (A) (A)
                 (A) (A) (A) (A) (A) (A) (A) (A) (A) (A) (A) (A)
                 (A) (A) (A) (A) (A) (A) (A) (A) (A) (A) (A) (A)
                 (A) (A) (A) (A) (A) (A) (A) (A) (A) (A) (A) (A)
                 (A) (A) (A) (A) (A) (A) (A) (A) (A) (A) (A) (A)
                 (A) (A) (A) (A) (A) (A) (A) (A) (A) (A) (A) (A)
                 (A) (A) (A) (A) (A) (A) (A) (A) (A) (A) (A) (A)
                 (A) (A) (A) (A) (A) (A) (A) (A) (A) (A) (A) (A)
                 (A) (A) (A) (A) (A) (A) (A) (A) (A) (A) (A) (A)
                 (A) (A) (A) (A) (A) (A) (A) (A) (A) (A) (A) (A)
                 (A) (A) (A) (A) (A) (A) (A) (A) (A) (A) (A) (A)
                 (A) (A) (A) (A) (A) (A) (A) (A) (A) (A) (A) (A)
                 (A) (A) (A) (A) (A) (A) (A) (A) (A) (A) (A) (A)
                 (A) (A) (A) (A) (A) (A) (A) (A) (A) (A) (A) (A)
                 (A) (A) (A) (A) (A) (A) (A) (A) (A) (A) (A) (A)
                 (A) (A) (A) (A) (A) (A) (A) (A) (A) (A) (A) (A)
                 (A) (A) (A) (A) (A) (A) (A) (A) (A) (A) (A) (A)
                 (A) (A) (A) (A) (A) (A) (A) (A) (A) (A) (A) (A)
                 (A) (A) (A) (A) (A)
    24 initial guesses have been made.
 Convergence on wavefunction:    0.001000000000000
 Iteration     1 Dimension    24 NMult     0 NNew     24
 CISAX will form    24 AO SS matrices at one time.
 New state      1 was old state      2
 New state      2 was old state      1
 New state      3 was old state      4
 New state      4 was old state      3
 New state      5 was old state      8
 New state      6 was old state     14
 New state      7 was old state      6
 New state      8 was old state     12
 New state      9 was old state      5
 New state     10 was old state     24
 New state     11 was old state     10
 New state     12 was old state      9
 Vector   6 SDiff=3.63D-02 TDiff=5.25D+00 assumed to be singlet.
 Vector  12 SDiff=3.84D-02 TDiff=4.72D+00 assumed to be singlet.
 Iteration     2 Dimension    36 NMult    24 NNew     12
 New state      6 was old state      9
 Iteration     3 Dimension    48 NMult    36 NNew     12
 Iteration     4 Dimension    60 NMult    48 NNew     12
 No map to state      4
 New state      5 was old state      4
 Iteration     5 Dimension    68 NMult    60 NNew      8
 Iteration     6 Dimension    72 NMult    68 NNew      4
 Iteration     7 Dimension    74 NMult    72 NNew      2
 Iteration     8 Dimension    76 NMult    74 NNew      2
 Iteration     9 Dimension    78 NMult    76 NNew      2
 Iteration    10 Dimension    80 NMult    78 NNew      2
 ***********************************************************************
 Excited states from <AA,BB:AA,BB> singles matrix:
 ***********************************************************************
 
 Ground to excited state transition densities written to RWF  633
 Ground to excited state transition electric dipole moments (Au):
       state          X           Y           Z        Dip. S.      Osc.
         1         0.0000     -0.0000      0.0000      0.0000      0.0000
         2         0.0003     -0.0001     -0.1074      0.0115      0.0009
         3        -0.0000      0.0000     -0.0000      0.0000      0.0000
         4        -0.0000      0.0000      0.0000      0.0000      0.0000
         5        -0.0003      0.0001      0.1046      0.0109      0.0010
         6        -0.5440     -0.1443      0.0001      0.3168      0.0338
 Ground to excited state transition velocity dipole moments (Au):
       state          X           Y           Z        Dip. S.      Osc.
         1        -0.0000     -0.0000     -0.0000      0.0000      0.0000
         2        -0.0000      0.0000      0.0131      0.0002      0.0010
         3         0.0000     -0.0000      0.0000      0.0000      0.0000
         4         0.0000      0.0000     -0.0000      0.0000      0.0000
         5         0.0000     -0.0000     -0.0137      0.0002      0.0009
         6         0.0829      0.0205     -0.0000      0.0073      0.0304
 Ground to excited state transition magnetic dipole moments (Au):
       state          X           Y           Z
         1        -0.0000     -0.0000     -0.0000
         2         0.3301      0.5364     -0.0004
         3        -0.0000      0.0000      0.0000
         4         0.0000     -0.0000      0.0000
         5        -0.5266     -0.2530      0.0003
         6         0.0000     -0.0002     -0.0945
 Ground to excited state transition velocity quadrupole moments (Au):
       state          XX          YY          ZZ          XY          XZ          YZ
         1        -0.0000     -0.0000      0.0000     -0.0000      0.0000      0.0000
         2         0.0001     -0.0001      0.0000      0.0000     -0.0106     -0.0231
         3        -0.0000      0.0000     -0.0000      0.0000     -0.0000     -0.0000
         4         0.0000      0.0000      0.0000      0.0000     -0.0000     -0.0000
         5        -0.0001      0.0001     -0.0001      0.0001      0.0560      0.0987
         6        -0.6584      0.1662      0.0103     -0.2920      0.0001     -0.0001
 <0|del|b> * <b|rxdel|0> + <0|del|b> * <b|delr+rdel|0>
 Rotatory Strengths (R) in cgs (10**-40 erg-esu-cm/Gauss)
       state          XX          YY          ZZ    R(velocity)    E-M Angle
         1         0.0000     -0.0000      0.0000      0.0000       90.00
         2         0.0113     -0.0467     -0.0111     -0.0155       90.00
         3        -0.0000     -0.0000     -0.0000     -0.0000       90.00
         4        -0.0000      0.0000      0.0000     -0.0000       90.00
         5        -0.0047     -0.0526     -0.0573     -0.0382       90.00
         6        -0.0029     -0.0162      0.0188     -0.0001       90.00
 1/2[<0|r|b>*<b|rxdel|0> + (<0|rxdel|b>*<b|r|0>)*]
 Rotatory Strengths (R) in cgs (10**-40 erg-esu-cm/Gauss)
       state          XX          YY          ZZ     R(length)
         1         0.0000     -0.0000      0.0000      0.0000
         2        -0.0654      0.0419     -0.0281     -0.0172
         3        -0.0000     -0.0000      0.0000     -0.0000
         4         0.0000      0.0000     -0.0000      0.0000
         5        -0.1024      0.0193     -0.0255     -0.0362
         6         0.0089     -0.0158      0.0054     -0.0005
  1/2[<0|del|b>*<b|r|0> + (<0|r|b>*<b|del|0>)*] (Au)
       state          X           Y           Z        Dip. S.   Osc.(frdel)
         1        -0.0000      0.0000     -0.0000      0.0000      0.0000
         2        -0.0000     -0.0000     -0.0014      0.0014      0.0009
         3        -0.0000     -0.0000     -0.0000      0.0000      0.0000
         4        -0.0000      0.0000     -0.0000      0.0000      0.0000
         5        -0.0000     -0.0000     -0.0014      0.0014      0.0010
         6        -0.0451     -0.0030     -0.0000      0.0481      0.0320

 Excitation energies and oscillator strengths:
 
 Excited State   1:      Triplet-A      2.7905 eV  444.31 nm  f=0.0000  <S**2>=2.000
      52 -> 53         0.53958
      52 -> 54        -0.22840
      52 -> 56        -0.37525
 This state for optimization and/or second-order correction.
 Total Energy, E(TD-HF/TD-DFT) =  -612.001357446    
 Copying the excited state density for this state as the 1-particle RhoCI density.
 
 Excited State   2:      Singlet-A      3.1115 eV  398.47 nm  f=0.0009  <S**2>=0.000
      52 -> 53         0.70571
 
 Excited State   3:      Triplet-A      3.3828 eV  366.51 nm  f=0.0000  <S**2>=2.000
      52 -> 53         0.44069
      52 -> 54         0.41894
      52 -> 56         0.34584
 
 Excited State   4:      Triplet-A      3.4082 eV  363.79 nm  f=0.0000  <S**2>=2.000
      49 -> 54         0.16572
      50 -> 53         0.55281
      50 -> 54         0.11955
      51 -> 53         0.23614
      51 -> 54        -0.27785
 
 Excited State   5:      Singlet-A      3.7122 eV  333.99 nm  f=0.0010  <S**2>=0.000
      52 -> 54         0.70562
 
 Excited State   6:      Singlet-A      4.3577 eV  284.52 nm  f=0.0338  <S**2>=0.000
      52 -> 55         0.69183
 SavETr:  write IOETrn=   770 NScale= 10 NData=  16 NLR=1 NState=    6 LETran=     118.

 **********************************************************************

            Population analysis using the SCF Density.

 **********************************************************************

 Orbital symmetries:
       Occupied  (A) (A) (A) (A) (A) (A) (A) (A) (A) (A) (A) (A)
                 (A) (A) (A) (A) (A) (A) (A) (A) (A) (A) (A) (A)
                 (A) (A) (A) (A) (A) (A) (A) (A) (A) (A) (A) (A)
                 (A) (A) (A) (A) (A) (A) (A) (A) (A) (A) (A) (A)
                 (A) (A) (A) (A)
       Virtual   (A) (A) (A) (A) (A) (A) (A) (A) (A) (A) (A) (A)
                 (A) (A) (A) (A) (A) (A) (A) (A) (A) (A) (A) (A)
                 (A) (A) (A) (A) (A) (A) (A) (A) (A) (A) (A) (A)
                 (A) (A) (A) (A) (A) (A) (A) (A) (A) (A) (A) (A)
                 (A) (A) (A) (A) (A) (A) (A) (A) (A) (A) (A) (A)
                 (A) (A) (A) (A) (A) (A) (A) (A) (A) (A) (A) (A)
                 (A) (A) (A) (A) (A) (A) (A) (A) (A) (A) (A) (A)
                 (A) (A) (A) (A) (A) (A) (A) (A) (A) (A) (A) (A)
                 (A) (A) (A) (A) (A) (A) (A) (A) (A) (A) (A) (A)
                 (A) (A) (A) (A) (A) (A) (A) (A) (A) (A) (A) (A)
                 (A) (A) (A) (A) (A) (A) (A) (A) (A) (A) (A) (A)
                 (A) (A) (A) (A) (A) (A) (A) (A) (A) (A) (A) (A)
                 (A) (A) (A) (A) (A) (A) (A) (A) (A) (A) (A) (A)
                 (A) (A) (A) (A) (A) (A) (A) (A) (A) (A) (A) (A)
                 (A) (A) (A) (A) (A) (A) (A) (A) (A) (A) (A) (A)
                 (A) (A) (A) (A) (A) (A) (A) (A) (A) (A) (A) (A)
                 (A) (A) (A) (A) (A) (A) (A) (A) (A) (A) (A) (A)
                 (A) (A) (A) (A) (A) (A) (A) (A) (A) (A) (A) (A)
                 (A) (A) (A) (A) (A) (A) (A) (A) (A) (A) (A) (A)
                 (A) (A) (A) (A) (A) (A) (A) (A) (A) (A) (A) (A)
                 (A) (A) (A) (A) (A) (A) (A) (A) (A) (A) (A) (A)
                 (A) (A) (A) (A) (A) (A) (A) (A) (A) (A) (A) (A)
                 (A) (A) (A) (A) (A) (A) (A) (A) (A) (A) (A) (A)
                 (A) (A) (A) (A) (A) (A) (A) (A) (A) (A) (A) (A)
                 (A) (A) (A) (A) (A)
 The electronic state is 1-A.
 Alpha  occ. eigenvalues --  -14.38198 -14.34149 -10.24267 -10.23772 -10.23334
 Alpha  occ. eigenvalues --  -10.23206 -10.23205 -10.21981 -10.21762 -10.21658
 Alpha  occ. eigenvalues --  -10.21594 -10.21509 -10.21375 -10.19101 -10.19100
 Alpha  occ. eigenvalues --   -0.97666  -0.91111  -0.88184  -0.82781  -0.78393
 Alpha  occ. eigenvalues --   -0.77171  -0.76964  -0.72155  -0.65733  -0.65487
 Alpha  occ. eigenvalues --   -0.63464  -0.61317  -0.55417  -0.53309  -0.50696
 Alpha  occ. eigenvalues --   -0.49912  -0.49262  -0.48036  -0.46780  -0.45022
 Alpha  occ. eigenvalues --   -0.44117  -0.43720  -0.42933  -0.41685  -0.40367
 Alpha  occ. eigenvalues --   -0.39474  -0.38321  -0.36232  -0.35949  -0.35931
 Alpha  occ. eigenvalues --   -0.35249  -0.34100  -0.33349  -0.28501  -0.26778
 Alpha  occ. eigenvalues --   -0.26050  -0.19738
 Alpha virt. eigenvalues --   -0.05794  -0.03356  -0.00889  -0.00625   0.00114
 Alpha virt. eigenvalues --    0.01276   0.01544   0.01642   0.02474   0.03209
 Alpha virt. eigenvalues --    0.03336   0.03846   0.04022   0.04387   0.05473
 Alpha virt. eigenvalues --    0.05887   0.06413   0.06575   0.06755   0.07201
 Alpha virt. eigenvalues --    0.08045   0.08591   0.08615   0.08942   0.09546
 Alpha virt. eigenvalues --    0.10608   0.11170   0.11444   0.11903   0.12549
 Alpha virt. eigenvalues --    0.13189   0.13346   0.13527   0.13778   0.14785
 Alpha virt. eigenvalues --    0.15550   0.15749   0.16882   0.17031   0.17045
 Alpha virt. eigenvalues --    0.17358   0.17416   0.18165   0.18557   0.18886
 Alpha virt. eigenvalues --    0.19088   0.19778   0.19899   0.21097   0.21500
 Alpha virt. eigenvalues --    0.21516   0.22243   0.22571   0.22839   0.22938
 Alpha virt. eigenvalues --    0.23145   0.23427   0.24092   0.24389   0.25327
 Alpha virt. eigenvalues --    0.25711   0.25872   0.25916   0.26078   0.26794
 Alpha virt. eigenvalues --    0.26840   0.27025   0.27878   0.28930   0.29129
 Alpha virt. eigenvalues --    0.29164   0.29677   0.29739   0.30164   0.30718
 Alpha virt. eigenvalues --    0.31312   0.31692   0.32761   0.33127   0.34090
 Alpha virt. eigenvalues --    0.35316   0.35889   0.36834   0.37570   0.39778
 Alpha virt. eigenvalues --    0.40676   0.41374   0.43059   0.43709   0.47282
 Alpha virt. eigenvalues --    0.51410   0.51710   0.55443   0.60010   0.63445
 Alpha virt. eigenvalues --    0.64763   0.65006   0.66588   0.66669   0.68052
 Alpha virt. eigenvalues --    0.69721   0.69796   0.70694   0.71488   0.72095
 Alpha virt. eigenvalues --    0.72617   0.73442   0.74514   0.75181   0.76314
 Alpha virt. eigenvalues --    0.76636   0.79023   0.79436   0.79987   0.80813
 Alpha virt. eigenvalues --    0.81041   0.81426   0.81815   0.84693   0.86302
 Alpha virt. eigenvalues --    0.87929   0.88937   0.88972   0.89318   0.90299
 Alpha virt. eigenvalues --    0.91638   0.92606   0.93598   0.94413   0.95195
 Alpha virt. eigenvalues --    0.95486   0.97857   0.97913   0.99514   1.01712
 Alpha virt. eigenvalues --    1.02099   1.02110   1.02602   1.04884   1.06297
 Alpha virt. eigenvalues --    1.07538   1.08452   1.08868   1.13263   1.14215
 Alpha virt. eigenvalues --    1.14657   1.15305   1.18217   1.18596   1.20053
 Alpha virt. eigenvalues --    1.21114   1.22130   1.22994   1.25057   1.25465
 Alpha virt. eigenvalues --    1.26479   1.26988   1.29920   1.31653   1.32834
 Alpha virt. eigenvalues --    1.34115   1.35390   1.36667   1.37700   1.39394
 Alpha virt. eigenvalues --    1.39552   1.40633   1.42190   1.46515   1.48871
 Alpha virt. eigenvalues --    1.49169   1.53143   1.53236   1.57313   1.62059
 Alpha virt. eigenvalues --    1.62332   1.63174   1.70873   1.73683   1.74771
 Alpha virt. eigenvalues --    1.75822   1.78411   1.78475   1.79311   1.80511
 Alpha virt. eigenvalues --    1.82397   1.86927   1.89604   1.90222   1.90852
 Alpha virt. eigenvalues --    1.92222   1.93488   1.94565   1.94707   1.95917
 Alpha virt. eigenvalues --    1.96932   1.97812   1.99246   2.00041   2.00211
 Alpha virt. eigenvalues --    2.01970   2.02088   2.04085   2.04795   2.06265
 Alpha virt. eigenvalues --    2.06491   2.09543   2.10442   2.11010   2.14064
 Alpha virt. eigenvalues --    2.17779   2.18579   2.20205   2.21311   2.23970
 Alpha virt. eigenvalues --    2.27040   2.28727   2.30531   2.32422   2.33416
 Alpha virt. eigenvalues --    2.37964   2.38834   2.39322   2.41340   2.42062
 Alpha virt. eigenvalues --    2.45327   2.45757   2.47325   2.49009   2.49662
 Alpha virt. eigenvalues --    2.51543   2.52825   2.53389   2.54342   2.55801
 Alpha virt. eigenvalues --    2.56359   2.59225   2.61265   2.61841   2.63627
 Alpha virt. eigenvalues --    2.64123   2.65588   2.67861   2.68135   2.69486
 Alpha virt. eigenvalues --    2.69706   2.71440   2.73660   2.75182   2.77307
 Alpha virt. eigenvalues --    2.80836   2.82770   2.83830   2.85056   2.87992
 Alpha virt. eigenvalues --    2.92160   2.94847   3.02610   3.06672   3.07664
 Alpha virt. eigenvalues --    3.08819   3.18410   3.21430   3.23106   3.24041
 Alpha virt. eigenvalues --    3.26274   3.28389   3.30553   3.32655   3.36707
 Alpha virt. eigenvalues --    3.39652   3.43133   3.44178   3.46208   3.49788
 Alpha virt. eigenvalues --    3.55414   3.74842   3.83007   4.23199   4.26915
 Alpha virt. eigenvalues --    4.29573   4.33175   4.36744   4.39887   4.45585
 Alpha virt. eigenvalues --    4.46998   4.50546   4.52636   4.56917   4.61426
 Alpha virt. eigenvalues --    4.69391   4.83979   4.91644
          Condensed to atoms (all electrons):
               1          2          3          4          5          6
     1  C    5.225293   0.102707  -0.212072   0.158632  -0.411750   0.168225
     2  N    0.102707   6.963680   0.263011  -0.034221  -0.351206   0.053953
     3  C   -0.212072   0.263011   6.608247  -0.629892   0.075816   0.422303
     4  C    0.158632  -0.034221  -0.629892   7.689699  -1.518676   0.050203
     5  C   -0.411750  -0.351206   0.075816  -1.518676  15.995752  -5.506138
     6  C    0.168225   0.053953   0.422303   0.050203  -5.506138  20.431127
     7  C    0.000188  -0.075687   0.833489  -1.299087  -1.533689  -5.961149
     8  C    0.000948  -0.000446   0.022890  -0.010027  -0.100424  -0.722303
     9  C   -0.001268  -0.010518   0.011431  -0.020116   0.497746  -0.185511
    10  C    0.036390  -0.130700   0.412671  -0.158552  -4.735270   3.090736
    11  C    0.005097  -0.010463   0.055465  -0.045423  -0.871919  -0.388516
    12  N    0.000079  -0.000093  -0.000218   0.001625   0.005501   0.087612
    13  C   -0.058265   0.290949  -1.460911   1.507129   5.606926  -5.764404
    14  C    0.158724  -0.034104  -0.567315   0.932482  -1.521225   0.049768
    15  C   -0.211988   0.262967  -0.220343  -0.567315   0.075159   0.421116
    16  H    0.422174  -0.047763  -0.003490  -0.005094  -0.006583   0.001317
    17  H    0.395330  -0.080266  -0.005043   0.019053   0.012295  -0.009157
    18  H    0.422178  -0.047765  -0.000605  -0.005620  -0.006585   0.001307
    19  H   -0.024266  -0.084313   0.321162   0.019355   0.080610  -0.022080
    20  H   -0.001227   0.011713   0.021865   0.260240  -0.029821   0.018927
    21  H    0.003286   0.012147   0.026583   0.005719  -0.017608  -0.165641
    22  H    0.000082   0.000114   0.006733   0.004478  -0.091596   0.032780
    23  H    0.000001   0.000001  -0.000053   0.000271  -0.008584  -0.000493
    24  H    0.000000   0.000003  -0.000022  -0.000164   0.002271   0.007104
    25  H   -0.001214  -0.003105  -0.008690   0.031179  -0.026146   0.138352
    26  H   -0.001231   0.011711  -0.010038   0.022002  -0.029638   0.018674
    27  H   -0.024248  -0.084285   0.036175  -0.040397   0.080605  -0.022092
               7          8          9         10         11         12
     1  C    0.000188   0.000948  -0.001268   0.036390   0.005097   0.000079
     2  N   -0.075687  -0.000446  -0.010518  -0.130700  -0.010463  -0.000093
     3  C    0.833489   0.022890   0.011431   0.412671   0.055465  -0.000218
     4  C   -1.299087  -0.010027  -0.020116  -0.158552  -0.045423   0.001625
     5  C   -1.533689  -0.100424   0.497746  -4.735270  -0.871919   0.005501
     6  C   -5.961149  -0.722303  -0.185511   3.090736  -0.388516   0.087612
     7  C   29.116700   0.166620   0.723534   5.208016   1.955239  -0.024883
     8  C    0.166620   6.923536  -0.284928   1.611558  -0.021232   0.019712
     9  C    0.723534  -0.284928   8.916797  -0.319353   0.265396   0.012198
    10  C    5.208016   1.611558  -0.319353  23.892540  -1.060135   0.620533
    11  C    1.955239  -0.021232   0.265396  -1.060135  12.471122  -0.390430
    12  N   -0.024883   0.019712   0.012198   0.620533  -0.390430   7.345384
    13  C  -23.712159  -1.748284  -3.759070 -22.856078  -5.625090  -0.145328
    14  C   -1.301233  -0.010504  -0.020114  -0.157924  -0.045491   0.001628
    15  C    0.834862   0.022634   0.011688   0.412918   0.055651  -0.000219
    16  H   -0.000373  -0.000002   0.000019   0.001843   0.000036   0.000000
    17  H    0.000005   0.000025  -0.000007  -0.001540  -0.000041  -0.000000
    18  H   -0.000374  -0.000002   0.000019   0.001845   0.000036   0.000000
    19  H   -0.007211   0.000082  -0.000225   0.008173   0.000266  -0.000000
    20  H   -0.063159  -0.003731  -0.001514   0.016301   0.000580  -0.000001
    21  H    0.525751   0.029690   0.002071   0.091002   0.004467   0.000004
    22  H    0.229551   0.092570  -0.019355   0.040647   0.003529  -0.000011
    23  H    0.123576   0.246008  -0.021027  -0.011274  -0.005238   0.000034
    24  H   -0.003145  -0.051747   0.249946   0.053568  -0.043661   0.000151
    25  H    0.073768  -0.018774   0.049430   0.034254  -0.023787   0.000926
    26  H   -0.063199  -0.003727  -0.001512   0.016325   0.000583  -0.000001
    27  H   -0.007208   0.000083  -0.000226   0.008179   0.000265  -0.000000
              13         14         15         16         17         18
     1  C   -0.058265   0.158724  -0.211988   0.422174   0.395330   0.422178
     2  N    0.290949  -0.034104   0.262967  -0.047763  -0.080266  -0.047765
     3  C   -1.460911  -0.567315  -0.220343  -0.003490  -0.005043  -0.000605
     4  C    1.507129   0.932482  -0.567315  -0.005094   0.019053  -0.005620
     5  C    5.606926  -1.521225   0.075159  -0.006583   0.012295  -0.006585
     6  C   -5.764404   0.049768   0.421116   0.001317  -0.009157   0.001307
     7  C  -23.712159  -1.301233   0.834862  -0.000373   0.000005  -0.000374
     8  C   -1.748284  -0.010504   0.022634  -0.000002   0.000025  -0.000002
     9  C   -3.759070  -0.020114   0.011688   0.000019  -0.000007   0.000019
    10  C  -22.856078  -0.157924   0.412918   0.001843  -0.001540   0.001845
    11  C   -5.625090  -0.045491   0.055651   0.000036  -0.000041   0.000036
    12  N   -0.145328   0.001628  -0.000219   0.000000  -0.000000   0.000000
    13  C   63.618135   1.510037  -1.461270   0.002391  -0.001097   0.002399
    14  C    1.510037   7.693458  -0.631618  -0.005615   0.019033  -0.005077
    15  C   -1.461270  -0.631618   6.610326  -0.000614  -0.005022  -0.003509
    16  H    0.002391  -0.005615  -0.000614   0.549411  -0.037248  -0.020667
    17  H   -0.001097   0.019033  -0.005022  -0.037248   0.575973  -0.037244
    18  H    0.002399  -0.005077  -0.003509  -0.020667  -0.037244   0.549410
    19  H    0.016069  -0.040392   0.036151   0.002772  -0.000142   0.000182
    20  H    0.075416   0.022076  -0.010058  -0.000003  -0.000008   0.000003
    21  H   -0.325371   0.005598   0.026708   0.000001  -0.000008   0.000001
    22  H   -0.014910   0.004389   0.006711   0.000000  -0.000000   0.000000
    23  H   -0.012084   0.000274  -0.000054   0.000000  -0.000000   0.000000
    24  H    0.090215  -0.000163  -0.000022   0.000000  -0.000000   0.000000
    25  H    0.027094   0.031314  -0.008738  -0.000002  -0.000000  -0.000002
    26  H    0.075667   0.260263   0.021725   0.000003  -0.000008  -0.000003
    27  H    0.016057   0.019358   0.321118   0.000182  -0.000143   0.002773
              19         20         21         22         23         24
     1  C   -0.024266  -0.001227   0.003286   0.000082   0.000001   0.000000
     2  N   -0.084313   0.011713   0.012147   0.000114   0.000001   0.000003
     3  C    0.321162   0.021865   0.026583   0.006733  -0.000053  -0.000022
     4  C    0.019355   0.260240   0.005719   0.004478   0.000271  -0.000164
     5  C    0.080610  -0.029821  -0.017608  -0.091596  -0.008584   0.002271
     6  C   -0.022080   0.018927  -0.165641   0.032780  -0.000493   0.007104
     7  C   -0.007211  -0.063159   0.525751   0.229551   0.123576  -0.003145
     8  C    0.000082  -0.003731   0.029690   0.092570   0.246008  -0.051747
     9  C   -0.000225  -0.001514   0.002071  -0.019355  -0.021027   0.249946
    10  C    0.008173   0.016301   0.091002   0.040647  -0.011274   0.053568
    11  C    0.000266   0.000580   0.004467   0.003529  -0.005238  -0.043661
    12  N   -0.000000  -0.000001   0.000004  -0.000011   0.000034   0.000151
    13  C    0.016069   0.075416  -0.325371  -0.014910  -0.012084   0.090215
    14  C   -0.040392   0.022076   0.005598   0.004389   0.000274  -0.000163
    15  C    0.036151  -0.010058   0.026708   0.006711  -0.000054  -0.000022
    16  H    0.002772  -0.000003   0.000001   0.000000   0.000000   0.000000
    17  H   -0.000142  -0.000008  -0.000008  -0.000000  -0.000000  -0.000000
    18  H    0.000182   0.000003   0.000001   0.000000   0.000000   0.000000
    19  H    0.579238  -0.006630  -0.000170   0.000000   0.000000   0.000000
    20  H   -0.006630   0.570486  -0.002989   0.000022   0.000000  -0.000000
    21  H   -0.000170  -0.002989   0.654998   0.005653   0.000006  -0.000000
    22  H    0.000000   0.000022   0.005653   0.582445  -0.005411  -0.000140
    23  H    0.000000   0.000000   0.000006  -0.005411   0.564989  -0.004835
    24  H    0.000000  -0.000000  -0.000000  -0.000140  -0.004835   0.554346
    25  H    0.000009   0.000004   0.000031  -0.000148   0.000017  -0.000132
    26  H    0.000012  -0.000136  -0.002992   0.000021   0.000000  -0.000000
    27  H   -0.000177   0.000012  -0.000170   0.000000   0.000000   0.000000
              25         26         27
     1  C   -0.001214  -0.001231  -0.024248
     2  N   -0.003105   0.011711  -0.084285
     3  C   -0.008690  -0.010038   0.036175
     4  C    0.031179   0.022002  -0.040397
     5  C   -0.026146  -0.029638   0.080605
     6  C    0.138352   0.018674  -0.022092
     7  C    0.073768  -0.063199  -0.007208
     8  C   -0.018774  -0.003727   0.000083
     9  C    0.049430  -0.001512  -0.000226
    10  C    0.034254   0.016325   0.008179
    11  C   -0.023787   0.000583   0.000265
    12  N    0.000926  -0.000001  -0.000000
    13  C    0.027094   0.075667   0.016057
    14  C    0.031314   0.260263   0.019358
    15  C   -0.008738   0.021725   0.321118
    16  H   -0.000002   0.000003   0.000182
    17  H   -0.000000  -0.000008  -0.000143
    18  H   -0.000002  -0.000003   0.002773
    19  H    0.000009   0.000012  -0.000177
    20  H    0.000004  -0.000136   0.000012
    21  H    0.000031  -0.002992  -0.000170
    22  H   -0.000148   0.000021   0.000000
    23  H    0.000017   0.000000   0.000000
    24  H   -0.000132  -0.000000   0.000000
    25  H    0.553179   0.000003   0.000009
    26  H    0.000003   0.570491  -0.006627
    27  H    0.000009  -0.006627   0.579226
 Mulliken charges:
               1
     1  C   -0.151804
     2  N    0.021976
     3  C    0.000853
     4  C   -0.367481
     5  C    0.334177
     6  C   -0.246019
     7  C    0.261258
     8  C   -0.160226
     9  C   -0.095533
    10  C   -0.126672
    11  C   -0.286306
    12  N   -0.534200
    13  C    0.105835
    14  C   -0.367626
    15  C    0.001034
    16  H    0.147305
    17  H    0.155260
    18  H    0.147301
    19  H    0.121524
    20  H    0.121631
    21  H    0.121234
    22  H    0.121847
    23  H    0.133875
    24  H    0.146428
    25  H    0.151170
    26  H    0.121630
    27  H    0.121529
 Sum of Mulliken charges =  -0.00000
 Mulliken charges with hydrogens summed into heavy atoms:
               1
     1  C    0.298062
     2  N    0.021976
     3  C    0.122377
     4  C   -0.245850
     5  C    0.455411
     6  C   -0.246019
     7  C    0.383105
     8  C   -0.026351
     9  C    0.050895
    10  C   -0.126672
    11  C   -0.286306
    12  N   -0.534200
    13  C    0.257004
    14  C   -0.245996
    15  C    0.122563
 Electronic spatial extent (au):  <R**2>=           3681.4027
 Charge=              0.0000 electrons
 Dipole moment (field-independent basis, Debye):
    X=             -3.7025    Y=             -3.4556    Z=              0.0002  Tot=              5.0646
 Quadrupole moment (field-independent basis, Debye-Ang):
   XX=            -81.0578   YY=            -99.8746   ZZ=            -87.8900
   XY=            -21.6468   XZ=              0.0018   YZ=              0.0034
 Traceless Quadrupole moment (field-independent basis, Debye-Ang):
   XX=              8.5497   YY=            -10.2671   ZZ=              1.7174
   XY=            -21.6468   XZ=              0.0018   YZ=              0.0034
 Octapole moment (field-independent basis, Debye-Ang**2):
  XXX=            -53.4510  YYY=            -66.6387  ZZZ=             -0.0016  XYY=            -49.4597
  XXY=            -23.6187  XXZ=             -0.0173  XZZ=            -19.7651  YZZ=              4.0563
  YYZ=              0.0055  XYZ=              0.0022
 Hexadecapole moment (field-independent basis, Debye-Ang**3):
 XXXX=          -3375.5882 YYYY=          -1362.1778 ZZZZ=           -355.6670 XXXY=           -304.4010
 XXXZ=              0.0219 YYYX=           -252.9476 YYYZ=              0.0206 ZZZX=              0.0273
 ZZZY=              0.0117 XXYY=           -941.5125 XXZZ=           -665.0428 YYZZ=           -267.4412
 XXYZ=              0.0315 YYXZ=              0.0049 ZZXY=            -13.5649
 N-N= 8.741355362051D+02 E-N=-3.165420509681D+03  KE= 6.061441885262D+02
 Unable to Open any file for archive entry.
 1\1\GINC-N2\SP\RB3LYP TD-FC\6-31+G(d,p)\C13H12N2\HPCMGAC13\27-Aug-2025
 \0\\# td=(50-50,nstates=3) b3lyp/6-31+g(d,p) geom=connectivity\\Title 
 Card Required\\0,1\C,0,4.271269,1.293255,0.000556\N,0,2.997022,0.58964
 9,0.000308\C,0,2.511077,0.043469,1.185708\C,0,1.521899,-0.8676,1.23469
 3\C,0,0.808324,-1.387161,-0.000616\C,0,-0.681494,-1.014614,-0.000333\C
 ,0,-1.67266,-2.004042,-0.000072\C,0,-3.031271,-1.669131,0.00026\C,0,-3
 .424047,-0.333689,0.00034\C,0,-2.437765,0.670131,0.000063\C,0,-2.82541
 6,2.053157,0.000087\N,0,-3.14061,3.17382,0.00028\C,0,-1.076922,0.32747
 9,-0.000252\C,0,1.52177,-0.866316,-1.235478\C,0,2.510954,0.044668,-1.1
 85712\H,0,4.335167,1.932737,0.884897\H,0,5.131546,0.607097,0.000225\H,
 0,4.335071,1.933514,-0.883221\H,0,2.985327,0.413756,2.089161\H,0,1.192
 271,-1.223568,2.205769\H,0,0.836695,-2.48896,-0.001228\H,0,-1.378237,-
 3.05093,-0.00014\H,0,-3.783334,-2.452415,0.00045\H,0,-4.473679,-0.0598
 55,0.000583\H,0,-0.327233,1.112117,-0.000462\H,0,1.192014,-1.221345,-2
 .206857\H,0,2.985195,0.41592,-2.088764\\Version=ES64L-G16RevC.02\State
 =1-A\HF=-612.1039061\RMSD=2.593e-09\PG=C01 [X(C13H12N2)]\\@
 The archive entry for this job was punched.


 BE LIKE A POSTAGE STAMP.  STICK TO ONE THING UNTIL
 YOU GET THERE -- JOSH BILLINGS
 Job cpu time:       0 days  0 hours 43 minutes 38.0 seconds.
 Elapsed time:       0 days  0 hours  2 minutes 48.2 seconds.
 File lengths (MBytes):  RWF=    705 Int=      0 D2E=      0 Chk=     32 Scr=      2
 Normal termination of Gaussian 16 at Wed Aug 27 20:38:35 2025.
