 Entering Gaussian System, Link 0=g16
 Input=M473e.gjf
 Output=M473e.log
 Initial command:
 /hpc/softwares/Gaussian/g16/l1.exe "/hpc/home/hpcmgac13/pbs.13522.admin1.x8z/Gau-541597.inp" -scrdir="/hpc/home/hpcmgac13/pbs.13522.admin1.x8z/"
 Default linda workers: n1
 Default is to use  16 SMP processors on each worker.
 Entering Link 1 = /hpc/softwares/Gaussian/g16/l1.exe PID=    541598.
  
 Copyright (c) 1988-2021, Gaussian, Inc.  All Rights Reserved.
  
 This is part of the Gaussian(R) 16 program.  It is based on
 the Gaussian(R) 09 system (copyright 2009, Gaussian, Inc.),
 the Gaussian(R) 03 system (copyright 2003, Gaussian, Inc.),
 the Gaussian(R) 98 system (copyright 1998, Gaussian, Inc.),
 the Gaussian(R) 94 system (copyright 1995, Gaussian, Inc.),
 the Gaussian 92(TM) system (copyright 1992, Gaussian, Inc.),
 the Gaussian 90(TM) system (copyright 1990, Gaussian, Inc.),
 the Gaussian 88(TM) system (copyright 1988, Gaussian, Inc.),
 the Gaussian 86(TM) system (copyright 1986, Carnegie Mellon
 University), and the Gaussian 82(TM) system (copyright 1983,
 Carnegie Mellon University). Gaussian is a federally registered
 trademark of Gaussian, Inc.
  
 This software contains proprietary and confidential information,
 including trade secrets, belonging to Gaussian, Inc.
  
 This software is provided under written license and may be
 used, copied, transmitted, or stored only in accord with that
 written license.
  
 The following legend is applicable only to US Government
 contracts under FAR:
  
                    RESTRICTED RIGHTS LEGEND
  
 Use, reproduction and disclosure by the US Government is
 subject to restrictions as set forth in subparagraphs (a)
 and (c) of the Commercial Computer Software - Restricted
 Rights clause in FAR 52.227-19.
  
 Gaussian, Inc.
 340 Quinnipiac St., Bldg. 40, Wallingford CT 06492
  
  
 ---------------------------------------------------------------
 Warning -- This program may not be used in any manner that
 competes with the business of Gaussian, Inc. or will provide
 assistance to any competitor of Gaussian, Inc.  The licensee
 of this program is prohibited from giving any competitor of
 Gaussian, Inc. access to this program.  By using this program,
 the user acknowledges that Gaussian, Inc. is engaged in the
 business of creating and licensing software in the field of
 computational chemistry and represents and warrants to the
 licensee that it is not a competitor of Gaussian, Inc. and that
 it will not use this program in any manner prohibited above.
 ---------------------------------------------------------------
  

 Cite this work as:
 Gaussian 16, Revision C.02,
 M. J. Frisch, G. W. Trucks, H. B. Schlegel, G. E. Scuseria, 
 M. A. Robb, J. R. Cheeseman, G. Scalmani, V. Barone, 
 G. A. Petersson, H. Nakatsuji, X. Li, M. Caricato, A. V. Marenich, 
 J. Bloino, B. G. Janesko, R. Gomperts, B. Mennucci, H. P. Hratchian, 
 J. V. Ortiz, A. F. Izmaylov, J. L. Sonnenberg, D. Williams-Young, 
 F. Ding, F. Lipparini, F. Egidi, J. Goings, B. Peng, A. Petrone, 
 T. Henderson, D. Ranasinghe, V. G. Zakrzewski, J. Gao, N. Rega, 
 G. Zheng, W. Liang, M. Hada, M. Ehara, K. Toyota, R. Fukuda, 
 J. Hasegawa, M. Ishida, T. Nakajima, Y. Honda, O. Kitao, H. Nakai, 
 T. Vreven, K. Throssell, J. A. Montgomery, Jr., J. E. Peralta, 
 F. Ogliaro, M. J. Bearpark, J. J. Heyd, E. N. Brothers, K. N. Kudin, 
 V. N. Staroverov, T. A. Keith, R. Kobayashi, J. Normand, 
 K. Raghavachari, A. P. Rendell, J. C. Burant, S. S. Iyengar, 
 J. Tomasi, M. Cossi, J. M. Millam, M. Klene, C. Adamo, R. Cammi, 
 J. W. Ochterski, R. L. Martin, K. Morokuma, O. Farkas, 
 J. B. Foresman, and D. J. Fox, Gaussian, Inc., Wallingford CT, 2019.
 
 ******************************************
 Gaussian 16:  ES64L-G16RevC.02  7-Dec-2021
                27-Aug-2025 
 ******************************************
 SetLPE:    new flags="-opt 'Tsnet.Node.lindarsharg: ssh'  -nodelist 'n1' -env GAUSS_MDEF=2147483648 -env GAUSS_EXEDIR="/hpc/softwares/Gaussian/g16/bsd:/hpc/softwares/Gaussian/g16""
 Will use up to    1 processors via Linda.
 ----------------------------------------------------------
 # td=(50-50,nstates=3) b3lyp/6-31+g(d,p) geom=connectivity
 ----------------------------------------------------------
 1/38=1,57=2,172=1/1;
 2/12=2,17=6,18=5,40=1/2;
 3/5=1,6=6,7=111,11=9,25=1,30=1,74=-5/1,2,3,8;
 4//1;
 5/5=2,38=5/2;
 8/6=1,10=2,108=3/1;
 9/41=3,42=1,48=2,70=2/14;
 6/7=2,8=2,9=2,10=2/1;
 99/5=1,9=1/99;
 -------------------
 Title Card Required
 -------------------
 Symbolic Z-matrix:
 Charge =  0 Multiplicity = 1
 C                     1.44477  -3.65996   3.51304 
 C                     0.99332  -2.38818   2.80725 
 C                     2.05972  -1.95403   1.81034 
 O                     1.64414  -0.78325   1.16065 
 C                     2.6618   -0.436     0.261 
 O                     2.06648   0.71917  -0.26514 
 C                     0.87849   0.42588  -0.84703 
 C                     0.17565   1.42636  -1.40277 
 C                    -1.15334   1.22501  -2.07657 
 C                    -1.85301   2.22098  -2.62988 
 C                    -3.00825   1.97274  -3.2024 
 N                    -4.02711   1.75379  -3.70733 
 C                    -1.38482   3.44736  -2.60063 
 N                    -0.97195   4.52887  -2.57488 
 C                    -1.61969  -0.20453  -2.06819 
 C                    -0.91675  -1.205    -1.51246 
 C                     0.41224  -1.00365  -0.83865 
 C                     1.1119   -1.99963  -0.28544 
 C                     2.26714  -1.75138   0.28707 
 N                     3.286    -1.53234   0.79201 
 C                     0.64382  -3.226    -0.3146 
 N                     0.23096  -4.30761  -0.34036 
 H                     0.66545  -3.97716   4.24167 
 H                     1.59904  -4.466     2.76117 
 H                     2.39922  -3.46633   4.05181 
 H                     0.83906  -1.58204   3.55912 
 H                     0.03887  -2.5818    2.26858 
 H                     2.21398  -2.76007   1.05847 
 H                     3.01416  -1.76041   2.34901 
 H                     3.6238   -0.2173    0.7764 
 H                     2.8247   -1.2176   -0.5144 
 H                     0.59293   2.44339  -1.36298 
 H                    -2.58416  -0.44261  -2.54057 
 H                    -1.33393  -2.22203  -1.55225 
 
                          Input orientation:                          
 ---------------------------------------------------------------------
 Center     Atomic      Atomic             Coordinates (Angstroms)
 Number     Number       Type             X           Y           Z
 ---------------------------------------------------------------------
      1          6           0        1.444774   -3.659960    3.513040
      2          6           0        0.993319   -2.388182    2.807253
      3          6           0        2.059715   -1.954030    1.810340
      4          8           0        1.644140   -0.783254    1.160652
      5          6           0        2.661800   -0.436000    0.261000
      6          8           0        2.066477    0.719166   -0.265145
      7          6           0        0.878491    0.425876   -0.847028
      8          6           0        0.175650    1.426357   -1.402767
      9          6           0       -1.153341    1.225007   -2.076572
     10          6           0       -1.853006    2.220982   -2.629879
     11          6           0       -3.008249    1.972736   -3.202399
     12          7           0       -4.027109    1.753794   -3.707326
     13          6           0       -1.384825    3.447364   -2.600626
     14          7           0       -0.971950    4.528873   -2.574879
     15          6           0       -1.619690   -0.204531   -2.068191
     16          6           0       -0.916750   -1.205004   -1.512458
     17          6           0        0.412240   -1.003654   -0.838652
     18          6           0        1.111900   -1.999625   -0.285445
     19          6           0        2.267143   -1.751379    0.287074
     20          7           0        3.285996   -1.532337    0.792007
     21          6           0        0.643824   -3.226004   -0.314604
     22          7           0        0.230956   -4.307613   -0.340356
     23          1           0        0.665453   -3.977156    4.241668
     24          1           0        1.599039   -4.466001    2.761169
     25          1           0        2.399217   -3.466334    4.051808
     26          1           0        0.839062   -1.582042    3.559120
     27          1           0        0.038871   -2.581804    2.268585
     28          1           0        2.213980   -2.760071    1.058469
     29          1           0        3.014163   -1.760409    2.349009
     30          1           0        3.623800   -0.217300    0.776400
     31          1           0        2.824700   -1.217600   -0.514400
     32          1           0        0.592928    2.443391   -1.362984
     33          1           0       -2.584158   -0.442610   -2.540574
     34          1           0       -1.333929   -2.222031   -1.552246
 ---------------------------------------------------------------------
                    Distance matrix (angstroms):
                    1          2          3          4          5
     1  C    0.000000
     2  C    1.522946   0.000000
     3  C    2.487476   1.522998   0.000000
     4  O    3.721412   2.389698   1.401968   0.000000
     5  C    4.738231   3.616386   2.251084   1.401995   0.000000
     6  O    5.817038   4.499657   3.384326   2.113890   1.402015
     7  C    6.002077   4.613662   3.757772   2.465562   2.269526
     8  C    7.186547   5.739648   5.029988   3.689168   3.523838
     9  C    7.864914   6.443216   5.961383   4.726376   4.772681
    10  C    9.121200   7.675179   7.242628   5.968551   5.983328
    11  C    9.831266   8.434813   8.138262   6.948124   7.067291
    12  N   10.553858   9.208714   9.013436   7.892838   8.079871
    13  C    9.792731   8.303874   7.777952   6.420278   6.296395
    14  N   10.486196   8.981942   8.393401   7.001201   6.774682
    15  C    7.244382   5.946941   5.625103   4.627412   4.879536
    16  C    6.071180   4.869104   4.523425   3.725795   4.067252
    17  C    5.201857   3.942994   3.261066   2.358680   2.567486
    18  C    4.158846   3.119266   2.300597   1.963170   2.268417
    19  C    3.837424   2.894728   1.550623   1.445177   1.373556
    20  N    3.914192   3.170183   1.648816   1.841933   1.368775
    21  C    3.934552   3.251167   2.852727   3.023911   3.491084
    22  N    4.091634   3.764685   3.675487   4.083041   4.610859
    23  H    1.113038   2.165613   3.456640   4.544391   5.689543
    24  H    1.113018   2.164798   2.725123   4.015758   4.860166
    25  H    1.112980   2.165151   2.725161   4.015948   4.860257
    26  H    2.164892   1.113086   2.164856   2.653085   3.938703
    27  H    2.165099   1.112935   2.165155   2.653146   3.938861
    28  H    2.725141   2.164846   1.113018   2.059846   2.497560
    29  H    2.725114   2.165155   1.112935   2.060093   2.497599
    30  H    4.908081   3.969449   2.555705   2.094518   1.113064
    31  H    4.908115   3.969584   2.555768   2.094798   1.112960
    32  H    7.858254   6.394943   5.617719   4.229070   3.899801
    33  H    7.951722   6.721819   6.540673   5.629709   5.947179
    34  H    5.953650   4.944585   4.784937   4.277708   4.737469
                    6          7          8          9         10
     6  O    0.000000
     7  C    1.354961   0.000000
     8  C    2.317225   1.343053   0.000000
     9  C    3.728856   2.505739   1.503586   0.000000
    10  C    4.817652   3.723176   2.500536   1.337030   0.000000
    11  C    5.995978   4.800760   3.697894   2.295053   1.313008
    12  N    7.074663   5.831773   4.804310   3.346270   2.471008
    13  C    4.980866   4.162582   2.820357   2.295013   1.313035
    14  N    5.392660   4.821222   3.509479   3.346154   2.470961
    15  C    4.206189   2.851239   2.515121   1.503706   2.500609
    16  C    3.762694   2.515046   2.851216   2.505824   3.723250
    17  C    2.456322   1.503668   2.505824   2.991725   4.328755
    18  C    2.881571   2.500583   3.723215   4.328707   5.665737
    19  C    2.539449   2.820458   4.162681   5.113258   6.423699
    20  N    2.770210   3.509575   4.821323   5.961493   7.225376
    21  C    4.194133   3.697942   4.800807   5.113299   6.423731
    22  N    5.351943   4.804367   5.831825   5.961594   7.225467
    23  H    6.658053   6.732526   7.829272   8.383953   9.590501
    24  H    6.021879   6.121172   7.354202   7.960333   9.257201
    25  H    6.022060   6.438983   7.657354   8.496257   9.750483
    26  H    4.628942   4.842254   5.840453   6.603803   7.746866
    27  H    4.628971   4.411138   5.437176   5.898607   7.116242
    28  H    3.725426   3.945214   5.266750   6.086722   7.413177
    29  H    3.725614   4.422170   5.682293   6.772486   8.020607
    30  H    2.094526   3.253601   4.397740   5.748110   6.895170
    31  H    2.094777   2.568927   3.846709   4.922552   6.179000
    32  H    2.519832   2.101933   1.100029   2.245690   2.763527
    33  H    5.306196   3.951241   3.521957   2.245770   2.763564
    34  H    4.676540   3.521867   3.951191   3.491361   4.601207
                   11         12         13         14         15
    11  C    0.000000
    12  N    1.158000   0.000000
    13  C    2.274239   3.327857   0.000000
    14  N    3.327783   4.279895   1.157926   0.000000
    15  C    2.820463   3.509625   3.697970   4.804312   0.000000
    16  C    4.162727   4.821438   4.800805   5.831735   1.343098
    17  C    5.113310   5.961597   5.113272   5.961487   2.505815
    18  C    6.423699   7.225430   6.423659   7.225319   3.723189
    19  C    7.339974   8.237663   6.978725   7.623914   4.800780
    20  N    8.237617   9.193702   7.623906   8.136602   5.831772
    21  C    6.978817   7.624078   7.339969   8.237578   4.162675
    22  N    7.624075   8.136846   8.237672   9.193670   4.821368
    23  H   10.213296  10.865101  10.302626  11.022655   7.698630
    24  H    9.912042  10.591545  10.013672  10.769919   7.200213
    25  H   10.556879  11.346875  10.313732  10.917925   8.015321
    26  H    8.553150   9.359949   8.257303   8.845845   6.293618
    27  H    7.743412   8.428589   7.879529   8.662715   5.216309
    28  H    8.235662   9.057537   8.054354   8.745289   5.568108
    29  H    9.001330   9.930173   8.424421   8.926860   6.588248
    30  H    8.038108   9.084350   7.065436   7.407979   5.965405
    31  H    7.171253   8.122269   6.620749   7.189025   4.815930
    32  H    4.071049   5.226493   2.539926   2.875198   3.522001
    33  H    2.540032   2.875345   4.071106   5.226475   1.100011
    34  H    4.808578   5.263533   5.765738   6.837509   2.101944
                   16         17         18         19         20
    16  C    0.000000
    17  C    1.503586   0.000000
    18  C    2.500481   1.336982   0.000000
    19  C    3.697840   2.294998   1.313008   0.000000
    20  N    4.804246   3.346196   2.471023   1.158014   0.000000
    21  C    2.820405   2.295015   1.312992   2.274137   3.327787
    22  N    3.509592   3.346238   2.471009   3.327771   4.279915
    23  H    6.580133   5.891985   4.960312   4.812308   4.974389
    24  H    5.935249   5.133717   3.949958   3.733187   3.915330
    25  H    6.860780   5.824901   4.756068   4.139050   3.892689
    26  H    5.380142   4.456131   3.876789   3.574125   3.694168
    27  H    4.135827   3.504980   2.830793   3.095349   3.718264
    28  H    4.339282   3.151244   1.897093   1.270959   1.651530
    29  H    5.538183   4.183762   3.258247   2.193101   1.596924
    30  H    5.179867   3.679791   3.257889   2.105553   1.357821
    31  H    3.872303   2.443537   1.896752   1.112722   1.420757
    32  H    3.951235   3.491374   4.601176   4.808512   5.263366
    33  H    2.102027   3.491377   4.601168   5.765726   6.837566
    34  H    1.099984   2.245610   2.763390   4.070913   5.226366
                   21         22         23         24         25
    21  C    0.000000
    22  N    1.158016   0.000000
    23  H    4.617826   4.614426   0.000000
    24  H    3.451146   3.393552   1.817259   0.000000
    25  H    4.712189   4.969931   1.817395   1.818067   0.000000
    26  H    4.212655   4.796294   2.496515   3.087315   2.495473
    27  H    2.730170   3.133989   2.496531   2.495389   3.087639
    28  H    2.137244   2.878190   3.743258   2.487476   3.081103
    29  H    3.855037   4.633268   3.743336   3.081020   2.487542
    30  H    4.372967   5.430395   5.907319   5.107879   4.773272
    31  H    2.971502   4.038066   5.907426   4.773228   5.107651
    32  H    5.765738   6.837606   8.522958   8.109291   8.216296
    33  H    4.808543   5.263466   8.309740   7.860998   8.799797
    34  H    2.539926   2.875272   6.375533   5.678314   6.847633
                   26         27         28         29         30
    26  H    0.000000
    27  H    1.818051   0.000000
    28  H    3.087297   2.495447   0.000000
    29  H    2.495446   3.087640   1.817996   0.000000
    30  H    4.166631   4.546340   2.921103   2.286032   0.000000
    31  H    4.546332   4.167361   2.286070   2.920556   1.818055
    32  H    6.363317   6.224778   5.963830   6.108454   4.565351
    33  H    7.086819   5.880853   6.430075   7.548895   7.042146
    34  H    5.590843   4.075875   4.437677   5.859930   5.832719
                   31         32         33         34
    31  H    0.000000
    32  H    4.370785   0.000000
    33  H    5.827670   4.450798   0.000000
    34  H    4.402295   5.051214   2.388767   0.000000
 Stoichiometry    C16H12N4O2
 Framework group  C1[X(C16H12N4O2)]
 Deg. of freedom    96
 Full point group                 C1      NOp   1
 Largest Abelian subgroup         C1      NOp   1
 Largest concise Abelian subgroup C1      NOp   1
                         Standard orientation:                         
 ---------------------------------------------------------------------
 Center     Atomic      Atomic             Coordinates (Angstroms)
 Number     Number       Type             X           Y           Z
 ---------------------------------------------------------------------
      1          6           0       -4.973649    0.736574    1.577837
      2          6           0       -3.519036    0.290502    1.644819
      3          6           0       -3.188153   -0.550458    0.418920
      4          8           0       -1.849102   -0.961131    0.480605
      5          6           0       -1.606656   -1.726656   -0.668648
      6          8           0       -0.260373   -2.027325   -0.418117
      7          6           0        0.477726   -0.894312   -0.332045
      8          6           0        1.794731   -1.006974   -0.094145
      9          6           0        2.715496    0.175989    0.022311
     10          6           0        4.026607    0.063841    0.259079
     11          6           0        4.772086    1.140980    0.348652
     12          7           0        5.429555    2.090957    0.427651
     13          6           0        4.568642   -1.123511    0.402097
     14          7           0        5.046676   -2.170592    0.528181
     15          6           0        2.019612    1.497376   -0.153222
     16          6           0        0.702565    1.609966   -0.391177
     17          6           0       -0.218200    0.427003   -0.507633
     18          6           0       -1.529247    0.539171   -0.744475
     19          6           0       -2.274727   -0.537968   -0.834048
     20          7           0       -2.932130   -1.488011   -0.913010
     21          6           0       -2.071387    1.726430   -0.887475
     22          7           0       -2.549486    2.773577   -1.013596
     23          1           0       -5.215454    1.351073    2.473814
     24          1           0       -5.133047    1.343298    0.658441
     25          1           0       -5.635182   -0.158102    1.552325
     26          1           0       -3.359574   -0.316295    2.564237
     27          1           0       -2.857555    1.185160    1.670414
     28          1           0       -3.347551    0.056266   -0.500475
     29          1           0       -3.849634   -1.445115    0.393325
     30          1           0       -2.242176   -2.639558   -0.709093
     31          1           0       -1.740890   -1.138421   -1.603870
     32          1           0        2.220828   -2.014542    0.021233
     33          1           0        2.618845    2.417191   -0.083320
     34          1           0        0.276427    2.617461   -0.506610
 ---------------------------------------------------------------------
 Rotational constants (GHZ):           0.6760210           0.1687048           0.1481261
 Standard basis: 6-31+G(d,p) (6D, 7F)
 There are   478 symmetry adapted cartesian basis functions of A   symmetry.
 There are   478 symmetry adapted basis functions of A   symmetry.
   478 basis functions,   788 primitive gaussians,   478 cartesian basis functions
    76 alpha electrons       76 beta electrons
       nuclear repulsion energy      1747.4567408017 Hartrees.
 NAtoms=   34 NActive=   34 NUniq=   34 SFac= 1.00D+00 NAtFMM=   60 NAOKFM=F Big=F
 Integral buffers will be    131072 words long.
 Regular integral format.
 Two-electron integral symmetry is turned on.
 One-electron integrals computed using PRISM.
 NBasis=   478 RedAO= T EigKep=  1.13D-06  NBF=   478
 NBsUse=   472 1.00D-06 EigRej=  6.92D-07 NBFU=   472
 ExpMin= 4.38D-02 ExpMax= 5.48D+03 ExpMxC= 8.25D+02 IAcc=3 IRadAn=         5 AccDes= 0.00D+00
 Harris functional with IExCor=  402 and IRadAn=       5 diagonalized for initial guess.
 HarFok:  IExCor=  402 AccDes= 0.00D+00 IRadAn=         5 IDoV= 1 UseB2=F ITyADJ=14
 ICtDFT=  3500011 ScaDFX=  1.000000  1.000000  1.000000  1.000000
 FoFCou: FMM=F IPFlag=           0 FMFlag=      100000 FMFlg1=           0
         NFxFlg=           0 DoJE=T BraDBF=F KetDBF=T FulRan=T
         wScrn=  0.000000 ICntrl=       500 IOpCl=  0 I1Cent=   200000004 NGrid=           0
         NMat0=    1 NMatS0=      1 NMatT0=    0 NMatD0=    1 NMtDS0=    0 NMtDT0=    0
 Petite list used in FoFCou.
 Requested convergence on RMS density matrix=1.00D-08 within 128 cycles.
 Requested convergence on MAX density matrix=1.00D-06.
 Requested convergence on             energy=1.00D-06.
 No special actions if energy rises.
 EnCoef did     4 forward-backward iterations
 EnCoef did     4 forward-backward iterations
 Restarting incremental Fock formation.
 SCF Done:  E(RB3LYP) =  -985.158527410     A.U. after   23 cycles
            NFock= 23  Conv=0.83D-08     -V/T= 2.0026
 DoSCS=F DFT=T ScalE2(SS,OS)=  1.000000  1.000000
 ExpMin= 4.38D-02 ExpMax= 5.48D+03 ExpMxC= 8.25D+02 IAcc=3 IRadAn=         5 AccDes= 0.00D+00
 HarFok:  IExCor=  205 AccDes= 0.00D+00 IRadAn=         5 IDoV=-2 UseB2=F ITyADJ=14
 ICtDFT= 12500011 ScaDFX=  1.000000  1.000000  1.000000  1.000000
 GSVD:  LWork=        -660 too small for GESVD, short by        2750 words or        2750 for optimal perf.
 Range of M.O.s used for correlation:    23   472
 NBasis=   478 NAE=    76 NBE=    76 NFC=    22 NFV=     0
 NROrb=    450 NOA=    54 NOB=    54 NVA=   396 NVB=   396

 **** Warning!!: The largest alpha MO coefficient is  0.16551144D+03


 **** Warning!!: The smallest alpha delta epsilon is  0.45032003D-01

 Orbital symmetries:
       Occupied  (A) (A) (A) (A) (A) (A) (A) (A) (A) (A) (A) (A)
                 (A) (A) (A) (A) (A) (A) (A) (A) (A) (A) (A) (A)
                 (A) (A) (A) (A) (A) (A) (A) (A) (A) (A) (A) (A)
                 (A) (A) (A) (A) (A) (A) (A) (A) (A) (A) (A) (A)
                 (A) (A) (A) (A) (A) (A) (A) (A) (A) (A) (A) (A)
                 (A) (A) (A) (A) (A) (A) (A) (A) (A) (A) (A) (A)
                 (A) (A) (A) (A)
       Virtual   (A) (A) (A) (A) (A) (A) (A) (A) (A) (A) (A) (A)
                 (A) (A) (A) (A) (A) (A) (A) (A) (A) (A) (A) (A)
                 (A) (A) (A) (A) (A) (A) (A) (A) (A) (A) (A) (A)
                 (A) (A) (A) (A) (A) (A) (A) (A) (A) (A) (A) (A)
                 (A) (A) (A) (A) (A) (A) (A) (A) (A) (A) (A) (A)
                 (A) (A) (A) (A) (A) (A) (A) (A) (A) (A) (A) (A)
                 (A) (A) (A) (A) (A) (A) (A) (A) (A) (A) (A) (A)
                 (A) (A) (A) (A) (A) (A) (A) (A) (A) (A) (A) (A)
                 (A) (A) (A) (A) (A) (A) (A) (A) (A) (A) (A) (A)
                 (A) (A) (A) (A) (A) (A) (A) (A) (A) (A) (A) (A)
                 (A) (A) (A) (A) (A) (A) (A) (A) (A) (A) (A) (A)
                 (A) (A) (A) (A) (A) (A) (A) (A) (A) (A) (A) (A)
                 (A) (A) (A) (A) (A) (A) (A) (A) (A) (A) (A) (A)
                 (A) (A) (A) (A) (A) (A) (A) (A) (A) (A) (A) (A)
                 (A) (A) (A) (A) (A) (A) (A) (A) (A) (A) (A) (A)
                 (A) (A) (A) (A) (A) (A) (A) (A) (A) (A) (A) (A)
                 (A) (A) (A) (A) (A) (A) (A) (A) (A) (A) (A) (A)
                 (A) (A) (A) (A) (A) (A) (A) (A) (A) (A) (A) (A)
                 (A) (A) (A) (A) (A) (A) (A) (A) (A) (A) (A) (A)
                 (A) (A) (A) (A) (A) (A) (A) (A) (A) (A) (A) (A)
                 (A) (A) (A) (A) (A) (A) (A) (A) (A) (A) (A) (A)
                 (A) (A) (A) (A) (A) (A) (A) (A) (A) (A) (A) (A)
                 (A) (A) (A) (A) (A) (A) (A) (A) (A) (A) (A) (A)
                 (A) (A) (A) (A) (A) (A) (A) (A) (A) (A) (A) (A)
                 (A) (A) (A) (A) (A) (A) (A) (A) (A) (A) (A) (A)
                 (A) (A) (A) (A) (A) (A) (A) (A) (A) (A) (A) (A)
                 (A) (A) (A) (A) (A) (A) (A) (A) (A) (A) (A) (A)
                 (A) (A) (A) (A) (A) (A) (A) (A) (A) (A) (A) (A)
                 (A) (A) (A) (A) (A) (A) (A) (A) (A) (A) (A) (A)
                 (A) (A) (A) (A) (A) (A) (A) (A) (A) (A) (A) (A)
                 (A) (A) (A) (A) (A) (A) (A) (A) (A) (A) (A) (A)
                 (A) (A) (A) (A) (A) (A) (A) (A) (A) (A) (A) (A)
                 (A) (A) (A) (A) (A) (A) (A) (A) (A) (A) (A) (A)
    24 initial guesses have been made.
 Convergence on wavefunction:    0.001000000000000
 Iteration     1 Dimension    24 NMult     0 NNew     24
 CISAX will form    24 AO SS matrices at one time.
 New state      1 was old state      2
 New state      2 was old state      1
 New state      3 was old state      4
 New state      4 was old state      6
 New state      5 was old state     10
 New state      6 was old state      5
 New state      7 was old state      8
 New state      8 was old state     12
 New state     10 was old state      7
 New state     12 was old state     14
 Vector   5 SDiff=9.82D-01 TDiff=6.74D+00 assumed to be singlet.
 Vector  11 SDiff=9.95D-01 TDiff=5.44D+00 assumed to be singlet.
 Iteration     2 Dimension    36 NMult    24 NNew     12
 New state      5 was old state      6
 New state      6 was old state      9
 Iteration     3 Dimension    48 NMult    36 NNew     12
 Iteration     4 Dimension    60 NMult    48 NNew     12
 Iteration     5 Dimension    72 NMult    60 NNew     12
 Iteration     6 Dimension    76 NMult    72 NNew      4
 Iteration     7 Dimension    78 NMult    76 NNew      2
 ***********************************************************************
 Excited states from <AA,BB:AA,BB> singles matrix:
 ***********************************************************************
 
 Ground to excited state transition densities written to RWF  633
 Ground to excited state transition electric dipole moments (Au):
       state          X           Y           Z        Dip. S.      Osc.
         1        -0.0000      0.0000      0.0000      0.0000     -0.0000
         2         1.7193      0.5649      0.0093      3.2753      0.0767
         3         0.0000     -0.0000     -0.0000      0.0000      0.0000
         4        -0.0000     -0.0000     -0.0000      0.0000      0.0000
         5         0.4273      0.3812      0.0082      0.3280      0.0182
         6        -1.7313      0.1115     -0.3005      3.1002      0.1939
 Ground to excited state transition velocity dipole moments (Au):
       state          X           Y           Z        Dip. S.      Osc.
         1        -0.0000      0.0000     -0.0000      0.0000     -0.0000
         2        -0.0547     -0.0203     -0.0030      0.0034      0.0648
         3         0.0000      0.0000      0.0000      0.0000      0.0000
         4         0.0000      0.0000      0.0000      0.0000      0.0000
         5        -0.0375     -0.0278      0.0012      0.0022      0.0174
         6         0.1596     -0.0101      0.0259      0.0263      0.1865
 Ground to excited state transition magnetic dipole moments (Au):
       state          X           Y           Z
         1         0.0000     -0.0000     -0.0000
         2        -0.2686     -0.2453      0.0654
         3         0.0000     -0.0000     -0.0000
         4         0.0000     -0.0000     -0.0000
         5        -0.1543      0.2029      0.1892
         6         0.0860     -0.2175     -0.2375
 Ground to excited state transition velocity quadrupole moments (Au):
       state          XX          YY          ZZ          XY          XZ          YZ
         1         0.0000     -0.0000      0.0000     -0.0000     -0.0000     -0.0000
         2        -0.1051      0.0150      0.0409      0.0507     -0.0422      0.0591
         3        -0.0000     -0.0000      0.0000     -0.0000     -0.0000     -0.0000
         4        -0.0000     -0.0000     -0.0000     -0.0000     -0.0000     -0.0000
         5        -0.0234      0.0251     -0.0128      0.2006      0.0115      0.0363
         6         0.9470     -0.1443      0.0134      0.0179      0.0073      0.0586
 <0|del|b> * <b|rxdel|0> + <0|del|b> * <b|delr+rdel|0>
 Rotatory Strengths (R) in cgs (10**-40 erg-esu-cm/Gauss)
       state          XX          YY          ZZ    R(velocity)    E-M Angle
         1         0.0000      0.0000      0.0000      0.0000       90.00
         2        38.0295    114.9440    239.2590    130.7442       25.57
         3         0.0000      0.0000     -0.0000     -0.0000       90.00
         4        -0.0000      0.0000     -0.0000     -0.0000       90.00
         5       -20.5133     18.7016      5.0901      1.0928       88.50
         6       -12.8868     62.0148     24.4691     24.5324       79.58
 1/2[<0|r|b>*<b|rxdel|0> + (<0|rxdel|b>*<b|r|0>)*]
 Rotatory Strengths (R) in cgs (10**-40 erg-esu-cm/Gauss)
       state          XX          YY          ZZ     R(length)
         1         0.0000      0.0000      0.0000      0.0000
         2       326.5509     97.9919     -0.4279    141.3716
         3        -0.0000     -0.0000     -0.0000     -0.0000
         4         0.0000     -0.0000     -0.0000     -0.0000
         5        46.6301    -54.6898     -1.0969     -3.0522
         6       105.2516     17.1473    -50.4702     23.9762
  1/2[<0|del|b>*<b|r|0> + (<0|r|b>*<b|del|0>)*] (Au)
       state          X           Y           Z        Dip. S.   Osc.(frdel)
         1         0.0000      0.0000     -0.0000     -0.0000     -0.0000
         2        -0.0941     -0.0115     -0.0000      0.1056      0.0704
         3         0.0000     -0.0000     -0.0000      0.0000      0.0000
         4        -0.0000     -0.0000     -0.0000      0.0000      0.0000
         5        -0.0160     -0.0106      0.0000      0.0266      0.0177
         6        -0.2763     -0.0011     -0.0078      0.2853      0.1902

 Excitation energies and oscillator strengths:
 
 Excited State   1:      Triplet-A      -0.5475 eV    -2264.58 nm  f=-0.0000  <S**2>=2.000
      76 -> 77         0.70843
 This state for optimization and/or second-order correction.
 Total Energy, E(TD-HF/TD-DFT) =  -985.178647434    
 Copying the excited state density for this state as the 1-particle RhoCI density.
 
 Excited State   2:      Singlet-A      0.9558 eV 1297.12 nm  f=0.0767  <S**2>=0.000
      76 -> 77         0.72720
      76 -> 78        -0.16275
      76 <- 77        -0.26860
 
 Excited State   3:      Triplet-A      1.5087 eV  821.77 nm  f=0.0000  <S**2>=2.000
      75 -> 77         0.69088
      76 -> 78        -0.12766
 
 Excited State   4:      Triplet-A      1.7562 eV  705.99 nm  f=0.0000  <S**2>=2.000
      75 -> 77         0.11471
      76 -> 78         0.68453
 
 Excited State   5:      Singlet-A      2.2696 eV  546.29 nm  f=0.0182  <S**2>=0.000
      75 -> 77         0.28540
      76 -> 77         0.11931
      76 -> 78         0.63008
 
 Excited State   6:      Singlet-A      2.5532 eV  485.60 nm  f=0.1939  <S**2>=0.000
      74 -> 77        -0.18334
      75 -> 77         0.56195
      76 -> 77        -0.13305
      76 -> 78        -0.21304
      76 -> 79        -0.25650
 SavETr:  write IOETrn=   770 NScale= 10 NData=  16 NLR=1 NState=    6 LETran=     118.

 **********************************************************************

            Population analysis using the SCF Density.

 **********************************************************************

 Orbital symmetries:
       Occupied  (A) (A) (A) (A) (A) (A) (A) (A) (A) (A) (A) (A)
                 (A) (A) (A) (A) (A) (A) (A) (A) (A) (A) (A) (A)
                 (A) (A) (A) (A) (A) (A) (A) (A) (A) (A) (A) (A)
                 (A) (A) (A) (A) (A) (A) (A) (A) (A) (A) (A) (A)
                 (A) (A) (A) (A) (A) (A) (A) (A) (A) (A) (A) (A)
                 (A) (A) (A) (A) (A) (A) (A) (A) (A) (A) (A) (A)
                 (A) (A) (A) (A)
       Virtual   (A) (A) (A) (A) (A) (A) (A) (A) (A) (A) (A) (A)
                 (A) (A) (A) (A) (A) (A) (A) (A) (A) (A) (A) (A)
                 (A) (A) (A) (A) (A) (A) (A) (A) (A) (A) (A) (A)
                 (A) (A) (A) (A) (A) (A) (A) (A) (A) (A) (A) (A)
                 (A) (A) (A) (A) (A) (A) (A) (A) (A) (A) (A) (A)
                 (A) (A) (A) (A) (A) (A) (A) (A) (A) (A) (A) (A)
                 (A) (A) (A) (A) (A) (A) (A) (A) (A) (A) (A) (A)
                 (A) (A) (A) (A) (A) (A) (A) (A) (A) (A) (A) (A)
                 (A) (A) (A) (A) (A) (A) (A) (A) (A) (A) (A) (A)
                 (A) (A) (A) (A) (A) (A) (A) (A) (A) (A) (A) (A)
                 (A) (A) (A) (A) (A) (A) (A) (A) (A) (A) (A) (A)
                 (A) (A) (A) (A) (A) (A) (A) (A) (A) (A) (A) (A)
                 (A) (A) (A) (A) (A) (A) (A) (A) (A) (A) (A) (A)
                 (A) (A) (A) (A) (A) (A) (A) (A) (A) (A) (A) (A)
                 (A) (A) (A) (A) (A) (A) (A) (A) (A) (A) (A) (A)
                 (A) (A) (A) (A) (A) (A) (A) (A) (A) (A) (A) (A)
                 (A) (A) (A) (A) (A) (A) (A) (A) (A) (A) (A) (A)
                 (A) (A) (A) (A) (A) (A) (A) (A) (A) (A) (A) (A)
                 (A) (A) (A) (A) (A) (A) (A) (A) (A) (A) (A) (A)
                 (A) (A) (A) (A) (A) (A) (A) (A) (A) (A) (A) (A)
                 (A) (A) (A) (A) (A) (A) (A) (A) (A) (A) (A) (A)
                 (A) (A) (A) (A) (A) (A) (A) (A) (A) (A) (A) (A)
                 (A) (A) (A) (A) (A) (A) (A) (A) (A) (A) (A) (A)
                 (A) (A) (A) (A) (A) (A) (A) (A) (A) (A) (A) (A)
                 (A) (A) (A) (A) (A) (A) (A) (A) (A) (A) (A) (A)
                 (A) (A) (A) (A) (A) (A) (A) (A) (A) (A) (A) (A)
                 (A) (A) (A) (A) (A) (A) (A) (A) (A) (A) (A) (A)
                 (A) (A) (A) (A) (A) (A) (A) (A) (A) (A) (A) (A)
                 (A) (A) (A) (A) (A) (A) (A) (A) (A) (A) (A) (A)
                 (A) (A) (A) (A) (A) (A) (A) (A) (A) (A) (A) (A)
                 (A) (A) (A) (A) (A) (A) (A) (A) (A) (A) (A) (A)
                 (A) (A) (A) (A) (A) (A) (A) (A) (A) (A) (A) (A)
                 (A) (A) (A) (A) (A) (A) (A) (A) (A) (A) (A) (A)
 The electronic state is 1-A.
 Alpha  occ. eigenvalues --  -19.28519 -19.24302 -14.37734 -14.36363 -14.34606
 Alpha  occ. eigenvalues --  -14.34519 -10.43795 -10.43227 -10.35058 -10.30396
 Alpha  occ. eigenvalues --  -10.26996 -10.26880 -10.26509 -10.26345 -10.24461
 Alpha  occ. eigenvalues --  -10.24361 -10.23877 -10.23647 -10.23401 -10.23353
 Alpha  occ. eigenvalues --  -10.23212 -10.22428  -1.45045  -1.16472  -1.14387
 Alpha  occ. eigenvalues --   -0.99905  -0.98956  -0.94523  -0.93991  -0.91451
 Alpha  occ. eigenvalues --   -0.88973  -0.85365  -0.82986  -0.81362  -0.79039
 Alpha  occ. eigenvalues --   -0.76032  -0.73418  -0.70596  -0.68757  -0.67394
 Alpha  occ. eigenvalues --   -0.65813  -0.65349  -0.63352  -0.62483  -0.59295
 Alpha  occ. eigenvalues --   -0.57753  -0.56423  -0.52951  -0.52163  -0.49872
 Alpha  occ. eigenvalues --   -0.48456  -0.47333  -0.46593  -0.45635  -0.44415
 Alpha  occ. eigenvalues --   -0.44102  -0.42870  -0.42229  -0.41216  -0.40353
 Alpha  occ. eigenvalues --   -0.39545  -0.39145  -0.38347  -0.38144  -0.37605
 Alpha  occ. eigenvalues --   -0.37034  -0.36928  -0.35645  -0.35146  -0.35006
 Alpha  occ. eigenvalues --   -0.33837  -0.31838  -0.29255  -0.28824  -0.25632
 Alpha  occ. eigenvalues --   -0.19746
 Alpha virt. eigenvalues --   -0.15243  -0.08296  -0.06058  -0.04625  -0.03408
 Alpha virt. eigenvalues --   -0.02880  -0.02297  -0.01442  -0.00363  -0.00246
 Alpha virt. eigenvalues --    0.00011   0.00857   0.01587   0.01766   0.01950
 Alpha virt. eigenvalues --    0.03309   0.03768   0.03945   0.04030   0.04276
 Alpha virt. eigenvalues --    0.04611   0.05039   0.05439   0.05949   0.06044
 Alpha virt. eigenvalues --    0.06722   0.06831   0.07078   0.07392   0.07899
 Alpha virt. eigenvalues --    0.08207   0.08567   0.08989   0.09346   0.09803
 Alpha virt. eigenvalues --    0.09995   0.10479   0.11141   0.11539   0.11732
 Alpha virt. eigenvalues --    0.11908   0.12229   0.12781   0.13218   0.13344
 Alpha virt. eigenvalues --    0.14142   0.14387   0.14751   0.15191   0.15506
 Alpha virt. eigenvalues --    0.15673   0.16032   0.16147   0.16442   0.16704
 Alpha virt. eigenvalues --    0.17380   0.17433   0.17531   0.18355   0.18788
 Alpha virt. eigenvalues --    0.18972   0.19528   0.19777   0.20410   0.20666
 Alpha virt. eigenvalues --    0.21001   0.21189   0.21711   0.21876   0.21951
 Alpha virt. eigenvalues --    0.22278   0.22778   0.22939   0.23521   0.23799
 Alpha virt. eigenvalues --    0.23827   0.24603   0.24980   0.25555   0.25715
 Alpha virt. eigenvalues --    0.26012   0.26348   0.26420   0.26834   0.27096
 Alpha virt. eigenvalues --    0.27403   0.27504   0.28007   0.28348   0.28509
 Alpha virt. eigenvalues --    0.28839   0.29417   0.29739   0.30077   0.30564
 Alpha virt. eigenvalues --    0.31154   0.31616   0.31794   0.31975   0.32364
 Alpha virt. eigenvalues --    0.32640   0.33104   0.33799   0.34759   0.35054
 Alpha virt. eigenvalues --    0.35499   0.35821   0.36468   0.36655   0.37709
 Alpha virt. eigenvalues --    0.38838   0.39405   0.39989   0.40456   0.41240
 Alpha virt. eigenvalues --    0.43353   0.44331   0.44961   0.45155   0.45525
 Alpha virt. eigenvalues --    0.46642   0.50189   0.53221   0.55505   0.59361
 Alpha virt. eigenvalues --    0.60529   0.62869   0.64641   0.64847   0.65327
 Alpha virt. eigenvalues --    0.65883   0.66644   0.66761   0.68057   0.69351
 Alpha virt. eigenvalues --    0.69915   0.70376   0.70799   0.71888   0.72715
 Alpha virt. eigenvalues --    0.73327   0.73875   0.74709   0.75536   0.75593
 Alpha virt. eigenvalues --    0.76828   0.77522   0.77969   0.78431   0.78930
 Alpha virt. eigenvalues --    0.79947   0.80138   0.81124   0.82179   0.83180
 Alpha virt. eigenvalues --    0.84202   0.84881   0.85341   0.85834   0.86371
 Alpha virt. eigenvalues --    0.87196   0.87442   0.89071   0.89648   0.90419
 Alpha virt. eigenvalues --    0.90565   0.92644   0.92987   0.93835   0.94226
 Alpha virt. eigenvalues --    0.95133   0.96246   0.97229   0.97863   0.98541
 Alpha virt. eigenvalues --    0.99153   1.01053   1.01778   1.02282   1.02497
 Alpha virt. eigenvalues --    1.03312   1.03881   1.04355   1.05198   1.05862
 Alpha virt. eigenvalues --    1.06544   1.07063   1.07557   1.07782   1.09374
 Alpha virt. eigenvalues --    1.10078   1.10854   1.11181   1.13582   1.14843
 Alpha virt. eigenvalues --    1.16137   1.16498   1.17607   1.18214   1.19149
 Alpha virt. eigenvalues --    1.20613   1.22168   1.22983   1.25325   1.25809
 Alpha virt. eigenvalues --    1.26727   1.27824   1.28316   1.29397   1.30419
 Alpha virt. eigenvalues --    1.31428   1.32156   1.33037   1.34919   1.35278
 Alpha virt. eigenvalues --    1.35888   1.37173   1.37504   1.41346   1.41785
 Alpha virt. eigenvalues --    1.42324   1.43347   1.44597   1.45573   1.47709
 Alpha virt. eigenvalues --    1.49525   1.51145   1.51873   1.52204   1.52265
 Alpha virt. eigenvalues --    1.55025   1.57153   1.58318   1.58887   1.59699
 Alpha virt. eigenvalues --    1.62175   1.63729   1.65904   1.67260   1.69283
 Alpha virt. eigenvalues --    1.70954   1.71691   1.73518   1.74168   1.74690
 Alpha virt. eigenvalues --    1.75418   1.77356   1.78143   1.79205   1.79427
 Alpha virt. eigenvalues --    1.80708   1.82309   1.83460   1.85037   1.85897
 Alpha virt. eigenvalues --    1.86505   1.88791   1.89114   1.89579   1.91405
 Alpha virt. eigenvalues --    1.91821   1.92418   1.92762   1.93365   1.93727
 Alpha virt. eigenvalues --    1.94682   1.95478   1.95983   1.98519   1.99231
 Alpha virt. eigenvalues --    2.00713   2.01638   2.02596   2.03327   2.04477
 Alpha virt. eigenvalues --    2.05157   2.05986   2.06873   2.07459   2.08141
 Alpha virt. eigenvalues --    2.10135   2.12448   2.12801   2.14670   2.15372
 Alpha virt. eigenvalues --    2.17539   2.19050   2.20604   2.21764   2.23637
 Alpha virt. eigenvalues --    2.25123   2.26056   2.27579   2.28911   2.30219
 Alpha virt. eigenvalues --    2.31533   2.32959   2.33967   2.35073   2.36205
 Alpha virt. eigenvalues --    2.38428   2.40072   2.40594   2.42420   2.43984
 Alpha virt. eigenvalues --    2.44273   2.46135   2.48036   2.48681   2.49857
 Alpha virt. eigenvalues --    2.52022   2.54953   2.56356   2.56976   2.59032
 Alpha virt. eigenvalues --    2.59569   2.61607   2.62438   2.63317   2.65488
 Alpha virt. eigenvalues --    2.66084   2.69748   2.70914   2.72209   2.73993
 Alpha virt. eigenvalues --    2.74843   2.76842   2.78462   2.79186   2.81422
 Alpha virt. eigenvalues --    2.83264   2.83747   2.84049   2.84717   2.87040
 Alpha virt. eigenvalues --    2.88813   2.90096   2.93239   2.93971   2.96585
 Alpha virt. eigenvalues --    2.98865   2.99891   3.01265   3.02151   3.05341
 Alpha virt. eigenvalues --    3.07150   3.08642   3.11767   3.12220   3.13611
 Alpha virt. eigenvalues --    3.15518   3.15873   3.19209   3.19356   3.22497
 Alpha virt. eigenvalues --    3.23229   3.27687   3.28100   3.30149   3.30731
 Alpha virt. eigenvalues --    3.32777   3.38617   3.40063   3.41013   3.42588
 Alpha virt. eigenvalues --    3.45421   3.48101   3.50993   3.52010   3.58899
 Alpha virt. eigenvalues --    3.62302   3.68444   3.73589   3.85395   4.24394
 Alpha virt. eigenvalues --    4.30774   4.31383   4.34141   4.36254   4.38688
 Alpha virt. eigenvalues --    4.41423   4.43912   4.46601   4.51169   4.53079
 Alpha virt. eigenvalues --    4.57266   4.67043   4.71305   4.72070   4.75170
 Alpha virt. eigenvalues --    4.92667   4.96010   5.08061   5.10970   5.39757
 Alpha virt. eigenvalues --    5.43967
          Condensed to atoms (all electrons):
               1          2          3          4          5          6
     1  C    5.393395  -0.186068   0.193591  -0.031669  -0.006905   0.008503
     2  C   -0.186068   7.335385  -0.530319   0.098551  -0.043739  -0.092675
     3  C    0.193591  -0.530319  10.109355  -0.641523  -1.600227   0.027799
     4  O   -0.031669   0.098551  -0.641523   9.601170   0.526913  -0.214629
     5  C   -0.006905  -0.043739  -1.600227   0.526913  11.231868  -0.341948
     6  O    0.008503  -0.092675   0.027799  -0.214629  -0.341948   9.030908
     7  C   -0.081364   0.461094  -0.539308   0.510733  -0.931689  -0.542648
     8  C   -0.001201   0.056122   0.215560   0.018420   0.450436  -0.244717
     9  C   -0.001958   0.020978   0.215686  -0.048373  -0.157465   0.018128
    10  C    0.000374  -0.003022  -0.088401   0.013146   0.056098   0.008339
    11  C    0.000059  -0.000002  -0.014978   0.001985   0.009829   0.000024
    12  N   -0.000001  -0.000005   0.000037  -0.000002   0.000125  -0.000017
    13  C   -0.000011   0.000534   0.035690  -0.005231  -0.035679   0.000435
    14  N    0.000000   0.000000  -0.000342   0.000031  -0.000127   0.000022
    15  C    0.001218  -0.034057  -0.145826   0.005422  -0.126172   0.006138
    16  C    0.007850  -0.012501   0.785293  -0.286497  -0.756969   0.137776
    17  C   -0.023272   0.018826   0.240912  -0.313319  -0.650586   0.170949
    18  C   -0.113382  -0.122526  -1.488409   0.036088  -0.273139   0.215932
    19  C   -0.066482  -0.794135  -2.771812   0.226870  -0.734766   0.089836
    20  N    0.028114   0.299502   0.592087  -0.885648  -2.378217   0.065370
    21  C    0.212010  -0.673280   0.920994  -0.531572  -0.171369   0.230634
    22  N   -0.023574   0.074874   0.024144   0.012722  -0.018244  -0.003128
    23  H    0.411932  -0.035306  -0.018718   0.000393   0.000130   0.000005
    24  H    0.416041  -0.096153   0.030688  -0.000803  -0.001209   0.000024
    25  H    0.433213  -0.143896   0.034000   0.000936   0.011708   0.000003
    26  H   -0.023566   0.316639   0.022969  -0.000917   0.026631   0.000988
    27  H   -0.017221   0.319979  -0.045836   0.014004   0.040637  -0.000166
    28  H    0.011999  -0.208025   0.409217  -0.057874   0.156818   0.007428
    29  H   -0.027182  -0.131318   0.389195   0.047239   0.154035  -0.000753
    30  H   -0.003059   0.064814   0.010562   0.050570   0.746873  -0.113964
    31  H    0.002176   0.009025   0.171059   0.062397   0.774785  -0.094158
    32  H   -0.000005   0.000008   0.001623   0.000109  -0.021140  -0.013394
    33  H    0.000002   0.000004   0.000077   0.000010  -0.000358   0.000129
    34  H    0.000082  -0.000107  -0.000261   0.000140   0.003614  -0.000494
               7          8          9         10         11         12
     1  C   -0.081364  -0.001201  -0.001958   0.000374   0.000059  -0.000001
     2  C    0.461094   0.056122   0.020978  -0.003022  -0.000002  -0.000005
     3  C   -0.539308   0.215560   0.215686  -0.088401  -0.014978   0.000037
     4  O    0.510733   0.018420  -0.048373   0.013146   0.001985  -0.000002
     5  C   -0.931689   0.450436  -0.157465   0.056098   0.009829   0.000125
     6  O   -0.542648  -0.244717   0.018128   0.008339   0.000024  -0.000017
     7  C   14.318458   1.227491  -3.008479   1.853613   0.376771  -0.002789
     8  C    1.227491   8.828515  -0.895671   0.938633  -0.255014   0.039880
     9  C   -3.008479  -0.895671  13.510560  -3.092952  -3.809301   0.275237
    10  C    1.853613   0.938633  -3.092952  10.628769   0.543131   0.112610
    11  C    0.376771  -0.255014  -3.809301   0.543131  11.532281  -0.417960
    12  N   -0.002789   0.039880   0.275237   0.112610  -0.417960   7.455368
    13  C   -1.127249  -0.776631   2.145968  -4.739980  -1.718793   0.077354
    14  N    0.071583   0.103745  -0.192313   0.553432   0.050812  -0.002475
    15  C    0.231988  -0.850215  -0.338887   0.397370   0.893207  -0.064112
    16  C   -3.286365  -1.122290   3.005343  -2.038438  -1.286383   0.074569
    17  C    0.167061   0.090057  -1.572065   0.015115   0.145153   0.000977
    18  C    0.152437  -0.492366  -0.698072   0.052274   0.035377  -0.001399
    19  C    1.198645  -0.626074  -0.538071   0.203346   0.050148  -0.000370
    20  N    0.279664  -0.050599   0.050495  -0.018723  -0.002050  -0.000001
    21  C   -5.032447  -0.487942  -0.249378   0.019659  -0.033410   0.000660
    22  N    0.178830   0.013153   0.013134  -0.001663  -0.000182   0.000005
    23  H   -0.000645  -0.000015  -0.000008   0.000000   0.000000   0.000000
    24  H   -0.003200  -0.000149  -0.000055  -0.000001  -0.000000   0.000000
    25  H    0.000273   0.000049   0.000009   0.000001   0.000000   0.000000
    26  H   -0.026130  -0.000511  -0.000967  -0.000033  -0.000001   0.000000
    27  H    0.022200   0.002757   0.000510   0.000183   0.000042   0.000000
    28  H   -0.053282   0.005005  -0.002628  -0.000034   0.000014   0.000000
    29  H    0.033940  -0.002682  -0.001644   0.000188   0.000011  -0.000000
    30  H   -0.022183   0.011882   0.000005   0.000136  -0.000015   0.000000
    31  H   -0.049363   0.060334  -0.001041   0.000301   0.000158   0.000000
    32  H   -0.039316   0.335773  -0.001322  -0.052904   0.000069  -0.000140
    33  H   -0.009723  -0.018619  -0.015547  -0.018306  -0.023310   0.001035
    34  H    0.006188   0.001143   0.021810   0.004925   0.002992   0.000084
              13         14         15         16         17         18
     1  C   -0.000011   0.000000   0.001218   0.007850  -0.023272  -0.113382
     2  C    0.000534   0.000000  -0.034057  -0.012501   0.018826  -0.122526
     3  C    0.035690  -0.000342  -0.145826   0.785293   0.240912  -1.488409
     4  O   -0.005231   0.000031   0.005422  -0.286497  -0.313319   0.036088
     5  C   -0.035679  -0.000127  -0.126172  -0.756969  -0.650586  -0.273139
     6  O    0.000435   0.000022   0.006138   0.137776   0.170949   0.215932
     7  C   -1.127249   0.071583   0.231988  -3.286365   0.167061   0.152437
     8  C   -0.776631   0.103745  -0.850215  -1.122290   0.090057  -0.492366
     9  C    2.145968  -0.192313  -0.338887   3.005343  -1.572065  -0.698072
    10  C   -4.739980   0.553432   0.397370  -2.038438   0.015115   0.052274
    11  C   -1.718793   0.050812   0.893207  -1.286383   0.145153   0.035377
    12  N    0.077354  -0.002475  -0.064112   0.074569   0.000977  -0.001399
    13  C   13.747483  -0.570488  -1.160226   1.452025  -0.653483  -0.162238
    14  N   -0.570488   7.467969   0.066512  -0.035944   0.028070   0.003629
    15  C   -1.160226   0.066512   9.474196  -2.521785  -1.187492   0.124673
    16  C    1.452025  -0.035944  -2.521785  16.208521  -1.938282  -2.290955
    17  C   -0.653483   0.028070  -1.187492  -1.938282  10.665856   2.842888
    18  C   -0.162238   0.003629   0.124673  -2.290955   2.842888  11.736746
    19  C   -0.089749   0.001459   0.606835  -1.502611  -0.881792   1.399876
    20  N    0.004857  -0.000056  -0.024988   0.159083   0.261198  -0.422582
    21  C   -0.002022   0.000251   0.880720   1.866290  -2.653439  -5.227652
    22  N    0.000588  -0.000002  -0.016810  -0.053706   0.181890   0.532651
    23  H   -0.000000   0.000000   0.000004  -0.000162  -0.000578  -0.003570
    24  H   -0.000000   0.000000   0.000047  -0.000200  -0.006324  -0.029111
    25  H    0.000000   0.000000  -0.000004  -0.000198   0.000036   0.003539
    26  H   -0.000017   0.000000  -0.000417  -0.005056  -0.001596  -0.019870
    27  H   -0.000017   0.000000  -0.002573  -0.023408   0.017817   0.059364
    28  H   -0.000049   0.000000  -0.006839  -0.049690   0.032061   0.019071
    29  H   -0.000049   0.000000   0.000488  -0.013157  -0.056958   0.084312
    30  H    0.000096   0.000001   0.000975   0.007338  -0.010577  -0.032388
    31  H   -0.000348   0.000004  -0.009156  -0.062595  -0.099822  -0.179196
    32  H    0.044639   0.001147  -0.005745   0.000794   0.051556   0.006386
    33  H    0.030995  -0.000167   0.235977   0.124198   0.025120  -0.006438
    34  H   -0.002248   0.000004   0.081907   0.195358  -0.072137   0.008507
              19         20         21         22         23         24
     1  C   -0.066482   0.028114   0.212010  -0.023574   0.411932   0.416041
     2  C   -0.794135   0.299502  -0.673280   0.074874  -0.035306  -0.096153
     3  C   -2.771812   0.592087   0.920994   0.024144  -0.018718   0.030688
     4  O    0.226870  -0.885648  -0.531572   0.012722   0.000393  -0.000803
     5  C   -0.734766  -2.378217  -0.171369  -0.018244   0.000130  -0.001209
     6  O    0.089836   0.065370   0.230634  -0.003128   0.000005   0.000024
     7  C    1.198645   0.279664  -5.032447   0.178830  -0.000645  -0.003200
     8  C   -0.626074  -0.050599  -0.487942   0.013153  -0.000015  -0.000149
     9  C   -0.538071   0.050495  -0.249378   0.013134  -0.000008  -0.000055
    10  C    0.203346  -0.018723   0.019659  -0.001663   0.000000  -0.000001
    11  C    0.050148  -0.002050  -0.033410  -0.000182   0.000000  -0.000000
    12  N   -0.000370  -0.000001   0.000660   0.000005   0.000000   0.000000
    13  C   -0.089749   0.004857  -0.002022   0.000588  -0.000000  -0.000000
    14  N    0.001459  -0.000056   0.000251  -0.000002   0.000000   0.000000
    15  C    0.606835  -0.024988   0.880720  -0.016810   0.000004   0.000047
    16  C   -1.502611   0.159083   1.866290  -0.053706  -0.000162  -0.000200
    17  C   -0.881792   0.261198  -2.653439   0.181890  -0.000578  -0.006324
    18  C    1.399876  -0.422582  -5.227652   0.532651  -0.003570  -0.029111
    19  C   11.437399  -1.077577  -0.850638  -0.147444   0.002205  -0.000463
    20  N   -1.077577  12.002445   0.274531  -0.026122   0.000300   0.000722
    21  C   -0.850638   0.274531  18.007129  -0.660718   0.006000   0.038048
    22  N   -0.147444  -0.026122  -0.660718   7.449955  -0.000035  -0.002122
    23  H    0.002205   0.000300   0.006000  -0.000035   0.523834  -0.021104
    24  H   -0.000463   0.000722   0.038048  -0.002122  -0.021104   0.536618
    25  H    0.016692  -0.002920  -0.007303   0.000282  -0.023632  -0.028349
    26  H   -0.013701   0.006920   0.038150  -0.000212  -0.003153   0.004581
    27  H    0.055150  -0.018077  -0.129663   0.002767  -0.002854  -0.004630
    28  H    0.121903  -0.277753  -0.044163   0.014236   0.000011   0.007249
    29  H    0.208734  -0.428183  -0.120876   0.000979   0.000106  -0.000447
    30  H   -0.204193  -0.418759   0.019309   0.000252   0.000000  -0.000002
    31  H   -0.014379  -0.437696  -0.053138   0.004309  -0.000001  -0.000003
    32  H   -0.000113   0.000486   0.001559   0.000003   0.000000  -0.000000
    33  H   -0.001773   0.000015  -0.007979   0.000086  -0.000000  -0.000000
    34  H    0.024282  -0.000062   0.033756   0.000626   0.000000   0.000000
              25         26         27         28         29         30
     1  C    0.433213  -0.023566  -0.017221   0.011999  -0.027182  -0.003059
     2  C   -0.143896   0.316639   0.319979  -0.208025  -0.131318   0.064814
     3  C    0.034000   0.022969  -0.045836   0.409217   0.389195   0.010562
     4  O    0.000936  -0.000917   0.014004  -0.057874   0.047239   0.050570
     5  C    0.011708   0.026631   0.040637   0.156818   0.154035   0.746873
     6  O    0.000003   0.000988  -0.000166   0.007428  -0.000753  -0.113964
     7  C    0.000273  -0.026130   0.022200  -0.053282   0.033940  -0.022183
     8  C    0.000049  -0.000511   0.002757   0.005005  -0.002682   0.011882
     9  C    0.000009  -0.000967   0.000510  -0.002628  -0.001644   0.000005
    10  C    0.000001  -0.000033   0.000183  -0.000034   0.000188   0.000136
    11  C    0.000000  -0.000001   0.000042   0.000014   0.000011  -0.000015
    12  N    0.000000   0.000000   0.000000   0.000000  -0.000000   0.000000
    13  C    0.000000  -0.000017  -0.000017  -0.000049  -0.000049   0.000096
    14  N    0.000000   0.000000   0.000000   0.000000   0.000000   0.000001
    15  C   -0.000004  -0.000417  -0.002573  -0.006839   0.000488   0.000975
    16  C   -0.000198  -0.005056  -0.023408  -0.049690  -0.013157   0.007338
    17  C    0.000036  -0.001596   0.017817   0.032061  -0.056958  -0.010577
    18  C    0.003539  -0.019870   0.059364   0.019071   0.084312  -0.032388
    19  C    0.016692  -0.013701   0.055150   0.121903   0.208734  -0.204193
    20  N   -0.002920   0.006920  -0.018077  -0.277753  -0.428183  -0.418759
    21  C   -0.007303   0.038150  -0.129663  -0.044163  -0.120876   0.019309
    22  N    0.000282  -0.000212   0.002767   0.014236   0.000979   0.000252
    23  H   -0.023632  -0.003153  -0.002854   0.000011   0.000106   0.000000
    24  H   -0.028349   0.004581  -0.004630   0.007249  -0.000447  -0.000002
    25  H    0.549293  -0.004872   0.004879  -0.000923   0.005279   0.000002
    26  H   -0.004872   0.543610  -0.024370   0.005424  -0.004405  -0.000107
    27  H    0.004879  -0.024370   0.564862  -0.002302   0.006641  -0.000011
    28  H   -0.000923   0.005424  -0.002302   0.731161   0.003647  -0.007033
    29  H    0.005279  -0.004405   0.006641   0.003647   0.661543  -0.008190
    30  H    0.000002  -0.000107  -0.000011  -0.007033  -0.008190   0.662301
    31  H    0.000001   0.000049  -0.000070   0.013054  -0.002635   0.046544
    32  H    0.000000   0.000000   0.000000   0.000000  -0.000000   0.000001
    33  H    0.000000  -0.000000   0.000000  -0.000000   0.000000   0.000000
    34  H   -0.000000   0.000000  -0.000010   0.000027   0.000000  -0.000001
              31         32         33         34
     1  C    0.002176  -0.000005   0.000002   0.000082
     2  C    0.009025   0.000008   0.000004  -0.000107
     3  C    0.171059   0.001623   0.000077  -0.000261
     4  O    0.062397   0.000109   0.000010   0.000140
     5  C    0.774785  -0.021140  -0.000358   0.003614
     6  O   -0.094158  -0.013394   0.000129  -0.000494
     7  C   -0.049363  -0.039316  -0.009723   0.006188
     8  C    0.060334   0.335773  -0.018619   0.001143
     9  C   -0.001041  -0.001322  -0.015547   0.021810
    10  C    0.000301  -0.052904  -0.018306   0.004925
    11  C    0.000158   0.000069  -0.023310   0.002992
    12  N    0.000000  -0.000140   0.001035   0.000084
    13  C   -0.000348   0.044639   0.030995  -0.002248
    14  N    0.000004   0.001147  -0.000167   0.000004
    15  C   -0.009156  -0.005745   0.235977   0.081907
    16  C   -0.062595   0.000794   0.124198   0.195358
    17  C   -0.099822   0.051556   0.025120  -0.072137
    18  C   -0.179196   0.006386  -0.006438   0.008507
    19  C   -0.014379  -0.000113  -0.001773   0.024282
    20  N   -0.437696   0.000486   0.000015  -0.000062
    21  C   -0.053138   0.001559  -0.007979   0.033756
    22  N    0.004309   0.000003   0.000086   0.000626
    23  H   -0.000001   0.000000  -0.000000   0.000000
    24  H   -0.000003  -0.000000  -0.000000   0.000000
    25  H    0.000001   0.000000   0.000000  -0.000000
    26  H    0.000049   0.000000  -0.000000   0.000000
    27  H   -0.000070   0.000000   0.000000  -0.000010
    28  H    0.013054   0.000000  -0.000000   0.000027
    29  H   -0.002635  -0.000000   0.000000   0.000000
    30  H    0.046544   0.000001   0.000000  -0.000001
    31  H    0.730203  -0.000030   0.000000  -0.000018
    32  H   -0.000030   0.521079  -0.000073   0.000009
    33  H    0.000000  -0.000073   0.527032  -0.005573
    34  H   -0.000018   0.000009  -0.005573   0.534754
 Mulliken charges:
               1
     1  C   -0.513639
     2  C    0.030797
     3  C   -0.544581
     4  O   -0.209792
     5  C    0.059444
     6  O   -0.356678
     7  C   -0.334789
     8  C   -0.574259
     9  C    1.348330
    10  C    0.652813
    11  C   -0.080663
    12  N   -0.548670
    13  C   -0.496154
    14  N   -0.546758
    15  C   -0.512373
    16  C   -0.737246
    17  C    1.166180
    18  C    0.249546
    19  C    0.672766
    20  N   -0.555773
    21  C    0.387288
    22  N   -0.551526
    23  H    0.164861
    24  H    0.160310
    25  H    0.151899
    26  H    0.163938
    27  H    0.159416
    28  H    0.172270
    29  H    0.202142
    30  H    0.198822
    31  H    0.129250
    32  H    0.168944
    33  H    0.163185
    34  H    0.160700
 Sum of Mulliken charges =  -0.00000
 Mulliken charges with hydrogens summed into heavy atoms:
               1
     1  C   -0.036569
     2  C    0.354152
     3  C   -0.170169
     4  O   -0.209792
     5  C    0.258266
     6  O   -0.356678
     7  C   -0.334789
     8  C   -0.405315
     9  C    1.348330
    10  C    0.652813
    11  C   -0.080663
    12  N   -0.548670
    13  C   -0.496154
    14  N   -0.546758
    15  C   -0.349188
    16  C   -0.576546
    17  C    1.166180
    18  C    0.249546
    19  C    0.802016
    20  N   -0.555773
    21  C    0.387288
    22  N   -0.551526
 Electronic spatial extent (au):  <R**2>=           7084.2202
 Charge=             -0.0000 electrons
 Dipole moment (field-independent basis, Debye):
    X=            -11.0369    Y=             -2.3485    Z=              0.1413  Tot=             11.2849
 Quadrupole moment (field-independent basis, Debye-Ang):
   XX=           -166.2920   YY=           -147.8880   ZZ=           -127.7635
   XY=             11.2770   XZ=            -11.4247   YZ=              3.6894
 Traceless Quadrupole moment (field-independent basis, Debye-Ang):
   XX=            -18.9775   YY=             -0.5735   ZZ=             19.5510
   XY=             11.2770   XZ=            -11.4247   YZ=              3.6894
 Octapole moment (field-independent basis, Debye-Ang**2):
  XXX=           -361.1338  YYY=            -39.5517  ZZZ=             10.3759  XYY=            -62.3381
  XXY=            -40.7404  XXZ=              0.1476  XZZ=            -19.2459  YZZ=             -7.6291
  YYZ=              7.3527  XYZ=             -8.4791
 Hexadecapole moment (field-independent basis, Debye-Ang**3):
 XXXX=          -9327.0564 YYYY=          -1835.3510 ZZZZ=           -596.4700 XXXY=            -29.3356
 XXXZ=           -296.7507 YYYX=            163.1519 YYYZ=             39.3584 ZZZX=            -43.6398
 ZZZY=             12.6425 XXYY=          -2074.9997 XXZZ=          -1384.3613 YYZZ=           -402.5458
 XXYZ=             29.4315 YYXZ=            -94.8202 ZZXY=              4.2240
 N-N= 1.747456740802D+03 E-N=-5.783504222561D+03  KE= 9.826177259964D+02
 Unable to Open any file for archive entry.
 1\1\GINC-N1\SP\RB3LYP TD-FC\6-31+G(d,p)\C16H12N4O2\HPCMGAC13\27-Aug-20
 25\0\\# td=(50-50,nstates=3) b3lyp/6-31+g(d,p) geom=connectivity\\Titl
 e Card Required\\0,1\C,0,1.44477445,-3.65996019,3.51303973\C,0,0.99331
 912,-2.38818221,2.80725325\C,0,2.05971502,-1.95403041,1.81034009\O,0,1
 .64414045,-0.78325426,1.1606523\C,0,2.6618,-0.436,0.261\O,0,2.06647726
 ,0.71916561,-0.26514497\C,0,0.8784906,0.42587643,-0.84702765\C,0,0.175
 64997,1.42635676,-1.40276697\C,0,-1.15334061,1.22500694,-2.076572\C,0,
 -1.85300618,2.22098233,-2.62987934\C,0,-3.00824929,1.97273575,-3.20239
 858\N,0,-4.02710923,1.75379387,-3.70732607\C,0,-1.38482492,3.4473637,-
 2.60062556\N,0,-0.97194967,4.52887337,-2.57487874\C,0,-1.61969039,-0.2
 0453111,-2.06819141\C,0,-0.91675018,-1.20500411,-1.51245751\C,0,0.4122
 404,-1.00365429,-0.83865248\C,0,1.11190023,-1.99962542,-0.28544488\C,0
 ,2.26714334,-1.75137884,0.28707435\N,0,3.28599621,-1.53233732,0.792006
 51\C,0,0.6438243,-3.22600372,-0.31460435\N,0,0.23095612,-4.30761304,-0
 .34035583\H,0,0.66545255,-3.97715592,4.24166773\H,0,1.59903921,-4.4660
 0119,2.76116913\H,0,2.39921712,-3.46633395,4.0518082\H,0,0.83906169,-1
 .58204158,3.55911959\H,0,0.03887104,-2.58180379,2.26858453\H,0,2.21397
 978,-2.7600714,1.05846949\H,0,3.01416311,-1.76040883,2.34900882\H,0,3.
 6238,-0.2173,0.7764\H,0,2.8247,-1.2176,-0.5144\H,0,0.59292797,2.443391
 38,-1.36298437\H,0,-2.58415829,-0.44261048,-2.54057381\H,0,-1.33392859
 ,-2.2220314,-1.55224553\\Version=ES64L-G16RevC.02\State=1-A\HF=-985.15
 85274\RMSD=8.324e-09\PG=C01 [X(C16H12N4O2)]\\@
 The archive entry for this job was punched.


          EVOLUTION
 IN THE BEGINNING GOD MADE MAN.
 HE WORKED THE DIRT WITH HIS HANDS.
 THEN GOD DECIDED TO GIVE MAN SCIENCE,
 MAN SHOULD BE USEFUL (LIKE AN APPLIANCE.)
 BUT SOON MAN'S KNOWLEDGE GREW TOO GREAT,
 TO THE HEADING SCIENCE HE COULDN'T RELATE
 SO GOD SAID "LETS HAVE DIFFERENT FIELDS,
 WE'LL DIVIDE THEM UP, SEE WHAT IT YIELDS."
 ENTER PHYSICS, CHEMISTRY, BIO
 THEY SPRANG UP AROUND THE NILE.
 BUT CHEMISTRY SURPASSED THE REST
 FAR AND AWAY IT WAS THE BEST.
 EXPERIMENT WAS GOD'S DECREE
 EXPERIMENT DID CHEMISTS WITH LOTS OF GLEE
 BUT SOON THEIR TESTS BEGAN TO BOG,
 THEY FOUND THEMSELVES DEEP IN A FOG.
 "GIVE US SOME HELP" THEY CRIED TO GOD.
 GOD LOOKED AROUND, THEN GAVE THE NOD.
 ENTER EINSTEIN, HEISENBERG, BOHR,
 REACTION PATHS WERE CLEAR ONCE MORE.
 WITH THEORISTS GOD SEND DIRECTION
 AND THEN HE STOPPED, HE'D MADE PERFECTION.
          -- THOMAS A. HOLME, 1981
 Job cpu time:       0 days  1 hours 28 minutes  3.7 seconds.
 Elapsed time:       0 days  0 hours  5 minutes 39.4 seconds.
 File lengths (MBytes):  RWF=   1287 Int=      0 D2E=      0 Chk=     59 Scr=      2
 Normal termination of Gaussian 16 at Wed Aug 27 07:51:35 2025.
