 Entering Gaussian System, Link 0=g16
 Input=M494e.gjf
 Output=M494e.log
 Initial command:
 /hpc/softwares/Gaussian/g16/l1.exe "/hpc/home/hpcmgac13/pbs.13910.admin1.x8z/Gau-1019969.inp" -scrdir="/hpc/home/hpcmgac13/pbs.13910.admin1.x8z/"
 Default linda workers: n1
 Default is to use  16 SMP processors on each worker.
 Entering Link 1 = /hpc/softwares/Gaussian/g16/l1.exe PID=   1019970.
  
 Copyright (c) 1988-2021, Gaussian, Inc.  All Rights Reserved.
  
 This is part of the Gaussian(R) 16 program.  It is based on
 the Gaussian(R) 09 system (copyright 2009, Gaussian, Inc.),
 the Gaussian(R) 03 system (copyright 2003, Gaussian, Inc.),
 the Gaussian(R) 98 system (copyright 1998, Gaussian, Inc.),
 the Gaussian(R) 94 system (copyright 1995, Gaussian, Inc.),
 the Gaussian 92(TM) system (copyright 1992, Gaussian, Inc.),
 the Gaussian 90(TM) system (copyright 1990, Gaussian, Inc.),
 the Gaussian 88(TM) system (copyright 1988, Gaussian, Inc.),
 the Gaussian 86(TM) system (copyright 1986, Carnegie Mellon
 University), and the Gaussian 82(TM) system (copyright 1983,
 Carnegie Mellon University). Gaussian is a federally registered
 trademark of Gaussian, Inc.
  
 This software contains proprietary and confidential information,
 including trade secrets, belonging to Gaussian, Inc.
  
 This software is provided under written license and may be
 used, copied, transmitted, or stored only in accord with that
 written license.
  
 The following legend is applicable only to US Government
 contracts under FAR:
  
                    RESTRICTED RIGHTS LEGEND
  
 Use, reproduction and disclosure by the US Government is
 subject to restrictions as set forth in subparagraphs (a)
 and (c) of the Commercial Computer Software - Restricted
 Rights clause in FAR 52.227-19.
  
 Gaussian, Inc.
 340 Quinnipiac St., Bldg. 40, Wallingford CT 06492
  
  
 ---------------------------------------------------------------
 Warning -- This program may not be used in any manner that
 competes with the business of Gaussian, Inc. or will provide
 assistance to any competitor of Gaussian, Inc.  The licensee
 of this program is prohibited from giving any competitor of
 Gaussian, Inc. access to this program.  By using this program,
 the user acknowledges that Gaussian, Inc. is engaged in the
 business of creating and licensing software in the field of
 computational chemistry and represents and warrants to the
 licensee that it is not a competitor of Gaussian, Inc. and that
 it will not use this program in any manner prohibited above.
 ---------------------------------------------------------------
  

 Cite this work as:
 Gaussian 16, Revision C.02,
 M. J. Frisch, G. W. Trucks, H. B. Schlegel, G. E. Scuseria, 
 M. A. Robb, J. R. Cheeseman, G. Scalmani, V. Barone, 
 G. A. Petersson, H. Nakatsuji, X. Li, M. Caricato, A. V. Marenich, 
 J. Bloino, B. G. Janesko, R. Gomperts, B. Mennucci, H. P. Hratchian, 
 J. V. Ortiz, A. F. Izmaylov, J. L. Sonnenberg, D. Williams-Young, 
 F. Ding, F. Lipparini, F. Egidi, J. Goings, B. Peng, A. Petrone, 
 T. Henderson, D. Ranasinghe, V. G. Zakrzewski, J. Gao, N. Rega, 
 G. Zheng, W. Liang, M. Hada, M. Ehara, K. Toyota, R. Fukuda, 
 J. Hasegawa, M. Ishida, T. Nakajima, Y. Honda, O. Kitao, H. Nakai, 
 T. Vreven, K. Throssell, J. A. Montgomery, Jr., J. E. Peralta, 
 F. Ogliaro, M. J. Bearpark, J. J. Heyd, E. N. Brothers, K. N. Kudin, 
 V. N. Staroverov, T. A. Keith, R. Kobayashi, J. Normand, 
 K. Raghavachari, A. P. Rendell, J. C. Burant, S. S. Iyengar, 
 J. Tomasi, M. Cossi, J. M. Millam, M. Klene, C. Adamo, R. Cammi, 
 J. W. Ochterski, R. L. Martin, K. Morokuma, O. Farkas, 
 J. B. Foresman, and D. J. Fox, Gaussian, Inc., Wallingford CT, 2019.
 
 ******************************************
 Gaussian 16:  ES64L-G16RevC.02  7-Dec-2021
                10-Sep-2025 
 ******************************************
 SetLPE:    new flags="-opt 'Tsnet.Node.lindarsharg: ssh'  -nodelist 'n1' -env GAUSS_MDEF=2147483648 -env GAUSS_EXEDIR="/hpc/softwares/Gaussian/g16/bsd:/hpc/softwares/Gaussian/g16""
 Will use up to    1 processors via Linda.
 ----------------------------------------------------------
 # td=(50-50,nstates=3) b3lyp/6-31+g(d,p) geom=connectivity
 ----------------------------------------------------------
 1/38=1,57=2,172=1/1;
 2/12=2,17=6,18=5,40=1/2;
 3/5=1,6=6,7=111,11=9,25=1,30=1,74=-5/1,2,3,8;
 4//1;
 5/5=2,38=5/2;
 8/6=1,10=2,108=3/1;
 9/41=3,42=1,48=2,70=2/14;
 6/7=2,8=2,9=2,10=2/1;
 99/5=1,9=1/99;
 -------------------
 Title Card Required
 -------------------
 Symbolic Z-matrix:
 Charge =  0 Multiplicity = 1
 C                     5.87029  -4.04521   1.31836 
 C                     5.3459   -3.33166   0.06703 
 C                     4.73961  -1.95588   0.37318 
 C                     4.21189  -1.24194  -0.89153 
 C                     3.66273   0.14202  -0.61261 
 C                     4.64694   1.1688   -0.50042 
 N                     5.47668   1.9862   -0.41734 
 C                     2.32808   0.46792  -0.42742 
 C                     1.91078   1.8237   -0.14792 
 C                     0.59913   2.15616   0.0397 
 O                     0.15772   3.40298   0.30149 
 C                     1.09134   4.47856   0.39734 
 C                    -0.45563   1.14732  -0.03206 
 C                    -1.80987   1.41596   0.14769 
 C                    -2.79919   0.39719   0.06874 
 C                    -3.68786  -0.44303   0.01081 
 Si                   -5.06693  -1.67698  -0.06836 
 C                    -4.31193  -3.38687  -0.33998 
 C                    -6.00424  -1.60942   1.56818 
 C                    -6.19116  -1.20416  -1.50871 
 C                    -2.36388   2.71065   0.42501 
 N                    -2.937     3.69968   0.6515 
 C                    -0.02279  -0.20426  -0.31095 
 C                     1.27995  -0.53143  -0.49989 
 H                     6.29767  -5.02203   1.06849 
 H                     6.65179  -3.45582   1.81155 
 H                     5.06815  -4.20909   2.04745 
 H                     4.59091  -3.96113  -0.4245 
 H                     6.16368  -3.21257  -0.65666 
 H                     5.49403  -1.32164   0.85644 
 H                     3.91773  -2.06372   1.09354 
 H                     3.44882  -1.86147  -1.37165 
 H                     5.03221  -1.15052  -1.6139 
 H                     2.6755    2.58736  -0.08929 
 H                     1.80461   4.3051    1.21105 
 H                     1.63037   4.61305  -0.5473 
 H                     0.49121   5.3624    0.61155 
 H                    -5.09761  -4.14988  -0.39148 
 H                    -3.74442  -3.42718  -1.2761 
 H                    -3.63545  -3.65751   0.47801 
 H                    -6.84018  -2.319     1.56236 
 H                    -6.41136  -0.60889   1.74833 
 H                    -5.35168  -1.86281   2.41043 
 H                    -6.60231  -0.19811  -1.3742 
 H                    -5.64725  -1.2202   -2.45916 
 H                    -7.03071  -1.90509  -1.58749 
 H                    -0.78675  -0.97134  -0.36718 
 H                     1.53805  -1.56378  -0.70162 
 
                          Input orientation:                          
 ---------------------------------------------------------------------
 Center     Atomic      Atomic             Coordinates (Angstroms)
 Number     Number       Type             X           Y           Z
 ---------------------------------------------------------------------
      1          6           0        5.870288   -4.045212    1.318360
      2          6           0        5.345901   -3.331657    0.067028
      3          6           0        4.739613   -1.955884    0.373181
      4          6           0        4.211887   -1.241943   -0.891532
      5          6           0        3.662729    0.142015   -0.612610
      6          6           0        4.646944    1.168798   -0.500418
      7          7           0        5.476680    1.986202   -0.417344
      8          6           0        2.328076    0.467920   -0.427422
      9          6           0        1.910780    1.823700   -0.147923
     10          6           0        0.599130    2.156164    0.039704
     11          8           0        0.157717    3.402976    0.301488
     12          6           0        1.091340    4.478564    0.397343
     13          6           0       -0.455629    1.147318   -0.032062
     14          6           0       -1.809871    1.415958    0.147694
     15          6           0       -2.799194    0.397186    0.068736
     16          6           0       -3.687855   -0.443031    0.010811
     17         14           0       -5.066929   -1.676975   -0.068360
     18          6           0       -4.311934   -3.386870   -0.339976
     19          6           0       -6.004241   -1.609424    1.568183
     20          6           0       -6.191162   -1.204156   -1.508713
     21          6           0       -2.363875    2.710652    0.425011
     22          7           0       -2.936998    3.699683    0.651499
     23          6           0       -0.022793   -0.204258   -0.310948
     24          6           0        1.279945   -0.531429   -0.499885
     25          1           0        6.297669   -5.022027    1.068493
     26          1           0        6.651788   -3.455821    1.811550
     27          1           0        5.068145   -4.209092    2.047447
     28          1           0        4.590911   -3.961131   -0.424497
     29          1           0        6.163679   -3.212565   -0.656659
     30          1           0        5.494034   -1.321644    0.856435
     31          1           0        3.917732   -2.063718    1.093538
     32          1           0        3.448820   -1.861467   -1.371651
     33          1           0        5.032206   -1.150522   -1.613899
     34          1           0        2.675496    2.587363   -0.089288
     35          1           0        1.804608    4.305104    1.211054
     36          1           0        1.630370    4.613053   -0.547296
     37          1           0        0.491212    5.362402    0.611553
     38          1           0       -5.097613   -4.149880   -0.391482
     39          1           0       -3.744417   -3.427178   -1.276098
     40          1           0       -3.635450   -3.657509    0.478008
     41          1           0       -6.840183   -2.319001    1.562358
     42          1           0       -6.411362   -0.608888    1.748332
     43          1           0       -5.351679   -1.862809    2.410434
     44          1           0       -6.602305   -0.198106   -1.374203
     45          1           0       -5.647250   -1.220197   -2.459160
     46          1           0       -7.030709   -1.905094   -1.587487
     47          1           0       -0.786746   -0.971338   -0.367176
     48          1           0        1.538051   -1.563784   -0.701620
 ---------------------------------------------------------------------
                    Distance matrix (angstroms):
                    1          2          3          4          5
     1  C    0.000000
     2  C    1.532963   0.000000
     3  C    2.556772   1.534297   0.000000
     4  C    3.936017   2.563538   1.545220   0.000000
     5  C    5.112224   3.919359   2.555904   1.514831   0.000000
     6  C    5.656008   4.589622   3.245828   2.480709   1.426727
     7  N    6.288525   5.341474   4.087571   3.499354   2.594142
     8  C    5.996948   4.877349   3.511595   2.586073   1.386293
     9  C    7.229925   6.198707   4.749642   3.904640   2.472514
    10  C    8.238758   7.255947   5.844976   5.046419   3.723969
    11  O    9.441557   8.504558   7.050978   6.279718   4.873864
    12  C    9.815364   8.899997   7.396797   6.642531   5.141761
    13  C    8.294771   7.329992   6.065033   5.313470   4.278848
    14  C    9.496298   8.587865   7.369932   6.663783   5.670127
    15  C    9.821221   8.958060   7.903369   7.263891   6.502753
    16  C   10.297742   9.484517   8.569846   7.991146   7.400136
    17  Si  11.276270  10.544351   9.820439   9.325411   8.933748
    18  C   10.337366   9.666565   9.191671   8.806841   8.724827
    19  C   12.124352  11.577792  10.815658  10.514491  10.063484
    20  C   12.709938  11.836936  11.117035  10.421409   9.985707
    21  C   10.688368   9.801954   8.499340   7.784404   6.632836
    22  N   11.747186  10.880614   9.539038   8.826504   7.603379
    23  C    7.220525   6.224658   5.120228   4.398452   3.714024
    24  C    6.060028   4.969373   3.841955   3.042121   2.478688
    25  H    1.095105   2.183150   3.508879   4.741436   6.036253
    26  H    1.096066   2.182685   2.824027   4.261575   5.268344
    27  H    1.096293   2.183827   2.826313   4.263185   5.289918
    28  H    2.163660   1.099020   2.163196   2.784917   4.211023
    29  H    2.163349   1.098484   2.160505   2.783524   4.184483
    30  H    2.787968   2.164546   1.097700   2.169249   2.766599
    31  H    2.790939   2.168193   1.098194   2.168489   2.800219
    32  H    4.227104   2.798244   2.172441   1.093890   2.153100
    33  H    4.204730   2.771510   2.163956   1.096857   2.132768
    34  H    7.495280   6.495406   5.011542   4.203294   2.688535
    35  H    9.288113   8.495273   6.965361   6.401999   4.910160
    36  H    9.819528   8.792098   7.325681   6.408097   4.911714
    37  H   10.859891   9.972521   8.465403   7.727876   6.229730
    38  H   11.100872  10.485547  10.107885   9.765907   9.757707
    39  H    9.977762   9.189505   8.767188   8.259898   8.248949
    40  H    9.550684   8.996652   8.546824   8.324139   8.299955
    41  H   12.829474  12.319177  11.646359  11.372330  11.004465
    42  H   12.760569  12.184970  11.315904  10.964628  10.374257
    43  H   11.484252  11.049311  10.295302  10.136580   9.716875
    44  H   13.327254  12.436073  11.609575  10.875170  10.298865
    45  H   12.446046  11.475594  10.791215   9.983011   9.588591
    46  H   13.396260  12.567934  11.932614  11.283620  10.931178
    47  H    7.523685   6.585514   5.661988   5.033340   4.593215
    48  H    5.385729   4.268011   3.399844   2.699824   2.726157
                    6          7          8          9         10
     6  C    0.000000
     7  N    1.167695   0.000000
     8  C    2.423573   3.495567   0.000000
     9  C    2.835444   3.579754   1.445820   0.000000
    10  C    4.201359   4.901864   2.461225   1.366075   0.000000
    11  O    5.078165   5.551156   3.722408   2.401939   1.348301
    12  C    4.939924   5.109480   4.277268   2.831448   2.400774
    13  C    5.124068   6.003704   2.892560   2.463901   1.461314
    14  C    6.493966   7.330639   4.283940   3.754582   2.522470
    15  C    7.507616   8.441051   5.151706   4.926027   3.826676
    16  C    8.504600   9.490690   6.100271   6.042183   5.013471
    17  Si  10.131359  11.167289   7.708151   7.807015   6.841700
    18  C   10.051933  11.166595   7.678332   8.118442   7.415385
    19  C   11.200240  12.193539   8.816196   8.796529   7.753735
    20  C   11.140562  12.145287   8.748854   8.755634   7.732879
    21  C    7.237770   7.918882   5.269810   4.403137   3.038966
    22  N    8.077652   8.652654   6.271313   5.259215   3.906526
    23  C    4.871101   5.920611   2.447851   2.806759   2.466037
    24  C    3.771930   4.894677   1.450010   2.463425   2.824504
    25  H    6.596415   7.210895   6.937935   8.221219   9.222699
    26  H    5.545421   5.997038   6.253257   7.361388   8.442066
    27  H    5.965796   6.680102   5.958808   7.154242   8.032410
    28  H    5.130797   6.012937   4.973623   6.381525   7.319228
    29  H    4.639099   5.249421   5.320749   6.611348   7.763529
    30  H    2.959884   3.544666   3.856698   4.872539   6.059891
    31  H    3.677174   4.595099   3.354030   4.547648   5.470931
    32  H    3.372989   4.452805   2.752032   4.176546   5.123867
    33  H    2.601444   3.386494   3.367403   4.553941   5.772412
    34  H    2.463323   2.883686   2.174183   1.082317   2.124586
    35  H    4.565570   4.638222   4.205069   2.831158   2.728219
    36  H    4.578734   4.659542   4.205151   2.831717   2.728430
    37  H    6.007737   6.108375   5.330056   3.887723   3.258622
    38  H   11.102099  12.225704   8.744497   9.211979   8.509112
    39  H    9.598938  10.727105   7.264104   7.799087   7.195238
    40  H    9.635798  10.755652   7.307709   7.822794   7.205732
    41  H   12.180881  13.196936   9.786885   9.831907   8.814134
    42  H   11.423799  12.359215   9.070347   8.875321   7.727349
    43  H   10.846021  11.834888   8.512600   8.536911   7.562052
    44  H   11.365629  12.312135   9.005092   8.835388   7.707294
    45  H   10.747762  11.755502   8.401400   8.469412   7.527377
    46  H   12.124278  13.150901   9.724392   9.794206   8.795227
    47  H    5.841483   6.926764   3.431794   3.890624   3.444920
    48  H    4.143996   5.309992   2.197077   3.452616   3.907576
                   11         12         13         14         15
    11  O    0.000000
    12  C    1.427491   0.000000
    13  C    2.361237   3.697932   0.000000
    14  C    2.800588   4.225980   1.392283   0.000000
    15  C    4.222827   5.648175   2.462754   1.422284   0.000000
    16  C    5.446530   6.871114   3.602545   2.646016   1.224352
    17  Si   7.296548   8.719623   5.407591   4.496815   3.076290
    18  C    8.154218   9.571001   5.960265   5.437398   4.095669
    19  C    8.043531   9.422406   6.399024   5.363158   4.067819
    20  C    8.050513   9.431924   6.372305   5.366972   4.069163
    21  C    2.617823   3.881339   2.508851   1.435290   2.380874
    22  N    3.128547   4.110810   3.624778   2.596081   3.356351
    23  C    3.663304   4.865366   1.446334   2.455423   2.866060
    24  C    4.169069   5.093193   2.459526   3.709264   4.221970
    25  H   10.453133  10.854379   9.212984  10.393639  10.635803
    26  H    9.565372   9.791477   8.666209   9.904662  10.353942
    27  H    9.225197   9.696040   7.970418   9.086108   9.328886
    28  H    8.626143   9.173378   7.191510   8.379171   8.593710
    29  H    8.986379   9.273242   7.950719   9.254605   9.689664
    30  H    7.148866   7.296362   6.502591   7.832229   8.506026
    31  H    6.682051   7.160631   5.541120   6.768176   7.226573
    32  H    6.430017   6.991641   5.108034   6.379949   6.798081
    33  H    6.940007   7.159758   6.156185   7.516917   8.158277
    34  H    2.675283   2.514558   3.446875   4.641860   5.898650
    35  H    2.086479   1.095886   4.077453   4.747879   6.145869
    36  H    2.086487   1.095894   4.077766   4.747598   6.146061
    37  H    2.011643   1.089591   4.367801   4.591794   5.981203
    38  H    9.227369  10.647790   7.052482   6.486795   5.115695
    39  H    8.022869   9.417309   5.769728   5.406072   4.162666
    40  H    8.016840   9.409821   5.784271   5.402029   4.160214
    41  H    9.126961  10.510624   7.437746   6.423024   5.092953
    42  H    7.832063   9.165036   6.459475   5.275961   4.108648
    43  H    7.907565   9.261644   6.244834   5.330545   4.135977
    44  H    7.840512   9.176153   6.433750   5.280984   4.110973
    45  H    7.917863   9.275995   6.200715   5.335773   4.137343
    46  H    9.133307  10.519426   7.414057   6.426304   5.094044
    47  H    4.524792   5.814906   2.170402   2.647840   2.472413
    48  H    5.251690   6.157698   3.431201   4.561664   4.821882
                   16         17         18         19         20
    16  C    0.000000
    17  Si   1.852223   0.000000
    18  C    3.029639   1.888792   0.000000
    19  C    3.025149   1.887165   3.108744   0.000000
    20  C    3.025692   1.887346   3.108325   3.109095   0.000000
    21  C    3.445316   5.176986   6.446698   5.763867   5.806301
    22  N    4.258679   5.827800   7.286474   6.199589   6.269269
    23  C    3.686899   5.260328   5.341029   6.425212   6.362642
    24  C    4.994763   6.463846   6.280782   7.648421   7.568866
    25  H   11.036149  11.901088  10.826874  12.776249  13.311237
    26  H   10.919147  12.001112  11.173049  12.792321  13.454944
    27  H    9.746724  10.658704   9.713996  11.383571  12.183920
    28  H    9.005803   9.930663   8.921747  11.034425  11.181661
    29  H   10.255172  11.350361  10.481848  12.473101  12.545987
    30  H    9.262512  10.607330  10.092253  11.523877  11.922732
    31  H    7.851362   9.067729   8.457724   9.943702  10.473791
    32  H    7.406436   8.616878   7.976247   9.902854   9.663338
    33  H    8.898297  10.230267   9.692115  11.495190  11.223989
    34  H    7.048797   8.839127   9.196656   9.782539   9.747205
    35  H    7.358840   9.200010   9.949083   9.802413  10.083720
    36  H    7.359279   9.200416   9.967584  10.073815   9.794928
    37  H    7.178339   8.994890  10.026235   9.576660   9.605693
    38  H    3.986225   2.494115   1.096416   3.334093   3.334868
    39  H    3.250303   2.504172   1.095456   4.062138   3.313985
    40  H    3.248675   2.504030   1.095433   3.315766   4.061732
    41  H    3.982930   2.493164   3.339351   1.096509   3.331004
    42  H    3.234807   2.499736   4.060272   1.095113   3.318309
    43  H    3.246886   2.502007   3.311886   1.095184   4.061806
    44  H    3.236089   2.499932   4.060005   3.317700   1.095111
    45  H    3.247148   2.502268   3.311870   4.061826   1.095193
    46  H    3.983322   2.493234   3.338215   3.331563   1.096521
    47  H    2.972947   4.348239   4.273463   5.601341   5.528564
    48  H    5.392007   6.636233   6.138139   7.876564   7.779554
                   21         22         23         24         25
    21  C    0.000000
    22  N    1.165311   0.000000
    23  C    3.810381   4.965848   0.000000
    24  C    4.964267   6.083634   1.356416   0.000000
    25  H   11.628875  12.709098   8.066102   6.913959   0.000000
    26  H   11.010452  12.020473   7.721897   6.538463   1.769332
    27  H   10.283486  11.339299   6.893357   5.862130   1.769447
    28  H    9.674885  10.794223   5.950904   4.767708   2.503506
    29  H   10.439046  11.502729   6.887805   5.573502   2.503648
    30  H    8.842639   9.815194   5.748627   4.496953   3.792576
    31  H    7.918341   8.966578   4.577981   3.441631   3.796883
    32  H    7.610499   8.706216   3.990430   2.689423   4.905036
    33  H    8.588820   9.600246   5.305291   3.962798   4.877005
    34  H    5.067047   5.769412   3.888836   3.441368   8.506669
    35  H    4.531710   4.812740   5.098061   5.156999  10.353902
    36  H    4.529735   4.809595   5.098558   5.156621  10.827244
    37  H    3.901038   3.810361   5.665943   6.049350  11.906305
    38  H    7.430133   8.208027   6.428703   7.333361  11.521485
    39  H    6.517103   7.426958   5.016893   5.850819  10.434756
    40  H    6.494089   7.392307   5.059514   5.906755  10.043776
    41  H    6.828492   7.231118   7.379581   8.566489  13.422124
    42  H    5.399322   5.642520   6.724446   8.013531  13.470614
    43  H    5.812523   6.313941   6.209166   7.363489  12.144496
    44  H    5.446314   5.721075   6.664873   7.937594  13.987362
    45  H    5.877973   6.420817   6.105855   7.231818  13.022263
    46  H    6.865464   7.292808   7.323475   8.493339  13.943284
    47  H    4.083129   5.242110   1.084065   2.117155   8.286022
    48  H    5.896196   7.039963   2.106459   1.083085   6.143835
                   26         27         28         29         30
    26  H    0.000000
    27  H    1.769460   0.000000
    28  H    3.082606   2.529772   0.000000
    29  H    2.527742   3.083091   1.757228   0.000000
    30  H    2.609090   3.152340   3.069741   2.512660   0.000000
    31  H    3.150961   2.614579   2.521463   3.070394   1.758300
    32  H    4.788918   4.452391   2.571004   3.115628   3.072243
    33  H    4.435217   4.770912   3.083657   2.539402   2.518952
    34  H    7.479583   7.515464   6.831102   6.791796   4.911098
    35  H    9.169935   9.156515   8.875199   8.888487   6.737797
    36  H    9.792115   9.817394   9.071743   9.044509   7.219348
    37  H   10.823758  10.706241  10.237636  10.359310   8.352525
    38  H   11.974285  10.454402   9.690419  11.303344  11.033549
    39  H   10.845067   9.450851   8.395715   9.929760   9.712361
    40  H   10.375272   8.861148   8.281287   9.874633   9.431169
    41  H   13.542073  12.067147  11.718110  13.222062  12.394594
    42  H   13.369926  12.034534  11.705073  13.065021  11.960015
    43  H   12.123513  10.686886  10.549639  11.993013  10.969834
    44  H   14.015445  12.806057  11.846957  13.136673  12.351498
    45  H   13.209970  12.002612  10.792243  12.112662  11.624615
    46  H   14.183403  12.841473  11.859253  13.291644  12.774285
    47  H    8.139490   7.112890   6.153157   7.308578   6.408443
    48  H    6.003843   5.197748   3.891532   4.910900   4.258635
                   31         32         33         34         35
    31  H    0.000000
    32  H    2.517527   0.000000
    33  H    3.066952   1.752495   0.000000
    34  H    4.957296   4.694100   4.674431   0.000000
    35  H    6.711259   6.884795   6.939856   2.323783   0.000000
    36  H    7.245939   6.775377   6.777088   2.324969   1.793596
    37  H    8.192717   8.053870   8.245692   3.600433   1.789494
    38  H    9.371969   8.901634  10.635022  10.290918  11.031570
    39  H    8.135277   7.362285   9.073389   8.876852   9.836960
    40  H    7.744004   7.538825   9.262252   8.896532   9.671339
    41  H   10.771151  10.708937  12.345346  10.832751  10.896540
    42  H   10.451577  10.417602  11.939565   9.806317   9.588438
    43  H    9.364644   9.578776  11.159197   9.512527   9.523345
    44  H   10.965465  10.187830  11.675890   9.771767   9.881227
    45  H   10.238265   9.183267  10.713081   9.454201   9.976453
    46  H   11.273039  10.481842  12.086521  10.799870  11.156219
    47  H    5.045700   4.443120   5.953707   4.972795   6.086605
    48  H    3.022484   2.046606   3.634853   4.347500   6.178448
                   36         37         38         39         40
    36  H    0.000000
    37  H    1.789451   0.000000
    38  H   11.048938  11.078111   0.000000
    39  H    9.698701   9.937832   1.770871   0.000000
    40  H    9.858109   9.919978   1.770978   1.772516   0.000000
    41  H   11.146940  10.661019   3.194708   4.343807   3.638369
    42  H    9.859413   9.197505   4.340894   4.919607   4.314337
    43  H    9.971658   9.464619   3.625738   4.315213   3.146531
    44  H    9.571205   9.229326   4.341239   4.313242   4.919389
    45  H    9.520808   9.510026   3.627731   3.145024   4.314485
    46  H   10.889560  10.687917   3.194738   3.635027   4.343387
    47  H    6.087718   6.535086   5.356052   3.950330   4.005617
    48  H    6.179454   7.126875   7.128542   5.630873   5.704412
                   41         42         43         44         45
    41  H    0.000000
    42  H    1.772840   0.000000
    43  H    1.772847   1.770205   0.000000
    44  H    3.630175   3.155222   4.319581   0.000000
    45  H    4.336250   4.319786   4.920697   1.770291   0.000000
    46  H    3.182631   3.632001   4.336393   1.772802   1.772810
    47  H    6.494875   6.020220   5.417421   5.952539   5.297436
    48  H    8.711530   8.373008   7.565889   8.281476   7.405103
                   46         47         48
    46  H    0.000000
    47  H    6.430251   0.000000
    48  H    8.621189   2.422298   0.000000
 Stoichiometry    C20H24N2OSi
 Framework group  C1[X(C20H24N2OSi)]
 Deg. of freedom   138
 Full point group                 C1      NOp   1
 Largest Abelian subgroup         C1      NOp   1
 Largest concise Abelian subgroup C1      NOp   1
                         Standard orientation:                         
 ---------------------------------------------------------------------
 Center     Atomic      Atomic             Coordinates (Angstroms)
 Number     Number       Type             X           Y           Z
 ---------------------------------------------------------------------
      1          6           0        5.870288   -4.045212    1.318360
      2          6           0        5.345901   -3.331657    0.067028
      3          6           0        4.739613   -1.955884    0.373181
      4          6           0        4.211887   -1.241943   -0.891532
      5          6           0        3.662729    0.142015   -0.612610
      6          6           0        4.646944    1.168798   -0.500418
      7          7           0        5.476680    1.986202   -0.417344
      8          6           0        2.328076    0.467920   -0.427422
      9          6           0        1.910780    1.823700   -0.147923
     10          6           0        0.599130    2.156164    0.039704
     11          8           0        0.157717    3.402976    0.301488
     12          6           0        1.091340    4.478564    0.397343
     13          6           0       -0.455629    1.147318   -0.032062
     14          6           0       -1.809871    1.415958    0.147694
     15          6           0       -2.799194    0.397186    0.068736
     16          6           0       -3.687855   -0.443031    0.010811
     17         14           0       -5.066929   -1.676975   -0.068360
     18          6           0       -4.311934   -3.386870   -0.339976
     19          6           0       -6.004241   -1.609424    1.568183
     20          6           0       -6.191162   -1.204156   -1.508713
     21          6           0       -2.363875    2.710652    0.425011
     22          7           0       -2.936998    3.699683    0.651499
     23          6           0       -0.022793   -0.204258   -0.310948
     24          6           0        1.279945   -0.531429   -0.499885
     25          1           0        6.297669   -5.022027    1.068493
     26          1           0        6.651788   -3.455821    1.811550
     27          1           0        5.068145   -4.209092    2.047447
     28          1           0        4.590911   -3.961131   -0.424497
     29          1           0        6.163679   -3.212565   -0.656659
     30          1           0        5.494034   -1.321644    0.856435
     31          1           0        3.917732   -2.063718    1.093538
     32          1           0        3.448820   -1.861467   -1.371651
     33          1           0        5.032206   -1.150522   -1.613899
     34          1           0        2.675496    2.587363   -0.089288
     35          1           0        1.804608    4.305104    1.211054
     36          1           0        1.630370    4.613053   -0.547296
     37          1           0        0.491212    5.362402    0.611553
     38          1           0       -5.097613   -4.149880   -0.391482
     39          1           0       -3.744417   -3.427178   -1.276098
     40          1           0       -3.635450   -3.657509    0.478008
     41          1           0       -6.840183   -2.319001    1.562358
     42          1           0       -6.411362   -0.608888    1.748332
     43          1           0       -5.351679   -1.862809    2.410434
     44          1           0       -6.602305   -0.198106   -1.374203
     45          1           0       -5.647250   -1.220197   -2.459160
     46          1           0       -7.030709   -1.905094   -1.587487
     47          1           0       -0.786746   -0.971338   -0.367176
     48          1           0        1.538051   -1.563784   -0.701620
 ---------------------------------------------------------------------
 Rotational constants (GHZ):           0.2565611           0.0957962           0.0730001
 Standard basis: 6-31+G(d,p) (6D, 7F)
 There are   580 symmetry adapted cartesian basis functions of A   symmetry.
 There are   580 symmetry adapted basis functions of A   symmetry.
   580 basis functions,   960 primitive gaussians,   580 cartesian basis functions
    90 alpha electrons       90 beta electrons
       nuclear repulsion energy      1928.2114414498 Hartrees.
 NAtoms=   48 NActive=   48 NUniq=   48 SFac= 1.00D+00 NAtFMM=   60 NAOKFM=F Big=F
 Integral buffers will be    131072 words long.
 Regular integral format.
 Two-electron integral symmetry is turned on.
 One-electron integrals computed using PRISM.
 NBasis=   580 RedAO= T EigKep=  1.16D-06  NBF=   580
 NBsUse=   573 1.00D-06 EigRej=  6.62D-07 NBFU=   573
 ExpMin= 3.31D-02 ExpMax= 1.61D+04 ExpMxC= 2.43D+03 IAcc=3 IRadAn=         5 AccDes= 0.00D+00
 Harris functional with IExCor=  402 and IRadAn=       5 diagonalized for initial guess.
 HarFok:  IExCor=  402 AccDes= 0.00D+00 IRadAn=         5 IDoV= 1 UseB2=F ITyADJ=14
 ICtDFT=  3500011 ScaDFX=  1.000000  1.000000  1.000000  1.000000
 FoFCou: FMM=F IPFlag=           0 FMFlag=      100000 FMFlg1=           0
         NFxFlg=           0 DoJE=T BraDBF=F KetDBF=T FulRan=T
         wScrn=  0.000000 ICntrl=       500 IOpCl=  0 I1Cent=   200000004 NGrid=           0
         NMat0=    1 NMatS0=      1 NMatT0=    0 NMatD0=    1 NMtDS0=    0 NMtDT0=    0
 Petite list used in FoFCou.
 Requested convergence on RMS density matrix=1.00D-08 within 128 cycles.
 Requested convergence on MAX density matrix=1.00D-06.
 Requested convergence on             energy=1.00D-06.
 No special actions if energy rises.
 SCF Done:  E(RB3LYP) =  -1250.80176335     A.U. after   16 cycles
            NFock= 16  Conv=0.86D-08     -V/T= 2.0085
 DoSCS=F DFT=T ScalE2(SS,OS)=  1.000000  1.000000
 ExpMin= 3.31D-02 ExpMax= 1.61D+04 ExpMxC= 2.43D+03 IAcc=3 IRadAn=         5 AccDes= 0.00D+00
 HarFok:  IExCor=  205 AccDes= 0.00D+00 IRadAn=         5 IDoV=-2 UseB2=F ITyADJ=14
 ICtDFT= 12500011 ScaDFX=  1.000000  1.000000  1.000000  1.000000
 GSVD:  LWork=       -1008 too small for GESVD, short by        4340 words or        4340 for optimal perf.
 Range of M.O.s used for correlation:    29   573
 NBasis=   580 NAE=    90 NBE=    90 NFC=    28 NFV=     0
 NROrb=    545 NOA=    62 NOB=    62 NVA=   483 NVB=   483

 **** Warning!!: The largest alpha MO coefficient is  0.12819699D+03


 **** Warning!!: The smallest alpha delta epsilon is  0.91116313D-01

 Orbital symmetries:
       Occupied  (A) (A) (A) (A) (A) (A) (A) (A) (A) (A) (A) (A)
                 (A) (A) (A) (A) (A) (A) (A) (A) (A) (A) (A) (A)
                 (A) (A) (A) (A) (A) (A) (A) (A) (A) (A) (A) (A)
                 (A) (A) (A) (A) (A) (A) (A) (A) (A) (A) (A) (A)
                 (A) (A) (A) (A) (A) (A) (A) (A) (A) (A) (A) (A)
                 (A) (A) (A) (A) (A) (A) (A) (A) (A) (A) (A) (A)
                 (A) (A) (A) (A) (A) (A) (A) (A) (A) (A) (A) (A)
                 (A) (A) (A) (A) (A) (A)
       Virtual   (A) (A) (A) (A) (A) (A) (A) (A) (A) (A) (A) (A)
                 (A) (A) (A) (A) (A) (A) (A) (A) (A) (A) (A) (A)
                 (A) (A) (A) (A) (A) (A) (A) (A) (A) (A) (A) (A)
                 (A) (A) (A) (A) (A) (A) (A) (A) (A) (A) (A) (A)
                 (A) (A) (A) (A) (A) (A) (A) (A) (A) (A) (A) (A)
                 (A) (A) (A) (A) (A) (A) (A) (A) (A) (A) (A) (A)
                 (A) (A) (A) (A) (A) (A) (A) (A) (A) (A) (A) (A)
                 (A) (A) (A) (A) (A) (A) (A) (A) (A) (A) (A) (A)
                 (A) (A) (A) (A) (A) (A) (A) (A) (A) (A) (A) (A)
                 (A) (A) (A) (A) (A) (A) (A) (A) (A) (A) (A) (A)
                 (A) (A) (A) (A) (A) (A) (A) (A) (A) (A) (A) (A)
                 (A) (A) (A) (A) (A) (A) (A) (A) (A) (A) (A) (A)
                 (A) (A) (A) (A) (A) (A) (A) (A) (A) (A) (A) (A)
                 (A) (A) (A) (A) (A) (A) (A) (A) (A) (A) (A) (A)
                 (A) (A) (A) (A) (A) (A) (A) (A) (A) (A) (A) (A)
                 (A) (A) (A) (A) (A) (A) (A) (A) (A) (A) (A) (A)
                 (A) (A) (A) (A) (A) (A) (A) (A) (A) (A) (A) (A)
                 (A) (A) (A) (A) (A) (A) (A) (A) (A) (A) (A) (A)
                 (A) (A) (A) (A) (A) (A) (A) (A) (A) (A) (A) (A)
                 (A) (A) (A) (A) (A) (A) (A) (A) (A) (A) (A) (A)
                 (A) (A) (A) (A) (A) (A) (A) (A) (A) (A) (A) (A)
                 (A) (A) (A) (A) (A) (A) (A) (A) (A) (A) (A) (A)
                 (A) (A) (A) (A) (A) (A) (A) (A) (A) (A) (A) (A)
                 (A) (A) (A) (A) (A) (A) (A) (A) (A) (A) (A) (A)
                 (A) (A) (A) (A) (A) (A) (A) (A) (A) (A) (A) (A)
                 (A) (A) (A) (A) (A) (A) (A) (A) (A) (A) (A) (A)
                 (A) (A) (A) (A) (A) (A) (A) (A) (A) (A) (A) (A)
                 (A) (A) (A) (A) (A) (A) (A) (A) (A) (A) (A) (A)
                 (A) (A) (A) (A) (A) (A) (A) (A) (A) (A) (A) (A)
                 (A) (A) (A) (A) (A) (A) (A) (A) (A) (A) (A) (A)
                 (A) (A) (A) (A) (A) (A) (A) (A) (A) (A) (A) (A)
                 (A) (A) (A) (A) (A) (A) (A) (A) (A) (A) (A) (A)
                 (A) (A) (A) (A) (A) (A) (A) (A) (A) (A) (A) (A)
                 (A) (A) (A) (A) (A) (A) (A) (A) (A) (A) (A) (A)
                 (A) (A) (A) (A) (A) (A) (A) (A) (A) (A) (A) (A)
                 (A) (A) (A) (A) (A) (A) (A) (A) (A) (A) (A) (A)
                 (A) (A) (A) (A) (A) (A) (A) (A) (A) (A) (A) (A)
                 (A) (A) (A) (A) (A) (A) (A) (A) (A) (A) (A) (A)
                 (A) (A) (A) (A) (A) (A) (A) (A) (A) (A) (A) (A)
                 (A) (A) (A) (A) (A) (A) (A) (A) (A) (A) (A) (A)
                 (A) (A) (A)
    24 initial guesses have been made.
 Convergence on wavefunction:    0.001000000000000
 Iteration     1 Dimension    24 NMult     0 NNew     24
 CISAX will form    24 AO SS matrices at one time.
 New state      1 was old state      2
 New state      2 was old state      4
 New state      4 was old state      8
 New state      5 was old state      6
 New state      6 was old state      5
 New state      7 was old state      1
 New state      8 was old state     10
 New state      9 was old state      7
 New state     10 was old state     12
 New state     11 was old state     14
 New state     12 was old state     22
 Vector   5 SDiff=5.63D+00 TDiff=5.81D+00 assumed to be singlet.
 Vector  11 SDiff=5.70D+00 TDiff=5.66D+00 assumed to be triplet.
 Iteration     2 Dimension    36 NMult    24 NNew     12
 New state      5 was old state      7
 Iteration     3 Dimension    48 NMult    36 NNew     12
 Iteration     4 Dimension    60 NMult    48 NNew     12
 Iteration     5 Dimension    70 NMult    60 NNew     10
 Iteration     6 Dimension    76 NMult    70 NNew      6
 ***********************************************************************
 Excited states from <AA,BB:AA,BB> singles matrix:
 ***********************************************************************
 
 Ground to excited state transition densities written to RWF  633
 Ground to excited state transition electric dipole moments (Au):
       state          X           Y           Z        Dip. S.      Osc.
         1         0.0000     -0.0000     -0.0000      0.0000      0.0000
         2        -0.0000      0.0000      0.0000      0.0000      0.0000
         3        -3.3783      0.3404      0.2675     11.6005      0.7653
         4         0.0000     -0.0000     -0.0000      0.0000      0.0000
         5         2.3469      0.0649     -0.1573      5.5370      0.4241
         6        -0.0036      0.0015     -0.0414      0.0017      0.0001
 Ground to excited state transition velocity dipole moments (Au):
       state          X           Y           Z        Dip. S.      Osc.
         1        -0.0000     -0.0000      0.0000      0.0000      0.0000
         2         0.0000     -0.0000     -0.0000      0.0000      0.0000
         3         0.3214     -0.0322     -0.0251      0.1050      0.7073
         4         0.0000      0.0000     -0.0000      0.0000      0.0000
         5        -0.2656     -0.0084      0.0175      0.0709      0.4114
         6         0.0008     -0.0008      0.0091      0.0001      0.0004
 Ground to excited state transition magnetic dipole moments (Au):
       state          X           Y           Z
         1         0.0000     -0.0000     -0.0000
         2        -0.0000     -0.0000     -0.0000
         3        -0.1206     -0.1097     -0.9518
         4        -0.0000     -0.0000      0.0000
         5         0.0240      0.1578      0.1922
         6         0.2167      0.1825      0.0028
 Ground to excited state transition velocity quadrupole moments (Au):
       state          XX          YY          ZZ          XY          XZ          YZ
         1        -0.0000     -0.0000      0.0000     -0.0000      0.0000      0.0000
         2         0.0000     -0.0000     -0.0000      0.0000     -0.0000     -0.0000
         3         0.6138     -0.2224     -0.0074      0.0494     -0.1016     -0.1102
         4         0.0000     -0.0000     -0.0000      0.0000      0.0000     -0.0000
         5         0.2205     -0.0666      0.0291      0.0355      0.0577      0.0340
         6        -0.0006     -0.0061      0.0083      0.0127     -0.1062     -0.0093
 <0|del|b> * <b|rxdel|0> + <0|del|b> * <b|delr+rdel|0>
 Rotatory Strengths (R) in cgs (10**-40 erg-esu-cm/Gauss)
       state          XX          YY          ZZ    R(velocity)    E-M Angle
         1        -0.0000      0.0000      0.0000     -0.0000       90.00
         2         0.0000      0.0000     -0.0000      0.0000       90.00
         3        81.8640   -175.2778     12.3511    -27.0209       92.08
         4        -0.0000     -0.0000      0.0000     -0.0000       90.00
         5         9.7058    -38.9780      2.6623     -8.8700       93.73
         6        -0.2500      0.1817      0.3012      0.0777       90.00
 1/2[<0|r|b>*<b|rxdel|0> + (<0|rxdel|b>*<b|r|0>)*]
 Rotatory Strengths (R) in cgs (10**-40 erg-esu-cm/Gauss)
       state          XX          YY          ZZ     R(length)
         1        -0.0000     -0.0000     -0.0000     -0.0000
         2        -0.0000      0.0000      0.0000      0.0000
         3      -288.1269     26.3995    180.0562    -27.2238
         4         0.0000     -0.0000      0.0000      0.0000
         5       -39.8259     -7.2441     21.3850     -8.5616
         6         0.5538     -0.1932      0.0821      0.1476
  1/2[<0|del|b>*<b|r|0> + (<0|r|b>*<b|del|0>)*] (Au)
       state          X           Y           Z        Dip. S.   Osc.(frdel)
         1        -0.0000      0.0000     -0.0000      0.0000      0.0000
         2        -0.0000     -0.0000     -0.0000      0.0000      0.0000
         3        -1.0859     -0.0110     -0.0067      1.1035      0.7357
         4         0.0000     -0.0000      0.0000     -0.0000     -0.0000
         5        -0.6232     -0.0005     -0.0028      0.6265      0.4177
         6        -0.0000     -0.0000     -0.0004      0.0004      0.0003

 Excitation energies and oscillator strengths:
 
 Excited State   1:      Triplet-A      0.6698 eV 1850.96 nm  f=0.0000  <S**2>=2.000
      90 -> 91         0.77774
      90 <- 91         0.34812
 This state for optimization and/or second-order correction.
 Total Energy, E(TD-HF/TD-DFT) =  -1250.77714731    
 Copying the excited state density for this state as the 1-particle RhoCI density.
 
 Excited State   2:      Triplet-A      2.4214 eV  512.03 nm  f=0.0000  <S**2>=2.000
      89 -> 91         0.68705
      90 -> 94         0.11280
 
 Excited State   3:      Singlet-A      2.6926 eV  460.47 nm  f=0.7653  <S**2>=0.000
      89 -> 91         0.26953
      90 -> 91         0.65364
      90 <- 91        -0.13591
 
 Excited State   4:      Triplet-A      3.0358 eV  408.40 nm  f=0.0000  <S**2>=2.000
      86 -> 91         0.18921
      87 -> 91         0.60672
      90 -> 92        -0.27604
 
 Excited State   5:      Singlet-A      3.1263 eV  396.59 nm  f=0.4241  <S**2>=0.000
      89 -> 91         0.64601
      90 -> 91        -0.28438
 
 Excited State   6:      Singlet-A      3.4775 eV  356.53 nm  f=0.0001  <S**2>=0.000
      88 -> 91         0.69833
 SavETr:  write IOETrn=   770 NScale= 10 NData=  16 NLR=1 NState=    6 LETran=     118.

 **********************************************************************

            Population analysis using the SCF Density.

 **********************************************************************

 Orbital symmetries:
       Occupied  (A) (A) (A) (A) (A) (A) (A) (A) (A) (A) (A) (A)
                 (A) (A) (A) (A) (A) (A) (A) (A) (A) (A) (A) (A)
                 (A) (A) (A) (A) (A) (A) (A) (A) (A) (A) (A) (A)
                 (A) (A) (A) (A) (A) (A) (A) (A) (A) (A) (A) (A)
                 (A) (A) (A) (A) (A) (A) (A) (A) (A) (A) (A) (A)
                 (A) (A) (A) (A) (A) (A) (A) (A) (A) (A) (A) (A)
                 (A) (A) (A) (A) (A) (A) (A) (A) (A) (A) (A) (A)
                 (A) (A) (A) (A) (A) (A)
       Virtual   (A) (A) (A) (A) (A) (A) (A) (A) (A) (A) (A) (A)
                 (A) (A) (A) (A) (A) (A) (A) (A) (A) (A) (A) (A)
                 (A) (A) (A) (A) (A) (A) (A) (A) (A) (A) (A) (A)
                 (A) (A) (A) (A) (A) (A) (A) (A) (A) (A) (A) (A)
                 (A) (A) (A) (A) (A) (A) (A) (A) (A) (A) (A) (A)
                 (A) (A) (A) (A) (A) (A) (A) (A) (A) (A) (A) (A)
                 (A) (A) (A) (A) (A) (A) (A) (A) (A) (A) (A) (A)
                 (A) (A) (A) (A) (A) (A) (A) (A) (A) (A) (A) (A)
                 (A) (A) (A) (A) (A) (A) (A) (A) (A) (A) (A) (A)
                 (A) (A) (A) (A) (A) (A) (A) (A) (A) (A) (A) (A)
                 (A) (A) (A) (A) (A) (A) (A) (A) (A) (A) (A) (A)
                 (A) (A) (A) (A) (A) (A) (A) (A) (A) (A) (A) (A)
                 (A) (A) (A) (A) (A) (A) (A) (A) (A) (A) (A) (A)
                 (A) (A) (A) (A) (A) (A) (A) (A) (A) (A) (A) (A)
                 (A) (A) (A) (A) (A) (A) (A) (A) (A) (A) (A) (A)
                 (A) (A) (A) (A) (A) (A) (A) (A) (A) (A) (A) (A)
                 (A) (A) (A) (A) (A) (A) (A) (A) (A) (A) (A) (A)
                 (A) (A) (A) (A) (A) (A) (A) (A) (A) (A) (A) (A)
                 (A) (A) (A) (A) (A) (A) (A) (A) (A) (A) (A) (A)
                 (A) (A) (A) (A) (A) (A) (A) (A) (A) (A) (A) (A)
                 (A) (A) (A) (A) (A) (A) (A) (A) (A) (A) (A) (A)
                 (A) (A) (A) (A) (A) (A) (A) (A) (A) (A) (A) (A)
                 (A) (A) (A) (A) (A) (A) (A) (A) (A) (A) (A) (A)
                 (A) (A) (A) (A) (A) (A) (A) (A) (A) (A) (A) (A)
                 (A) (A) (A) (A) (A) (A) (A) (A) (A) (A) (A) (A)
                 (A) (A) (A) (A) (A) (A) (A) (A) (A) (A) (A) (A)
                 (A) (A) (A) (A) (A) (A) (A) (A) (A) (A) (A) (A)
                 (A) (A) (A) (A) (A) (A) (A) (A) (A) (A) (A) (A)
                 (A) (A) (A) (A) (A) (A) (A) (A) (A) (A) (A) (A)
                 (A) (A) (A) (A) (A) (A) (A) (A) (A) (A) (A) (A)
                 (A) (A) (A) (A) (A) (A) (A) (A) (A) (A) (A) (A)
                 (A) (A) (A) (A) (A) (A) (A) (A) (A) (A) (A) (A)
                 (A) (A) (A) (A) (A) (A) (A) (A) (A) (A) (A) (A)
                 (A) (A) (A) (A) (A) (A) (A) (A) (A) (A) (A) (A)
                 (A) (A) (A) (A) (A) (A) (A) (A) (A) (A) (A) (A)
                 (A) (A) (A) (A) (A) (A) (A) (A) (A) (A) (A) (A)
                 (A) (A) (A) (A) (A) (A) (A) (A) (A) (A) (A) (A)
                 (A) (A) (A) (A) (A) (A) (A) (A) (A) (A) (A) (A)
                 (A) (A) (A) (A) (A) (A) (A) (A) (A) (A) (A) (A)
                 (A) (A) (A) (A) (A) (A) (A) (A) (A) (A) (A) (A)
                 (A) (A) (A)
 The electronic state is 1-A.
 Alpha  occ. eigenvalues --  -66.15056 -19.21292 -14.35243 -14.34353 -10.28937
 Alpha  occ. eigenvalues --  -10.27303 -10.25870 -10.25421 -10.25419 -10.24793
 Alpha  occ. eigenvalues --  -10.24253 -10.24006 -10.23008 -10.22908 -10.22022
 Alpha  occ. eigenvalues --  -10.21741 -10.21726 -10.20435 -10.19965 -10.19508
 Alpha  occ. eigenvalues --  -10.18831 -10.17933 -10.17651 -10.17637  -5.29339
 Alpha  occ. eigenvalues --   -3.65354  -3.65162  -3.65153  -1.10067  -0.92202
 Alpha  occ. eigenvalues --   -0.91467  -0.89626  -0.86006  -0.82770  -0.79959
 Alpha  occ. eigenvalues --   -0.78955  -0.76623  -0.74209  -0.72698  -0.72398
 Alpha  occ. eigenvalues --   -0.70264  -0.69266  -0.69069  -0.65502  -0.64522
 Alpha  occ. eigenvalues --   -0.61679  -0.59900  -0.57901  -0.56426  -0.54162
 Alpha  occ. eigenvalues --   -0.52847  -0.51479  -0.49568  -0.49334  -0.48337
 Alpha  occ. eigenvalues --   -0.46977  -0.46074  -0.44921  -0.44040  -0.43379
 Alpha  occ. eigenvalues --   -0.42930  -0.42742  -0.42508  -0.42135  -0.41923
 Alpha  occ. eigenvalues --   -0.40604  -0.40578  -0.40359  -0.39371  -0.39169
 Alpha  occ. eigenvalues --   -0.38541  -0.37940  -0.37593  -0.37250  -0.36904
 Alpha  occ. eigenvalues --   -0.36634  -0.36420  -0.35579  -0.35375  -0.35139
 Alpha  occ. eigenvalues --   -0.34255  -0.33700  -0.33080  -0.32969  -0.32442
 Alpha  occ. eigenvalues --   -0.31815  -0.29347  -0.28831  -0.26660  -0.22139
 Alpha virt. eigenvalues --   -0.13028  -0.03417  -0.02012  -0.01832  -0.01666
 Alpha virt. eigenvalues --   -0.00677   0.00277   0.00706   0.00886   0.01118
 Alpha virt. eigenvalues --    0.01614   0.01772   0.01959   0.02455   0.02649
 Alpha virt. eigenvalues --    0.02908   0.03567   0.04202   0.04502   0.04652
 Alpha virt. eigenvalues --    0.04831   0.05089   0.05297   0.05556   0.05749
 Alpha virt. eigenvalues --    0.06058   0.06329   0.06563   0.06747   0.07055
 Alpha virt. eigenvalues --    0.07283   0.07364   0.07954   0.08345   0.08821
 Alpha virt. eigenvalues --    0.08952   0.09010   0.09129   0.09599   0.09778
 Alpha virt. eigenvalues --    0.09971   0.10084   0.10382   0.10575   0.10848
 Alpha virt. eigenvalues --    0.11135   0.11186   0.11841   0.12021   0.12461
 Alpha virt. eigenvalues --    0.12555   0.12808   0.13037   0.13584   0.13996
 Alpha virt. eigenvalues --    0.14197   0.14396   0.14662   0.14944   0.14998
 Alpha virt. eigenvalues --    0.15494   0.15736   0.16004   0.16026   0.16587
 Alpha virt. eigenvalues --    0.16861   0.17196   0.17511   0.17830   0.17960
 Alpha virt. eigenvalues --    0.18241   0.18541   0.18898   0.19247   0.19558
 Alpha virt. eigenvalues --    0.19785   0.20166   0.20684   0.20759   0.20902
 Alpha virt. eigenvalues --    0.20982   0.21054   0.21653   0.21759   0.22177
 Alpha virt. eigenvalues --    0.22456   0.22759   0.23218   0.23698   0.23917
 Alpha virt. eigenvalues --    0.24149   0.24300   0.24430   0.24763   0.25130
 Alpha virt. eigenvalues --    0.25533   0.25828   0.26327   0.26467   0.26744
 Alpha virt. eigenvalues --    0.27091   0.27250   0.27526   0.27783   0.28065
 Alpha virt. eigenvalues --    0.28213   0.28736   0.28928   0.29172   0.29500
 Alpha virt. eigenvalues --    0.29681   0.30316   0.30924   0.31098   0.31411
 Alpha virt. eigenvalues --    0.31662   0.31837   0.32482   0.32787   0.32893
 Alpha virt. eigenvalues --    0.32988   0.33784   0.33908   0.34368   0.35049
 Alpha virt. eigenvalues --    0.35249   0.35776   0.36309   0.36537   0.37063
 Alpha virt. eigenvalues --    0.37786   0.38346   0.40137   0.41013   0.42012
 Alpha virt. eigenvalues --    0.42166   0.43684   0.44228   0.44364   0.44806
 Alpha virt. eigenvalues --    0.45515   0.46349   0.47385   0.48227   0.49950
 Alpha virt. eigenvalues --    0.54167   0.54632   0.55447   0.56314   0.59281
 Alpha virt. eigenvalues --    0.61370   0.61734   0.64460   0.64782   0.65456
 Alpha virt. eigenvalues --    0.66043   0.66672   0.67047   0.67709   0.68049
 Alpha virt. eigenvalues --    0.68532   0.69083   0.69641   0.70056   0.70394
 Alpha virt. eigenvalues --    0.71023   0.71218   0.72140   0.72739   0.73150
 Alpha virt. eigenvalues --    0.73599   0.74226   0.75044   0.75665   0.75961
 Alpha virt. eigenvalues --    0.76709   0.77059   0.77691   0.78386   0.78448
 Alpha virt. eigenvalues --    0.79023   0.80017   0.80191   0.80388   0.81043
 Alpha virt. eigenvalues --    0.81614   0.82334   0.82942   0.83348   0.83885
 Alpha virt. eigenvalues --    0.84226   0.85238   0.85389   0.86135   0.87599
 Alpha virt. eigenvalues --    0.88530   0.89286   0.89923   0.90500   0.90748
 Alpha virt. eigenvalues --    0.91151   0.91772   0.92435   0.93021   0.93293
 Alpha virt. eigenvalues --    0.93973   0.95534   0.95929   0.97323   0.97784
 Alpha virt. eigenvalues --    0.98447   0.98670   0.98854   0.99777   1.00487
 Alpha virt. eigenvalues --    1.00617   1.01315   1.02309   1.02490   1.03100
 Alpha virt. eigenvalues --    1.03860   1.03910   1.04702   1.05263   1.06182
 Alpha virt. eigenvalues --    1.07025   1.07505   1.08451   1.08993   1.09497
 Alpha virt. eigenvalues --    1.10262   1.10713   1.11323   1.11423   1.12323
 Alpha virt. eigenvalues --    1.12834   1.13729   1.14360   1.15599   1.16110
 Alpha virt. eigenvalues --    1.16632   1.17332   1.18566   1.19437   1.19621
 Alpha virt. eigenvalues --    1.21126   1.21391   1.22902   1.23589   1.25687
 Alpha virt. eigenvalues --    1.26629   1.27583   1.28386   1.28905   1.29525
 Alpha virt. eigenvalues --    1.29847   1.30452   1.31482   1.33432   1.33693
 Alpha virt. eigenvalues --    1.35436   1.36114   1.36739   1.37817   1.38195
 Alpha virt. eigenvalues --    1.40305   1.41742   1.41884   1.43360   1.43727
 Alpha virt. eigenvalues --    1.44842   1.45889   1.46034   1.46928   1.48603
 Alpha virt. eigenvalues --    1.51479   1.52065   1.53708   1.53956   1.54010
 Alpha virt. eigenvalues --    1.54185   1.57627   1.58959   1.60548   1.61732
 Alpha virt. eigenvalues --    1.62600   1.62711   1.63069   1.64368   1.64749
 Alpha virt. eigenvalues --    1.65901   1.68118   1.68567   1.68990   1.71311
 Alpha virt. eigenvalues --    1.73451   1.74267   1.74341   1.76220   1.77491
 Alpha virt. eigenvalues --    1.78696   1.81614   1.82253   1.82936   1.83738
 Alpha virt. eigenvalues --    1.85336   1.86463   1.87586   1.89202   1.89899
 Alpha virt. eigenvalues --    1.90372   1.91393   1.91655   1.92229   1.92786
 Alpha virt. eigenvalues --    1.94591   1.95211   1.95596   1.96006   1.96061
 Alpha virt. eigenvalues --    1.96596   1.98934   1.99359   2.00251   2.00716
 Alpha virt. eigenvalues --    2.03401   2.03468   2.03738   2.03844   2.03898
 Alpha virt. eigenvalues --    2.04295   2.04650   2.05047   2.07608   2.08726
 Alpha virt. eigenvalues --    2.09278   2.10227   2.10468   2.11473   2.11591
 Alpha virt. eigenvalues --    2.12148   2.12282   2.12780   2.12921   2.13353
 Alpha virt. eigenvalues --    2.13925   2.14167   2.14450   2.15202   2.16834
 Alpha virt. eigenvalues --    2.18408   2.19099   2.19468   2.19975   2.20860
 Alpha virt. eigenvalues --    2.22066   2.24281   2.25544   2.27272   2.28680
 Alpha virt. eigenvalues --    2.29142   2.29934   2.30308   2.30805   2.32407
 Alpha virt. eigenvalues --    2.33486   2.33959   2.34435   2.34999   2.36448
 Alpha virt. eigenvalues --    2.37000   2.37229   2.39394   2.40538   2.42288
 Alpha virt. eigenvalues --    2.44726   2.45559   2.46272   2.49097   2.49908
 Alpha virt. eigenvalues --    2.51207   2.53231   2.53641   2.54118   2.57059
 Alpha virt. eigenvalues --    2.60374   2.61615   2.62470   2.62921   2.63514
 Alpha virt. eigenvalues --    2.64029   2.65308   2.66034   2.66917   2.67573
 Alpha virt. eigenvalues --    2.67628   2.68808   2.71535   2.72955   2.74830
 Alpha virt. eigenvalues --    2.75377   2.76098   2.77194   2.79710   2.79868
 Alpha virt. eigenvalues --    2.80426   2.80754   2.81550   2.81939   2.82684
 Alpha virt. eigenvalues --    2.82903   2.83696   2.83913   2.84419   2.84477
 Alpha virt. eigenvalues --    2.85038   2.86544   2.88338   2.89014   2.89354
 Alpha virt. eigenvalues --    2.90866   2.92565   2.93981   3.00097   3.03530
 Alpha virt. eigenvalues --    3.07211   3.08169   3.08564   3.11233   3.14594
 Alpha virt. eigenvalues --    3.15934   3.21350   3.22836   3.22865   3.23111
 Alpha virt. eigenvalues --    3.24226   3.24650   3.28639   3.30171   3.31412
 Alpha virt. eigenvalues --    3.32895   3.34752   3.35282   3.38366   3.40473
 Alpha virt. eigenvalues --    3.43426   3.43618   3.44326   3.44664   3.44708
 Alpha virt. eigenvalues --    3.45526   3.45656   3.46537   3.47573   3.48409
 Alpha virt. eigenvalues --    3.50028   3.53938   3.54911   3.57919   3.74031
 Alpha virt. eigenvalues --    4.24911   4.25778   4.29249   4.31993   4.33800
 Alpha virt. eigenvalues --    4.34038   4.35266   4.38098   4.40139   4.45208
 Alpha virt. eigenvalues --    4.46381   4.47362   4.49293   4.49628   4.50317
 Alpha virt. eigenvalues --    4.57652   4.59255   4.61099   4.68303   4.74017
 Alpha virt. eigenvalues --    4.75995   4.83297   4.97999
          Condensed to atoms (all electrons):
               1          2          3          4          5          6
     1  C    5.791590  -0.476068   0.180518   0.169827  -0.263039  -0.006172
     2  C   -0.476068   6.167746  -0.116223   0.163853   0.020616  -0.104623
     3  C    0.180518  -0.116223   5.879180   0.254652  -0.265342   0.061467
     4  C    0.169827   0.163853   0.254652  11.512333  -0.789600  -1.281700
     5  C   -0.263039   0.020616  -0.265342  -0.789600  11.843787  -0.861212
     6  C   -0.006172  -0.104623   0.061467  -1.281700  -0.861212  11.120317
     7  N   -0.000453  -0.000320  -0.005095  -0.039322   0.241217  -0.247113
     8  C   -0.097657   0.001249  -0.111274  -1.354878   0.738187  -1.134162
     9  C   -0.030937  -0.003594  -0.023609  -1.787652  -1.573975   0.521839
    10  C   -0.002350   0.000668   0.001969  -0.191664  -1.787876  -0.428901
    11  O    0.000003   0.000003   0.000206  -0.006034  -0.027135  -0.001585
    12  C   -0.000034  -0.000080  -0.000159  -0.006448   0.022020   0.026120
    13  C   -0.004516   0.004252  -0.003391  -0.480916  -2.686630  -0.723206
    14  C   -0.000449  -0.000466  -0.001623  -0.155437  -0.568381  -0.106562
    15  C   -0.000272  -0.000039  -0.001223  -0.050514   0.090179   0.012765
    16  C   -0.000026  -0.000015  -0.000130  -0.008348  -0.053437  -0.006538
    17  Si  -0.000003   0.000005  -0.000001  -0.000193  -0.003621  -0.000424
    18  C   -0.000005   0.000004  -0.000024   0.000014   0.000424   0.000026
    19  C    0.000000   0.000000   0.000003   0.000023   0.000155   0.000003
    20  C   -0.000000  -0.000001  -0.000001  -0.000046   0.000101   0.000005
    21  C   -0.000006  -0.000051  -0.000092   0.003865   0.044509  -0.004167
    22  N    0.000000   0.000000  -0.000001  -0.000123  -0.001524   0.000199
    23  C   -0.017792   0.003686  -0.029038  -0.921758   0.679429  -0.064279
    24  C    0.011334   0.032873   0.020860   0.381585   0.986149  -0.917273
    25  H    0.460175  -0.094943   0.007722  -0.004496  -0.003919  -0.000400
    26  H    0.482867  -0.123358   0.004559   0.003117  -0.009002   0.000376
    27  H    0.485240  -0.130379   0.012446   0.000213  -0.008767  -0.000295
    28  H    0.020616   0.401302  -0.085556   0.029464  -0.032955  -0.006187
    29  H    0.017384   0.389924  -0.069510   0.009373  -0.027526   0.003503
    30  H   -0.007320   0.009697   0.352923   0.013561   0.043625  -0.097849
    31  H   -0.012635  -0.021845   0.334659  -0.042976   0.043021   0.066078
    32  H    0.001101   0.004376  -0.021141   0.540052  -0.084290  -0.044471
    33  H   -0.001759   0.000178  -0.069614   0.468593  -0.101454   0.060534
    34  H   -0.000005   0.000014  -0.001319   0.010225  -0.008722   0.017174
    35  H   -0.000001  -0.000004  -0.000033  -0.000306   0.009626  -0.000637
    36  H    0.000000   0.000002   0.000014   0.001858   0.019275   0.000277
    37  H   -0.000000   0.000000   0.000001  -0.000186  -0.006407   0.000492
    38  H   -0.000000  -0.000000   0.000000  -0.000001  -0.000000   0.000000
    39  H   -0.000000   0.000000  -0.000000  -0.000004  -0.000014  -0.000001
    40  H   -0.000000  -0.000000   0.000000  -0.000008  -0.000008  -0.000000
    41  H   -0.000000  -0.000000   0.000000  -0.000000  -0.000000  -0.000000
    42  H    0.000000   0.000000  -0.000000   0.000000   0.000000  -0.000000
    43  H   -0.000000  -0.000000   0.000000  -0.000000  -0.000000  -0.000000
    44  H    0.000000   0.000000  -0.000000   0.000000   0.000000  -0.000000
    45  H    0.000000   0.000000  -0.000000   0.000000  -0.000000  -0.000000
    46  H    0.000000   0.000000  -0.000000   0.000000  -0.000000  -0.000000
    47  H   -0.000008  -0.000041  -0.000398  -0.000177  -0.009382   0.000861
    48  H    0.000170  -0.005234   0.030599  -0.151315   0.048015   0.014057
               7          8          9         10         11         12
     1  C   -0.000453  -0.097657  -0.030937  -0.002350   0.000003  -0.000034
     2  C   -0.000320   0.001249  -0.003594   0.000668   0.000003  -0.000080
     3  C   -0.005095  -0.111274  -0.023609   0.001969   0.000206  -0.000159
     4  C   -0.039322  -1.354878  -1.787652  -0.191664  -0.006034  -0.006448
     5  C    0.241217   0.738187  -1.573975  -1.787876  -0.027135   0.022020
     6  C   -0.247113  -1.134162   0.521839  -0.428901  -0.001585   0.026120
     7  N    7.304490   0.099677   0.047217   0.034882  -0.000083  -0.001653
     8  C    0.099677   9.915567   2.181634  -0.665500   0.059164   0.028494
     9  C    0.047217   2.181634  10.873743  -1.067387   0.228272   0.128329
    10  C    0.034882  -0.665500  -1.067387  10.650631   0.174355  -0.184276
    11  O   -0.000083   0.059164   0.228272   0.174355   8.538174   0.043176
    12  C   -0.001653   0.028494   0.128329  -0.184276   0.043176   4.991805
    13  C    0.027147  -1.914357  -3.269470   1.063906  -0.426508  -0.206282
    14  C    0.002839  -1.394751  -0.996517  -1.583929  -0.173820  -0.067968
    15  C    0.000301  -0.224602   0.530483   0.422291   0.065037  -0.000148
    16  C    0.000054  -0.123718  -0.103095  -0.358391  -0.009982  -0.005500
    17  Si   0.000002  -0.010234  -0.003655  -0.018666  -0.000085  -0.000386
    18  C   -0.000000   0.001581   0.000068   0.000791  -0.000023   0.000005
    19  C   -0.000000   0.000481   0.000246   0.002467  -0.000030   0.000018
    20  C   -0.000000  -0.000356   0.000508   0.002793  -0.000027   0.000020
    21  C   -0.000037  -0.141045   0.573943   0.650161  -0.019212   0.075001
    22  N    0.000000  -0.001881  -0.045468  -0.109160   0.018319  -0.005713
    23  C    0.004616  -1.491562   0.697141  -0.320154   0.054112   0.017279
    24  C    0.057422   1.072950  -0.690657   0.019127  -0.018068   0.024786
    25  H    0.000001  -0.000636  -0.000047  -0.000002   0.000000  -0.000000
    26  H   -0.000018  -0.001681  -0.000146  -0.000005   0.000000  -0.000000
    27  H    0.000001  -0.002729  -0.000517  -0.000022  -0.000000  -0.000000
    28  H    0.000031  -0.013389  -0.002180  -0.000159   0.000000  -0.000000
    29  H    0.000016  -0.006001  -0.000741  -0.000025   0.000000  -0.000000
    30  H    0.005399   0.007808  -0.012509  -0.000694  -0.000000  -0.000019
    31  H   -0.001095  -0.035084  -0.001026  -0.001669   0.000000   0.000028
    32  H    0.000813   0.015439  -0.041368  -0.001612   0.000000  -0.000047
    33  H   -0.002220  -0.013761  -0.007090  -0.000362  -0.000001   0.000015
    34  H    0.002162  -0.057528   0.296137   0.046836  -0.017399   0.000575
    35  H    0.000159   0.024017   0.109757  -0.123246  -0.039250   0.411348
    36  H    0.000079   0.026071   0.103181  -0.127302  -0.039032   0.409601
    37  H   -0.000008  -0.015565  -0.114233   0.119028  -0.072272   0.415112
    38  H    0.000000   0.000002  -0.000001  -0.000037  -0.000000   0.000000
    39  H    0.000000  -0.000311   0.000018  -0.000013  -0.000000  -0.000000
    40  H    0.000000  -0.000328   0.000025   0.000002  -0.000000  -0.000000
    41  H    0.000000  -0.000000  -0.000001  -0.000023   0.000000   0.000000
    42  H   -0.000000   0.000011  -0.000006  -0.000046  -0.000000   0.000000
    43  H    0.000000  -0.000013   0.000003   0.000019  -0.000000  -0.000000
    44  H   -0.000000   0.000013  -0.000006  -0.000034  -0.000000   0.000000
    45  H    0.000000  -0.000009   0.000001   0.000011  -0.000000  -0.000000
    46  H    0.000000   0.000001  -0.000001  -0.000024   0.000000   0.000000
    47  H   -0.000002   0.025173   0.000524   0.020868  -0.000652   0.000218
    48  H    0.000046  -0.055322   0.042836  -0.015437   0.000117  -0.000019
              13         14         15         16         17         18
     1  C   -0.004516  -0.000449  -0.000272  -0.000026  -0.000003  -0.000005
     2  C    0.004252  -0.000466  -0.000039  -0.000015   0.000005   0.000004
     3  C   -0.003391  -0.001623  -0.001223  -0.000130  -0.000001  -0.000024
     4  C   -0.480916  -0.155437  -0.050514  -0.008348  -0.000193   0.000014
     5  C   -2.686630  -0.568381   0.090179  -0.053437  -0.003621   0.000424
     6  C   -0.723206  -0.106562   0.012765  -0.006538  -0.000424   0.000026
     7  N    0.027147   0.002839   0.000301   0.000054   0.000002  -0.000000
     8  C   -1.914357  -1.394751  -0.224602  -0.123718  -0.010234   0.001581
     9  C   -3.269470  -0.996517   0.530483  -0.103095  -0.003655   0.000068
    10  C    1.063906  -1.583929   0.422291  -0.358391  -0.018666   0.000791
    11  O   -0.426508  -0.173820   0.065037  -0.009982  -0.000085  -0.000023
    12  C   -0.206282  -0.067968  -0.000148  -0.005500  -0.000386   0.000005
    13  C   16.436219   3.144477  -2.238882   0.355858   0.009561   0.005190
    14  C    3.144477  11.108977   0.052589   0.511422   0.057637  -0.000065
    15  C   -2.238882   0.052589   7.539090   0.353998  -0.156840   0.003885
    16  C    0.355858   0.511422   0.353998   7.063234   0.522596  -0.080949
    17  Si   0.009561   0.057637  -0.156840   0.522596  11.982940   0.213451
    18  C    0.005190  -0.000065   0.003885  -0.080949   0.213451   5.481735
    19  C   -0.005514  -0.010298  -0.017453  -0.048597   0.244137  -0.064537
    20  C   -0.008421  -0.015789  -0.011928  -0.043041   0.247412  -0.061935
    21  C   -1.593355  -2.409636  -0.502401  -0.782115  -0.017631  -0.000723
    22  N    0.137151   0.337800  -0.062813   0.018161  -0.000203  -0.000140
    23  C   -0.518498  -0.829489   0.270717  -0.109665  -0.010648   0.007200
    24  C   -1.512653  -1.497023  -0.792400  -0.254731  -0.041271   0.009932
    25  H    0.000001   0.000000  -0.000000   0.000000   0.000000  -0.000000
    26  H   -0.000007  -0.000001  -0.000000  -0.000000   0.000000  -0.000000
    27  H   -0.000032  -0.000001  -0.000000  -0.000000  -0.000000  -0.000000
    28  H   -0.000098  -0.000011   0.000001  -0.000000  -0.000000   0.000000
    29  H   -0.000027  -0.000002   0.000000  -0.000000  -0.000000   0.000000
    30  H   -0.000484  -0.000105  -0.000002  -0.000000   0.000000   0.000000
    31  H   -0.004387  -0.000210   0.000142  -0.000022  -0.000002   0.000001
    32  H   -0.010771  -0.001795  -0.000275  -0.000040  -0.000002   0.000002
    33  H   -0.001975  -0.000116  -0.000002  -0.000003  -0.000000   0.000000
    34  H    0.059310   0.002555  -0.000544   0.000127   0.000005  -0.000000
    35  H   -0.034948  -0.011245   0.001021  -0.000148  -0.000002  -0.000000
    36  H   -0.031464  -0.016448   0.000395  -0.000182  -0.000001  -0.000000
    37  H    0.023919   0.031949  -0.000657   0.000381   0.000004   0.000000
    38  H    0.000016  -0.000235   0.005338  -0.000751  -0.027926   0.394796
    39  H    0.000659  -0.001822  -0.004168  -0.004735  -0.018638   0.385337
    40  H    0.000640  -0.002042  -0.003724  -0.004214  -0.019576   0.386339
    41  H    0.000165   0.000354   0.004882   0.003627  -0.029611  -0.002780
    42  H    0.001334   0.005062   0.003623  -0.023982  -0.023754   0.009766
    43  H   -0.001052  -0.003136  -0.005460   0.001046  -0.021950  -0.003471
    44  H    0.001239   0.004283   0.003703  -0.022876  -0.024980   0.009764
    45  H   -0.000880  -0.002410  -0.004901  -0.000876  -0.021765  -0.003812
    46  H    0.000171   0.000465   0.004971   0.003579  -0.030237  -0.003115
    47  H   -0.031702  -0.023985  -0.036650  -0.009687   0.006604  -0.000549
    48  H    0.065183   0.006000   0.010578   0.000837   0.000070  -0.000050
              19         20         21         22         23         24
     1  C    0.000000  -0.000000  -0.000006   0.000000  -0.017792   0.011334
     2  C    0.000000  -0.000001  -0.000051   0.000000   0.003686   0.032873
     3  C    0.000003  -0.000001  -0.000092  -0.000001  -0.029038   0.020860
     4  C    0.000023  -0.000046   0.003865  -0.000123  -0.921758   0.381585
     5  C    0.000155   0.000101   0.044509  -0.001524   0.679429   0.986149
     6  C    0.000003   0.000005  -0.004167   0.000199  -0.064279  -0.917273
     7  N   -0.000000  -0.000000  -0.000037   0.000000   0.004616   0.057422
     8  C    0.000481  -0.000356  -0.141045  -0.001881  -1.491562   1.072950
     9  C    0.000246   0.000508   0.573943  -0.045468   0.697141  -0.690657
    10  C    0.002467   0.002793   0.650161  -0.109160  -0.320154   0.019127
    11  O   -0.000030  -0.000027  -0.019212   0.018319   0.054112  -0.018068
    12  C    0.000018   0.000020   0.075001  -0.005713   0.017279   0.024786
    13  C   -0.005514  -0.008421  -1.593355   0.137151  -0.518498  -1.512653
    14  C   -0.010298  -0.015789  -2.409636   0.337800  -0.829489  -1.497023
    15  C   -0.017453  -0.011928  -0.502401  -0.062813   0.270717  -0.792400
    16  C   -0.048597  -0.043041  -0.782115   0.018161  -0.109665  -0.254731
    17  Si   0.244137   0.247412  -0.017631  -0.000203  -0.010648  -0.041271
    18  C   -0.064537  -0.061935  -0.000723  -0.000140   0.007200   0.009932
    19  C    5.468556  -0.075632   0.007594  -0.000052  -0.000220  -0.001303
    20  C   -0.075632   5.463448   0.006928   0.000018  -0.001709  -0.004189
    21  C    0.007594   0.006928  11.460567  -0.136873  -0.970446   0.010402
    22  N   -0.000052   0.000018  -0.136873   7.331668   0.053075  -0.002254
    23  C   -0.000220  -0.001709  -0.970446   0.053075   9.348527   0.250910
    24  C   -0.001303  -0.004189   0.010402  -0.002254   0.250910   9.182256
    25  H    0.000000  -0.000000   0.000000  -0.000000   0.000006   0.000204
    26  H   -0.000000   0.000000  -0.000000   0.000000  -0.000097  -0.000212
    27  H    0.000000   0.000000   0.000000  -0.000000  -0.000132   0.000686
    28  H   -0.000000   0.000000  -0.000000   0.000000  -0.000558   0.004880
    29  H   -0.000000   0.000000  -0.000000  -0.000000  -0.000203   0.000557
    30  H   -0.000000   0.000000  -0.000005   0.000000  -0.002753   0.003076
    31  H   -0.000000  -0.000000  -0.000000   0.000000   0.003140  -0.015004
    32  H    0.000000  -0.000000  -0.000043   0.000000  -0.049607  -0.002699
    33  H    0.000000  -0.000000   0.000003  -0.000000  -0.002378  -0.015632
    34  H   -0.000000  -0.000000  -0.001956   0.000001  -0.022868  -0.020114
    35  H   -0.000000   0.000000   0.005789  -0.000386   0.002692   0.002862
    36  H    0.000000  -0.000000   0.006399  -0.000386   0.001912   0.003022
    37  H    0.000000  -0.000000  -0.014348   0.003020  -0.003737  -0.001602
    38  H   -0.004671  -0.005351  -0.000082   0.000000  -0.000682   0.000374
    39  H    0.009816  -0.003882  -0.000008   0.000000   0.001385  -0.003263
    40  H   -0.003834   0.009755   0.000063   0.000000   0.000856  -0.003355
    41  H    0.385650  -0.004051  -0.000157   0.000000   0.000059   0.000033
    42  H    0.390550  -0.001738  -0.000647  -0.000010   0.000948   0.000178
    43  H    0.385909   0.010015   0.000045   0.000005  -0.000743  -0.000398
    44  H   -0.001906   0.391626  -0.000405  -0.000016   0.000938   0.000186
    45  H    0.010063   0.386536  -0.000006   0.000004  -0.000521  -0.000433
    46  H   -0.003730   0.386270  -0.000148   0.000000   0.000103   0.000040
    47  H   -0.000175  -0.000220   0.012793  -0.000074   0.305920   0.049845
    48  H    0.000002  -0.000000  -0.001096   0.000004   0.056622   0.252924
              25         26         27         28         29         30
     1  C    0.460175   0.482867   0.485240   0.020616   0.017384  -0.007320
     2  C   -0.094943  -0.123358  -0.130379   0.401302   0.389924   0.009697
     3  C    0.007722   0.004559   0.012446  -0.085556  -0.069510   0.352923
     4  C   -0.004496   0.003117   0.000213   0.029464   0.009373   0.013561
     5  C   -0.003919  -0.009002  -0.008767  -0.032955  -0.027526   0.043625
     6  C   -0.000400   0.000376  -0.000295  -0.006187   0.003503  -0.097849
     7  N    0.000001  -0.000018   0.000001   0.000031   0.000016   0.005399
     8  C   -0.000636  -0.001681  -0.002729  -0.013389  -0.006001   0.007808
     9  C   -0.000047  -0.000146  -0.000517  -0.002180  -0.000741  -0.012509
    10  C   -0.000002  -0.000005  -0.000022  -0.000159  -0.000025  -0.000694
    11  O    0.000000   0.000000  -0.000000   0.000000   0.000000  -0.000000
    12  C   -0.000000  -0.000000  -0.000000  -0.000000  -0.000000  -0.000019
    13  C    0.000001  -0.000007  -0.000032  -0.000098  -0.000027  -0.000484
    14  C    0.000000  -0.000001  -0.000001  -0.000011  -0.000002  -0.000105
    15  C   -0.000000  -0.000000  -0.000000   0.000001   0.000000  -0.000002
    16  C    0.000000  -0.000000  -0.000000  -0.000000  -0.000000  -0.000000
    17  Si   0.000000   0.000000  -0.000000  -0.000000  -0.000000   0.000000
    18  C   -0.000000  -0.000000  -0.000000   0.000000   0.000000   0.000000
    19  C    0.000000  -0.000000   0.000000  -0.000000  -0.000000  -0.000000
    20  C   -0.000000   0.000000   0.000000   0.000000   0.000000   0.000000
    21  C    0.000000  -0.000000   0.000000  -0.000000  -0.000000  -0.000005
    22  N   -0.000000   0.000000  -0.000000   0.000000  -0.000000   0.000000
    23  C    0.000006  -0.000097  -0.000132  -0.000558  -0.000203  -0.002753
    24  C    0.000204  -0.000212   0.000686   0.004880   0.000557   0.003076
    25  H    0.552135  -0.028306  -0.028901  -0.003301  -0.003391   0.000009
    26  H   -0.028306   0.550366  -0.031050   0.004744  -0.005090   0.002911
    27  H   -0.028901  -0.031050   0.555216  -0.005101   0.004723  -0.000445
    28  H   -0.003301   0.004744  -0.005101   0.586887  -0.035844   0.004951
    29  H   -0.003391  -0.005090   0.004723  -0.035844   0.579046  -0.005632
    30  H    0.000009   0.002911  -0.000445   0.004951  -0.005632   0.562195
    31  H    0.000005  -0.000501   0.003023  -0.005712   0.005082  -0.031953
    32  H    0.000001  -0.000002   0.000002   0.003054  -0.000569   0.005263
    33  H   -0.000000  -0.000003  -0.000002  -0.000585   0.003357  -0.005164
    34  H    0.000000  -0.000000  -0.000000   0.000000  -0.000000  -0.000001
    35  H   -0.000000   0.000000   0.000000  -0.000000  -0.000000  -0.000000
    36  H    0.000000  -0.000000  -0.000000  -0.000000  -0.000000  -0.000000
    37  H    0.000000   0.000000  -0.000000  -0.000000  -0.000000  -0.000000
    38  H   -0.000000   0.000000   0.000000   0.000000   0.000000  -0.000000
    39  H    0.000000   0.000000   0.000000  -0.000000   0.000000  -0.000000
    40  H    0.000000   0.000000   0.000000  -0.000000  -0.000000  -0.000000
    41  H    0.000000   0.000000  -0.000000  -0.000000   0.000000   0.000000
    42  H    0.000000   0.000000  -0.000000   0.000000   0.000000   0.000000
    43  H   -0.000000   0.000000  -0.000000  -0.000000   0.000000   0.000000
    44  H    0.000000   0.000000  -0.000000  -0.000000  -0.000000   0.000000
    45  H    0.000000   0.000000  -0.000000  -0.000000  -0.000000   0.000000
    46  H    0.000000   0.000000  -0.000000  -0.000000   0.000000  -0.000000
    47  H   -0.000000  -0.000000   0.000000   0.000000   0.000000   0.000000
    48  H    0.000000  -0.000000  -0.000000   0.000003  -0.000001  -0.000010
              31         32         33         34         35         36
     1  C   -0.012635   0.001101  -0.001759  -0.000005  -0.000001   0.000000
     2  C   -0.021845   0.004376   0.000178   0.000014  -0.000004   0.000002
     3  C    0.334659  -0.021141  -0.069614  -0.001319  -0.000033   0.000014
     4  C   -0.042976   0.540052   0.468593   0.010225  -0.000306   0.001858
     5  C    0.043021  -0.084290  -0.101454  -0.008722   0.009626   0.019275
     6  C    0.066078  -0.044471   0.060534   0.017174  -0.000637   0.000277
     7  N   -0.001095   0.000813  -0.002220   0.002162   0.000159   0.000079
     8  C   -0.035084   0.015439  -0.013761  -0.057528   0.024017   0.026071
     9  C   -0.001026  -0.041368  -0.007090   0.296137   0.109757   0.103181
    10  C   -0.001669  -0.001612  -0.000362   0.046836  -0.123246  -0.127302
    11  O    0.000000   0.000000  -0.000001  -0.017399  -0.039250  -0.039032
    12  C    0.000028  -0.000047   0.000015   0.000575   0.411348   0.409601
    13  C   -0.004387  -0.010771  -0.001975   0.059310  -0.034948  -0.031464
    14  C   -0.000210  -0.001795  -0.000116   0.002555  -0.011245  -0.016448
    15  C    0.000142  -0.000275  -0.000002  -0.000544   0.001021   0.000395
    16  C   -0.000022  -0.000040  -0.000003   0.000127  -0.000148  -0.000182
    17  Si  -0.000002  -0.000002  -0.000000   0.000005  -0.000002  -0.000001
    18  C    0.000001   0.000002   0.000000  -0.000000  -0.000000  -0.000000
    19  C   -0.000000   0.000000   0.000000  -0.000000  -0.000000   0.000000
    20  C   -0.000000  -0.000000  -0.000000  -0.000000   0.000000  -0.000000
    21  C   -0.000000  -0.000043   0.000003  -0.001956   0.005789   0.006399
    22  N    0.000000   0.000000  -0.000000   0.000001  -0.000386  -0.000386
    23  C    0.003140  -0.049607  -0.002378  -0.022868   0.002692   0.001912
    24  C   -0.015004  -0.002699  -0.015632  -0.020114   0.002862   0.003022
    25  H    0.000005   0.000001  -0.000000   0.000000  -0.000000   0.000000
    26  H   -0.000501  -0.000002  -0.000003  -0.000000   0.000000  -0.000000
    27  H    0.003023   0.000002  -0.000002  -0.000000   0.000000  -0.000000
    28  H   -0.005712   0.003054  -0.000585   0.000000  -0.000000  -0.000000
    29  H    0.005082  -0.000569   0.003357  -0.000000  -0.000000  -0.000000
    30  H   -0.031953   0.005263  -0.005164  -0.000001  -0.000000  -0.000000
    31  H    0.577923  -0.006415   0.005073  -0.000002  -0.000000   0.000000
    32  H   -0.006415   0.595220  -0.032758  -0.000005  -0.000000  -0.000000
    33  H    0.005073  -0.032758   0.554810  -0.000011  -0.000000   0.000000
    34  H   -0.000002  -0.000005  -0.000011   0.551241  -0.000787  -0.000739
    35  H   -0.000000  -0.000000  -0.000000  -0.000787   0.557816  -0.040843
    36  H    0.000000  -0.000000   0.000000  -0.000739  -0.040843   0.557549
    37  H   -0.000000  -0.000000  -0.000000   0.000166  -0.027110  -0.027056
    38  H   -0.000000   0.000000   0.000000   0.000000  -0.000000  -0.000000
    39  H   -0.000000  -0.000000   0.000000  -0.000000  -0.000000  -0.000000
    40  H   -0.000000  -0.000000  -0.000000  -0.000000  -0.000000  -0.000000
    41  H   -0.000000  -0.000000  -0.000000  -0.000000  -0.000000  -0.000000
    42  H    0.000000   0.000000  -0.000000   0.000000  -0.000000  -0.000000
    43  H    0.000000  -0.000000  -0.000000  -0.000000  -0.000000  -0.000000
    44  H    0.000000   0.000000  -0.000000   0.000000  -0.000000  -0.000000
    45  H   -0.000000  -0.000000  -0.000000  -0.000000  -0.000000  -0.000000
    46  H    0.000000   0.000000   0.000000  -0.000000  -0.000000  -0.000000
    47  H   -0.000001   0.000010  -0.000000   0.000012  -0.000000  -0.000000
    48  H   -0.000052   0.003080   0.000096  -0.000111   0.000000   0.000000
              37         38         39         40         41         42
     1  C   -0.000000  -0.000000  -0.000000  -0.000000  -0.000000   0.000000
     2  C    0.000000  -0.000000   0.000000  -0.000000  -0.000000   0.000000
     3  C    0.000001   0.000000  -0.000000   0.000000   0.000000  -0.000000
     4  C   -0.000186  -0.000001  -0.000004  -0.000008  -0.000000   0.000000
     5  C   -0.006407  -0.000000  -0.000014  -0.000008  -0.000000   0.000000
     6  C    0.000492   0.000000  -0.000001  -0.000000  -0.000000  -0.000000
     7  N   -0.000008   0.000000   0.000000   0.000000   0.000000  -0.000000
     8  C   -0.015565   0.000002  -0.000311  -0.000328  -0.000000   0.000011
     9  C   -0.114233  -0.000001   0.000018   0.000025  -0.000001  -0.000006
    10  C    0.119028  -0.000037  -0.000013   0.000002  -0.000023  -0.000046
    11  O   -0.072272  -0.000000  -0.000000  -0.000000   0.000000  -0.000000
    12  C    0.415112   0.000000  -0.000000  -0.000000   0.000000   0.000000
    13  C    0.023919   0.000016   0.000659   0.000640   0.000165   0.001334
    14  C    0.031949  -0.000235  -0.001822  -0.002042   0.000354   0.005062
    15  C   -0.000657   0.005338  -0.004168  -0.003724   0.004882   0.003623
    16  C    0.000381  -0.000751  -0.004735  -0.004214   0.003627  -0.023982
    17  Si   0.000004  -0.027926  -0.018638  -0.019576  -0.029611  -0.023754
    18  C    0.000000   0.394796   0.385337   0.386339  -0.002780   0.009766
    19  C    0.000000  -0.004671   0.009816  -0.003834   0.385650   0.390550
    20  C   -0.000000  -0.005351  -0.003882   0.009755  -0.004051  -0.001738
    21  C   -0.014348  -0.000082  -0.000008   0.000063  -0.000157  -0.000647
    22  N    0.003020   0.000000   0.000000   0.000000   0.000000  -0.000010
    23  C   -0.003737  -0.000682   0.001385   0.000856   0.000059   0.000948
    24  C   -0.001602   0.000374  -0.003263  -0.003355   0.000033   0.000178
    25  H    0.000000  -0.000000   0.000000   0.000000   0.000000   0.000000
    26  H    0.000000   0.000000   0.000000   0.000000   0.000000   0.000000
    27  H   -0.000000   0.000000   0.000000   0.000000  -0.000000  -0.000000
    28  H   -0.000000   0.000000  -0.000000  -0.000000  -0.000000   0.000000
    29  H   -0.000000   0.000000   0.000000  -0.000000   0.000000   0.000000
    30  H   -0.000000  -0.000000  -0.000000  -0.000000   0.000000   0.000000
    31  H   -0.000000  -0.000000  -0.000000  -0.000000  -0.000000   0.000000
    32  H   -0.000000   0.000000  -0.000000  -0.000000  -0.000000   0.000000
    33  H   -0.000000   0.000000   0.000000  -0.000000  -0.000000  -0.000000
    34  H    0.000166   0.000000  -0.000000  -0.000000  -0.000000   0.000000
    35  H   -0.027110  -0.000000  -0.000000  -0.000000  -0.000000  -0.000000
    36  H   -0.027056  -0.000000  -0.000000  -0.000000  -0.000000  -0.000000
    37  H    0.523072  -0.000000   0.000000   0.000000  -0.000000   0.000000
    38  H   -0.000000   0.519562  -0.023435  -0.023407   0.000326   0.000007
    39  H    0.000000  -0.023435   0.519275  -0.022756   0.000004  -0.000017
    40  H    0.000000  -0.023407  -0.022756   0.518473   0.000008   0.000003
    41  H   -0.000000   0.000326   0.000004   0.000008   0.524519  -0.022801
    42  H    0.000000   0.000007  -0.000017   0.000003  -0.022801   0.509198
    43  H    0.000000   0.000020   0.000001   0.000410  -0.023370  -0.021677
    44  H    0.000000   0.000008   0.000003  -0.000017   0.000013   0.000387
    45  H    0.000000   0.000025   0.000414   0.000001   0.000007  -0.000001
    46  H   -0.000000   0.000331   0.000011   0.000005   0.000308   0.000011
    47  H   -0.000000   0.000001   0.000017   0.000010  -0.000000  -0.000000
    48  H   -0.000000   0.000000   0.000000   0.000000  -0.000000  -0.000000
              43         44         45         46         47         48
     1  C   -0.000000   0.000000   0.000000   0.000000  -0.000008   0.000170
     2  C   -0.000000   0.000000   0.000000   0.000000  -0.000041  -0.005234
     3  C    0.000000  -0.000000  -0.000000  -0.000000  -0.000398   0.030599
     4  C   -0.000000   0.000000   0.000000   0.000000  -0.000177  -0.151315
     5  C   -0.000000   0.000000  -0.000000  -0.000000  -0.009382   0.048015
     6  C   -0.000000  -0.000000  -0.000000  -0.000000   0.000861   0.014057
     7  N    0.000000  -0.000000   0.000000   0.000000  -0.000002   0.000046
     8  C   -0.000013   0.000013  -0.000009   0.000001   0.025173  -0.055322
     9  C    0.000003  -0.000006   0.000001  -0.000001   0.000524   0.042836
    10  C    0.000019  -0.000034   0.000011  -0.000024   0.020868  -0.015437
    11  O   -0.000000  -0.000000  -0.000000   0.000000  -0.000652   0.000117
    12  C   -0.000000   0.000000  -0.000000   0.000000   0.000218  -0.000019
    13  C   -0.001052   0.001239  -0.000880   0.000171  -0.031702   0.065183
    14  C   -0.003136   0.004283  -0.002410   0.000465  -0.023985   0.006000
    15  C   -0.005460   0.003703  -0.004901   0.004971  -0.036650   0.010578
    16  C    0.001046  -0.022876  -0.000876   0.003579  -0.009687   0.000837
    17  Si  -0.021950  -0.024980  -0.021765  -0.030237   0.006604   0.000070
    18  C   -0.003471   0.009764  -0.003812  -0.003115  -0.000549  -0.000050
    19  C    0.385909  -0.001906   0.010063  -0.003730  -0.000175   0.000002
    20  C    0.010015   0.391626   0.386536   0.386270  -0.000220  -0.000000
    21  C    0.000045  -0.000405  -0.000006  -0.000148   0.012793  -0.001096
    22  N    0.000005  -0.000016   0.000004   0.000000  -0.000074   0.000004
    23  C   -0.000743   0.000938  -0.000521   0.000103   0.305920   0.056622
    24  C   -0.000398   0.000186  -0.000433   0.000040   0.049845   0.252924
    25  H   -0.000000   0.000000   0.000000   0.000000  -0.000000   0.000000
    26  H    0.000000   0.000000   0.000000   0.000000  -0.000000  -0.000000
    27  H   -0.000000  -0.000000  -0.000000  -0.000000   0.000000  -0.000000
    28  H   -0.000000  -0.000000  -0.000000  -0.000000   0.000000   0.000003
    29  H    0.000000  -0.000000  -0.000000   0.000000   0.000000  -0.000001
    30  H    0.000000   0.000000   0.000000  -0.000000   0.000000  -0.000010
    31  H    0.000000   0.000000  -0.000000   0.000000  -0.000001  -0.000052
    32  H   -0.000000   0.000000  -0.000000   0.000000   0.000010   0.003080
    33  H   -0.000000  -0.000000  -0.000000   0.000000  -0.000000   0.000096
    34  H   -0.000000   0.000000  -0.000000  -0.000000   0.000012  -0.000111
    35  H   -0.000000  -0.000000  -0.000000  -0.000000  -0.000000   0.000000
    36  H   -0.000000  -0.000000  -0.000000  -0.000000  -0.000000   0.000000
    37  H    0.000000   0.000000   0.000000  -0.000000  -0.000000  -0.000000
    38  H    0.000020   0.000008   0.000025   0.000331   0.000001   0.000000
    39  H    0.000001   0.000003   0.000414   0.000011   0.000017   0.000000
    40  H    0.000410  -0.000017   0.000001   0.000005   0.000010   0.000000
    41  H   -0.023370   0.000013   0.000007   0.000308  -0.000000  -0.000000
    42  H   -0.021677   0.000387  -0.000001   0.000011  -0.000000  -0.000000
    43  H    0.516485  -0.000001  -0.000017   0.000006   0.000000   0.000000
    44  H   -0.000001   0.509354  -0.021794  -0.022838  -0.000000  -0.000000
    45  H   -0.000017  -0.021794   0.516768  -0.023452   0.000000   0.000000
    46  H    0.000006  -0.022838  -0.023452   0.524340  -0.000000  -0.000000
    47  H    0.000000  -0.000000   0.000000  -0.000000   0.542881  -0.005472
    48  H    0.000000  -0.000000   0.000000  -0.000000  -0.005472   0.580831
 Mulliken charges:
               1
     1  C   -0.699317
     2  C   -0.123165
     3  C   -0.336981
     4  C   -0.288508
     5  C    0.343884
     6  C    0.131662
     7  N   -0.531151
     8  C    0.670814
     9  C   -0.560017
    10  C   -0.221839
    11  O   -0.329740
    12  C   -0.115219
    13  C    0.374031
    14  C    0.609357
    15  C    0.739907
    16  C   -0.779125
    17  Si   1.197883
    18  C   -0.688132
    19  C   -0.667718
    20  C   -0.667118
    21  C   -0.261370
    22  N   -0.532351
    23  C   -0.391735
    24  C   -0.584917
    25  H    0.148084
    26  H    0.150538
    27  H    0.146824
    28  H    0.135703
    29  H    0.141595
    30  H    0.153526
    31  H    0.142418
    32  H    0.129499
    33  H    0.162229
    34  H    0.145569
    35  H    0.153859
    36  H    0.153817
    37  H    0.166038
    38  H    0.165772
    39  H    0.166127
    40  H    0.166677
    41  H    0.162839
    42  H    0.173600
    43  H    0.167325
    44  H    0.173355
    45  H    0.167050
    46  H    0.162932
    47  H    0.153438
    48  H    0.122051
 Sum of Mulliken charges =  -0.00000
 Mulliken charges with hydrogens summed into heavy atoms:
               1
     1  C   -0.253871
     2  C    0.154133
     3  C   -0.041037
     4  C    0.003220
     5  C    0.343884
     6  C    0.131662
     7  N   -0.531151
     8  C    0.670814
     9  C   -0.414449
    10  C   -0.221839
    11  O   -0.329740
    12  C    0.358496
    13  C    0.374031
    14  C    0.609357
    15  C    0.739907
    16  C   -0.779125
    17  Si   1.197883
    18  C   -0.189555
    19  C   -0.163953
    20  C   -0.163781
    21  C   -0.261370
    22  N   -0.532351
    23  C   -0.238298
    24  C   -0.462866
 Electronic spatial extent (au):  <R**2>=          14483.1251
 Charge=             -0.0000 electrons
 Dipole moment (field-independent basis, Debye):
    X=             -0.3111    Y=             -5.7044    Z=             -0.7199  Tot=              5.7581
 Quadrupole moment (field-independent basis, Debye-Ang):
   XX=           -167.9560   YY=           -154.1641   ZZ=           -154.8525
   XY=              5.4707   XZ=              3.5122   YZ=              0.2448
 Traceless Quadrupole moment (field-independent basis, Debye-Ang):
   XX=             -8.9651   YY=              4.8268   ZZ=              4.1384
   XY=              5.4707   XZ=              3.5122   YZ=              0.2448
 Octapole moment (field-independent basis, Debye-Ang**2):
  XXX=           -189.4038  YYY=             -6.2050  ZZZ=              1.9992  XYY=             49.0269
  XXY=           -186.8155  XXZ=             -2.4486  XZZ=              5.6546  YZZ=             -0.9974
  YYZ=             -4.2721  XYZ=             20.6350
 Hexadecapole moment (field-independent basis, Debye-Ang**3):
 XXXX=         -15041.6904 YYYY=          -5097.3772 ZZZZ=           -700.0413 XXXY=           -301.3223
 XXXZ=             78.6405 YYYX=            293.2220 YYYZ=             -3.3851 ZZZX=              8.0157
 ZZZY=             10.7499 XXYY=          -3516.3977 XXZZ=          -2591.5990 YYZZ=           -991.8712
 XXYZ=             28.9849 YYXZ=             66.5025 ZZXY=             11.4240
 N-N= 1.928211441450D+03 E-N=-6.771504687128D+03  KE= 1.240304036188D+03
 Unable to Open any file for archive entry.
 1\1\GINC-N1\SP\RB3LYP TD-FC\6-31+G(d,p)\C20H24N2O1Si1\HPCMGAC13\10-Sep
 -2025\0\\# td=(50-50,nstates=3) b3lyp/6-31+g(d,p) geom=connectivity\\T
 itle Card Required\\0,1\C,0,5.870288,-4.045212,1.31836\C,0,5.345901,-3
 .331657,0.067028\C,0,4.739613,-1.955884,0.373181\C,0,4.211887,-1.24194
 3,-0.891532\C,0,3.662729,0.142015,-0.61261\C,0,4.646944,1.168798,-0.50
 0418\N,0,5.47668,1.986202,-0.417344\C,0,2.328076,0.46792,-0.427422\C,0
 ,1.91078,1.8237,-0.147923\C,0,0.59913,2.156164,0.039704\O,0,0.157717,3
 .402976,0.301488\C,0,1.09134,4.478564,0.397343\C,0,-0.455629,1.147318,
 -0.032062\C,0,-1.809871,1.415958,0.147694\C,0,-2.799194,0.397186,0.068
 736\C,0,-3.687855,-0.443031,0.010811\Si,0,-5.066929,-1.676975,-0.06836
 \C,0,-4.311934,-3.38687,-0.339976\C,0,-6.004241,-1.609424,1.568183\C,0
 ,-6.191162,-1.204156,-1.508713\C,0,-2.363875,2.710652,0.425011\N,0,-2.
 936998,3.699683,0.651499\C,0,-0.022793,-0.204258,-0.310948\C,0,1.27994
 5,-0.531429,-0.499885\H,0,6.297669,-5.022027,1.068493\H,0,6.651788,-3.
 455821,1.81155\H,0,5.068145,-4.209092,2.047447\H,0,4.590911,-3.961131,
 -0.424497\H,0,6.163679,-3.212565,-0.656659\H,0,5.494034,-1.321644,0.85
 6435\H,0,3.917732,-2.063718,1.093538\H,0,3.44882,-1.861467,-1.371651\H
 ,0,5.032206,-1.150522,-1.613899\H,0,2.675496,2.587363,-0.089288\H,0,1.
 804608,4.305104,1.211054\H,0,1.63037,4.613053,-0.547296\H,0,0.491212,5
 .362402,0.611553\H,0,-5.097613,-4.14988,-0.391482\H,0,-3.744417,-3.427
 178,-1.276098\H,0,-3.63545,-3.657509,0.478008\H,0,-6.840183,-2.319001,
 1.562358\H,0,-6.411362,-0.608888,1.748332\H,0,-5.351679,-1.862809,2.41
 0434\H,0,-6.602305,-0.198106,-1.374203\H,0,-5.64725,-1.220197,-2.45916
 \H,0,-7.030709,-1.905094,-1.587487\H,0,-0.786746,-0.971338,-0.367176\H
 ,0,1.538051,-1.563784,-0.70162\\Version=ES64L-G16RevC.02\State=1-A\HF=
 -1250.8017634\RMSD=8.599e-09\PG=C01 [X(C20H24N2O1Si1)]\\@
 The archive entry for this job was punched.


 A MUSTACHE HAIR ACROSS A CHIP IS LIKE A REDWOOD
 TREE FALLING THROUGH A HOUSING PROJECT.
 - AN IBM MANAGER IN EAST FISHKILL, NEW YORK
   AS QUOTED IN "FROM SANDS TO CIRCUITS", IBM INNOVATION JANUARY 1985.
 Job cpu time:       0 days  1 hours 38 minutes 15.7 seconds.
 Elapsed time:       0 days  0 hours  6 minutes 18.9 seconds.
 File lengths (MBytes):  RWF=   1700 Int=      0 D2E=      0 Chk=     85 Scr=      2
 Normal termination of Gaussian 16 at Wed Sep 10 15:01:58 2025.
