 Entering Gaussian System, Link 0=g16
 Input=M524e.gjf
 Output=M524e.log
 Initial command:
 /hpc/softwares/Gaussian/g16/l1.exe "/hpc/home/hpcmgac13/pbs.13527.admin1.x8z/Gau-3364128.inp" -scrdir="/hpc/home/hpcmgac13/pbs.13527.admin1.x8z/"
 Default linda workers: n2
 Default is to use  16 SMP processors on each worker.
 Entering Link 1 = /hpc/softwares/Gaussian/g16/l1.exe PID=   3364129.
  
 Copyright (c) 1988-2021, Gaussian, Inc.  All Rights Reserved.
  
 This is part of the Gaussian(R) 16 program.  It is based on
 the Gaussian(R) 09 system (copyright 2009, Gaussian, Inc.),
 the Gaussian(R) 03 system (copyright 2003, Gaussian, Inc.),
 the Gaussian(R) 98 system (copyright 1998, Gaussian, Inc.),
 the Gaussian(R) 94 system (copyright 1995, Gaussian, Inc.),
 the Gaussian 92(TM) system (copyright 1992, Gaussian, Inc.),
 the Gaussian 90(TM) system (copyright 1990, Gaussian, Inc.),
 the Gaussian 88(TM) system (copyright 1988, Gaussian, Inc.),
 the Gaussian 86(TM) system (copyright 1986, Carnegie Mellon
 University), and the Gaussian 82(TM) system (copyright 1983,
 Carnegie Mellon University). Gaussian is a federally registered
 trademark of Gaussian, Inc.
  
 This software contains proprietary and confidential information,
 including trade secrets, belonging to Gaussian, Inc.
  
 This software is provided under written license and may be
 used, copied, transmitted, or stored only in accord with that
 written license.
  
 The following legend is applicable only to US Government
 contracts under FAR:
  
                    RESTRICTED RIGHTS LEGEND
  
 Use, reproduction and disclosure by the US Government is
 subject to restrictions as set forth in subparagraphs (a)
 and (c) of the Commercial Computer Software - Restricted
 Rights clause in FAR 52.227-19.
  
 Gaussian, Inc.
 340 Quinnipiac St., Bldg. 40, Wallingford CT 06492
  
  
 ---------------------------------------------------------------
 Warning -- This program may not be used in any manner that
 competes with the business of Gaussian, Inc. or will provide
 assistance to any competitor of Gaussian, Inc.  The licensee
 of this program is prohibited from giving any competitor of
 Gaussian, Inc. access to this program.  By using this program,
 the user acknowledges that Gaussian, Inc. is engaged in the
 business of creating and licensing software in the field of
 computational chemistry and represents and warrants to the
 licensee that it is not a competitor of Gaussian, Inc. and that
 it will not use this program in any manner prohibited above.
 ---------------------------------------------------------------
  

 Cite this work as:
 Gaussian 16, Revision C.02,
 M. J. Frisch, G. W. Trucks, H. B. Schlegel, G. E. Scuseria, 
 M. A. Robb, J. R. Cheeseman, G. Scalmani, V. Barone, 
 G. A. Petersson, H. Nakatsuji, X. Li, M. Caricato, A. V. Marenich, 
 J. Bloino, B. G. Janesko, R. Gomperts, B. Mennucci, H. P. Hratchian, 
 J. V. Ortiz, A. F. Izmaylov, J. L. Sonnenberg, D. Williams-Young, 
 F. Ding, F. Lipparini, F. Egidi, J. Goings, B. Peng, A. Petrone, 
 T. Henderson, D. Ranasinghe, V. G. Zakrzewski, J. Gao, N. Rega, 
 G. Zheng, W. Liang, M. Hada, M. Ehara, K. Toyota, R. Fukuda, 
 J. Hasegawa, M. Ishida, T. Nakajima, Y. Honda, O. Kitao, H. Nakai, 
 T. Vreven, K. Throssell, J. A. Montgomery, Jr., J. E. Peralta, 
 F. Ogliaro, M. J. Bearpark, J. J. Heyd, E. N. Brothers, K. N. Kudin, 
 V. N. Staroverov, T. A. Keith, R. Kobayashi, J. Normand, 
 K. Raghavachari, A. P. Rendell, J. C. Burant, S. S. Iyengar, 
 J. Tomasi, M. Cossi, J. M. Millam, M. Klene, C. Adamo, R. Cammi, 
 J. W. Ochterski, R. L. Martin, K. Morokuma, O. Farkas, 
 J. B. Foresman, and D. J. Fox, Gaussian, Inc., Wallingford CT, 2019.
 
 ******************************************
 Gaussian 16:  ES64L-G16RevC.02  7-Dec-2021
                27-Aug-2025 
 ******************************************
 SetLPE:    new flags="-opt 'Tsnet.Node.lindarsharg: ssh'  -nodelist 'n2.head.cm.mguif.local' -env GAUSS_MDEF=2147483648 -env GAUSS_EXEDIR="/hpc/softwares/Gaussian/g16/bsd:/hpc/softwares/Gaussian/g16""
 Will use up to    1 processors via Linda.
 ----------------------------------------------------------
 # td=(50-50,nstates=3) b3lyp/6-31+g(d,p) geom=connectivity
 ----------------------------------------------------------
 1/38=1,57=2,172=1/1;
 2/12=2,17=6,18=5,40=1/2;
 3/5=1,6=6,7=111,11=9,25=1,30=1,74=-5/1,2,3,8;
 4//1;
 5/5=2,38=5/2;
 8/6=1,10=2,108=3/1;
 9/41=3,42=1,48=2,70=2/14;
 6/7=2,8=2,9=2,10=2/1;
 99/5=1,9=1/99;
 -------------------
 Title Card Required
 -------------------
 Symbolic Z-matrix:
 Charge =  0 Multiplicity = 1
 C                    -1.54617   2.73427  -1.11879 
 C                    -0.83985   2.54689   0.18148 
 N                    -0.7396    1.42587   0.8436 
 O                    -0.10476   1.30293   1.97506 
 C                    -1.32325   0.1787    0.35902 
 C                    -2.63246  -0.12842   0.71873 
 C                    -3.20214  -1.32315   0.27476 
 C                    -2.46812  -2.18978  -0.53975 
 C                    -1.16071  -1.86876  -0.90231 
 C                    -0.56016  -0.68919  -0.43613 
 C                     0.85551  -0.40972  -0.85162 
 O                     1.20956  -0.47145  -2.00644 
 C                     1.89851  -0.14534   0.29573 
 C                     2.24318  -1.44445   0.89368 
 N                     2.47225  -2.48407   1.35587 
 C                     3.08263   0.56374  -0.20149 
 N                     3.99577   1.17183  -0.57744 
 H                    -2.35533   3.46657  -1.00459 
 H                    -0.85201   3.14321  -1.86294 
 H                    -1.96947   1.80931  -1.51214 
 H                    -0.35149   3.38358   0.67253 
 H                    -3.19109   0.56436   1.33946 
 H                    -4.21961  -1.57103   0.55998 
 H                    -2.91202  -3.11539  -0.89161 
 H                    -0.58416  -2.53326  -1.53723 
 H                     1.41607   0.45666   1.09348 
 
                          Input orientation:                          
 ---------------------------------------------------------------------
 Center     Atomic      Atomic             Coordinates (Angstroms)
 Number     Number       Type             X           Y           Z
 ---------------------------------------------------------------------
      1          6           0       -1.546171    2.734270   -1.118786
      2          6           0       -0.839852    2.546887    0.181479
      3          7           0       -0.739597    1.425865    0.843596
      4          8           0       -0.104760    1.302933    1.975064
      5          6           0       -1.323254    0.178704    0.359018
      6          6           0       -2.632459   -0.128423    0.718730
      7          6           0       -3.202140   -1.323145    0.274760
      8          6           0       -2.468124   -2.189779   -0.539749
      9          6           0       -1.160707   -1.868759   -0.902305
     10          6           0       -0.560161   -0.689192   -0.436127
     11          6           0        0.855505   -0.409721   -0.851619
     12          8           0        1.209562   -0.471446   -2.006437
     13          6           0        1.898512   -0.145344    0.295727
     14          6           0        2.243180   -1.444448    0.893681
     15          7           0        2.472249   -2.484070    1.355869
     16          6           0        3.082627    0.563741   -0.201491
     17          7           0        3.995774    1.171829   -0.577444
     18          1           0       -2.355330    3.466573   -1.004592
     19          1           0       -0.852007    3.143208   -1.862942
     20          1           0       -1.969473    1.809310   -1.512136
     21          1           0       -0.351490    3.383577    0.672531
     22          1           0       -3.191094    0.564359    1.339459
     23          1           0       -4.219611   -1.571027    0.559978
     24          1           0       -2.912023   -3.115389   -0.891606
     25          1           0       -0.584162   -2.533264   -1.537230
     26          1           0        1.416069    0.456658    1.093478
 ---------------------------------------------------------------------
                    Distance matrix (angstroms):
                    1          2          3          4          5
     1  C    0.000000
     2  C    1.491539   0.000000
     3  N    2.492675   1.305810   0.000000
     4  O    3.701121   2.303200   1.303208   0.000000
     5  C    2.960492   2.423528   1.459754   2.315216   0.000000
     6  C    3.570924   3.264868   2.452413   3.164872   1.392026
     7  C    4.598567   4.535003   3.734267   4.402395   2.406837
     8  C    5.042969   5.060380   4.239614   4.910072   2.779968
     9  C    4.624210   4.558011   3.752339   4.410658   2.410283
    10  C    3.627441   3.306338   2.478579   3.160664   1.402786
    11  C    3.965363   3.561328   2.964368   3.441719   2.561030
    12  O    4.319561   4.254105   3.939759   4.552825   3.526078
    13  C    4.707320   3.841848   3.119051   2.988441   3.238640
    14  C    5.989231   5.093434   4.139827   3.772309   3.954736
    15  N    7.035815   6.136753   5.085860   4.622312   4.742354
    16  C    5.194073   4.411958   4.055226   3.929788   4.458050
    17  N    5.783375   5.084292   4.950518   4.831859   5.491386
    18  H    1.097290   2.132900   3.192316   4.315641   3.706035
    19  H    1.096751   2.129649   3.207374   4.321491   3.734630
    20  H    1.090624   2.165270   2.684976   3.986745   2.564701
    21  H    2.248928   1.086131   2.003129   2.467093   3.363603
    22  H    3.668413   3.286286   2.645356   3.236502   2.144486
    23  H    5.338643   5.340716   4.601337   5.214798   3.389812
    24  H    6.011295   6.124277   5.324786   5.968257   3.865139
    25  H    5.370984   5.369103   4.622466   5.223260   3.390691
    26  H    4.342407   3.207800   2.376699   1.950973   2.849663
                    6          7          8          9         10
     6  C    0.000000
     7  C    1.396068   0.000000
     8  C    2.420736   1.397590   0.000000
     9  C    2.796887   2.418807   1.394217   0.000000
    10  C    2.437740   2.808435   2.429572   1.403337   0.000000
    11  C    3.835494   4.309009   3.783171   2.489271   1.501615
    12  O    4.722851   5.039084   4.316158   2.964754   2.375964
    13  C    4.550705   5.234912   4.893388   3.710022   2.622299
    14  C    5.053156   5.481723   4.980625   3.871957   3.193356
    15  N    5.658009   5.891964   5.299742   4.321612   3.953270
    16  C    5.829932   6.579168   6.205411   4.941061   3.859378
    17  N    6.877805   7.665580   7.285863   5.994998   4.923405
    18  H    3.996328   5.029436   5.676541   5.468396   4.562474
    19  H    4.531954   5.480986   5.727427   5.112527   4.099788
    20  H    3.028386   3.811134   4.145709   3.814995   3.063734
    21  H    4.187971   5.517034   6.083754   5.542741   4.226123
    22  H    1.085046   2.167113   3.411654   3.881757   3.412610
    23  H    2.150665   1.085376   2.158694   3.403500   3.893768
    24  H    3.404894   2.157943   1.085174   2.149723   3.409567
    25  H    3.881770   3.406098   2.159227   1.084943   2.147930
    26  H    4.107716   5.016558   4.975743   4.003809   2.749209
                   11         12         13         14         15
    11  C    0.000000
    12  O    1.209451   0.000000
    13  C    1.572947   2.425068   0.000000
    14  C    2.458124   3.228898   1.471060   0.000000
    15  N    3.433626   4.117054   2.631105   1.160562   0.000000
    16  C    2.516022   2.799610   1.467023   2.436575   3.476648
    17  N    3.526721   3.536291   2.626001   3.475730   4.407315
    18  H    5.035724   5.405566   5.729917   6.990555   8.017945
    19  H    4.069604   4.163698   4.799977   6.182697   7.285443
    20  H    3.652517   3.943659   4.695780   5.841348   6.810834
    21  H    4.262509   4.947217   4.202115   5.485531   6.547498
    22  H    4.703681   5.624383   5.243772   5.810797   6.431690
    23  H    5.394260   6.105038   6.287593   6.472638   6.800594
    24  H    4.638589   5.022026   5.776865   5.705735   5.868568
    25  H    2.655586   2.772850   3.901995   3.884419   4.208811
    26  H    2.201873   3.242452   1.109759   2.082843   3.135641
                   16         17         18         19         20
    16  C    0.000000
    17  N    1.159719   0.000000
    18  H    6.216332   6.766449   0.000000
    19  H    4.989530   5.388861   1.761054   0.000000
    20  H    5.365906   6.071590   1.775671   1.775128   0.000000
    21  H    4.528637   5.035173   2.614384   2.595557   3.141489
    22  H    6.460194   7.462882   3.823078   4.730451   3.342732
    23  H    7.645898   8.735533   5.594715   6.279754   4.558888
    24  H    7.067396   8.136129   6.606428   6.660120   5.052338
    25  H    4.982066   5.968644   6.278438   5.692114   4.558252
    26  H    2.113250   3.155682   5.261648   4.593706   4.481159
                   21         22         23         24         25
    21  H    0.000000
    22  H    4.056616   0.000000
    23  H    6.286742   2.495057   0.000000
    24  H    7.158171   4.312317   2.490369   0.000000
    25  H    6.320300   4.966558   4.305888   2.484882   0.000000
    26  H    3.445042   4.614982   6.013071   5.952517   4.456589
                   26
    26  H    0.000000
 Stoichiometry    C12H9N3O2
 Framework group  C1[X(C12H9N3O2)]
 Deg. of freedom    72
 Full point group                 C1      NOp   1
 Largest Abelian subgroup         C1      NOp   1
 Largest concise Abelian subgroup C1      NOp   1
                         Standard orientation:                         
 ---------------------------------------------------------------------
 Center     Atomic      Atomic             Coordinates (Angstroms)
 Number     Number       Type             X           Y           Z
 ---------------------------------------------------------------------
      1          6           0        1.546171    2.734270    1.118786
      2          6           0        0.839852    2.546887   -0.181479
      3          7           0        0.739597    1.425865   -0.843596
      4          8           0        0.104760    1.302933   -1.975064
      5          6           0        1.323254    0.178704   -0.359018
      6          6           0        2.632459   -0.128423   -0.718730
      7          6           0        3.202140   -1.323145   -0.274760
      8          6           0        2.468124   -2.189779    0.539749
      9          6           0        1.160707   -1.868759    0.902305
     10          6           0        0.560161   -0.689192    0.436127
     11          6           0       -0.855505   -0.409721    0.851619
     12          8           0       -1.209562   -0.471446    2.006437
     13          6           0       -1.898512   -0.145344   -0.295727
     14          6           0       -2.243180   -1.444448   -0.893681
     15          7           0       -2.472249   -2.484070   -1.355869
     16          6           0       -3.082627    0.563741    0.201491
     17          7           0       -3.995774    1.171828    0.577444
     18          1           0        2.355330    3.466573    1.004592
     19          1           0        0.852007    3.143208    1.862942
     20          1           0        1.969473    1.809310    1.512136
     21          1           0        0.351490    3.383577   -0.672531
     22          1           0        3.191094    0.564359   -1.339459
     23          1           0        4.219611   -1.571027   -0.559978
     24          1           0        2.912023   -3.115389    0.891606
     25          1           0        0.584162   -2.533264    1.537230
     26          1           0       -1.416069    0.456658   -1.093478
 ---------------------------------------------------------------------
 Rotational constants (GHZ):           0.6425082           0.4166141           0.3326905
 Standard basis: 6-31+G(d,p) (6D, 7F)
 There are   368 symmetry adapted cartesian basis functions of A   symmetry.
 There are   368 symmetry adapted basis functions of A   symmetry.
   368 basis functions,   607 primitive gaussians,   368 cartesian basis functions
    59 alpha electrons       59 beta electrons
       nuclear repulsion energy      1117.8037993492 Hartrees.
 NAtoms=   26 NActive=   26 NUniq=   26 SFac= 1.00D+00 NAtFMM=   60 NAOKFM=F Big=F
 Integral buffers will be    131072 words long.
 Regular integral format.
 Two-electron integral symmetry is turned on.
 One-electron integrals computed using PRISM.
 NBasis=   368 RedAO= T EigKep=  1.60D-06  NBF=   368
 NBsUse=   367 1.00D-06 EigRej=  5.70D-07 NBFU=   367
 ExpMin= 4.38D-02 ExpMax= 5.48D+03 ExpMxC= 8.25D+02 IAcc=3 IRadAn=         5 AccDes= 0.00D+00
 Harris functional with IExCor=  402 and IRadAn=       5 diagonalized for initial guess.
 HarFok:  IExCor=  402 AccDes= 0.00D+00 IRadAn=         5 IDoV= 1 UseB2=F ITyADJ=14
 ICtDFT=  3500011 ScaDFX=  1.000000  1.000000  1.000000  1.000000
 FoFCou: FMM=F IPFlag=           0 FMFlag=      100000 FMFlg1=           0
         NFxFlg=           0 DoJE=T BraDBF=F KetDBF=T FulRan=T
         wScrn=  0.000000 ICntrl=       500 IOpCl=  0 I1Cent=   200000004 NGrid=           0
         NMat0=    1 NMatS0=      1 NMatT0=    0 NMatD0=    1 NMtDS0=    0 NMtDT0=    0
 Petite list used in FoFCou.
 Requested convergence on RMS density matrix=1.00D-08 within 128 cycles.
 Requested convergence on MAX density matrix=1.00D-06.
 Requested convergence on             energy=1.00D-06.
 No special actions if energy rises.
 SCF Done:  E(RB3LYP) =  -777.304949169     A.U. after   16 cycles
            NFock= 16  Conv=0.87D-08     -V/T= 2.0095
 DoSCS=F DFT=T ScalE2(SS,OS)=  1.000000  1.000000
 ExpMin= 4.38D-02 ExpMax= 5.48D+03 ExpMxC= 8.25D+02 IAcc=3 IRadAn=         5 AccDes= 0.00D+00
 HarFok:  IExCor=  205 AccDes= 0.00D+00 IRadAn=         5 IDoV=-2 UseB2=F ITyADJ=14
 ICtDFT= 12500011 ScaDFX=  1.000000  1.000000  1.000000  1.000000
 Range of M.O.s used for correlation:    18   367
 NBasis=   368 NAE=    59 NBE=    59 NFC=    17 NFV=     0
 NROrb=    350 NOA=    42 NOB=    42 NVA=   308 NVB=   308

 **** Warning!!: The largest alpha MO coefficient is  0.16970289D+03

 Orbital symmetries:
       Occupied  (A) (A) (A) (A) (A) (A) (A) (A) (A) (A) (A) (A)
                 (A) (A) (A) (A) (A) (A) (A) (A) (A) (A) (A) (A)
                 (A) (A) (A) (A) (A) (A) (A) (A) (A) (A) (A) (A)
                 (A) (A) (A) (A) (A) (A) (A) (A) (A) (A) (A) (A)
                 (A) (A) (A) (A) (A) (A) (A) (A) (A) (A) (A)
       Virtual   (A) (A) (A) (A) (A) (A) (A) (A) (A) (A) (A) (A)
                 (A) (A) (A) (A) (A) (A) (A) (A) (A) (A) (A) (A)
                 (A) (A) (A) (A) (A) (A) (A) (A) (A) (A) (A) (A)
                 (A) (A) (A) (A) (A) (A) (A) (A) (A) (A) (A) (A)
                 (A) (A) (A) (A) (A) (A) (A) (A) (A) (A) (A) (A)
                 (A) (A) (A) (A) (A) (A) (A) (A) (A) (A) (A) (A)
                 (A) (A) (A) (A) (A) (A) (A) (A) (A) (A) (A) (A)
                 (A) (A) (A) (A) (A) (A) (A) (A) (A) (A) (A) (A)
                 (A) (A) (A) (A) (A) (A) (A) (A) (A) (A) (A) (A)
                 (A) (A) (A) (A) (A) (A) (A) (A) (A) (A) (A) (A)
                 (A) (A) (A) (A) (A) (A) (A) (A) (A) (A) (A) (A)
                 (A) (A) (A) (A) (A) (A) (A) (A) (A) (A) (A) (A)
                 (A) (A) (A) (A) (A) (A) (A) (A) (A) (A) (A) (A)
                 (A) (A) (A) (A) (A) (A) (A) (A) (A) (A) (A) (A)
                 (A) (A) (A) (A) (A) (A) (A) (A) (A) (A) (A) (A)
                 (A) (A) (A) (A) (A) (A) (A) (A) (A) (A) (A) (A)
                 (A) (A) (A) (A) (A) (A) (A) (A) (A) (A) (A) (A)
                 (A) (A) (A) (A) (A) (A) (A) (A) (A) (A) (A) (A)
                 (A) (A) (A) (A) (A) (A) (A) (A) (A) (A) (A) (A)
                 (A) (A) (A) (A) (A) (A) (A) (A) (A) (A) (A) (A)
                 (A) (A) (A) (A) (A) (A) (A) (A) (A) (A) (A) (A)
                 (A) (A) (A) (A) (A) (A) (A) (A) (A) (A) (A) (A)
                 (A) (A) (A) (A) (A) (A) (A) (A) (A) (A) (A) (A)
                 (A) (A) (A) (A) (A) (A) (A) (A) (A) (A) (A) (A)
                 (A) (A) (A) (A) (A) (A) (A) (A) (A) (A) (A) (A)
                 (A) (A) (A) (A) (A) (A) (A) (A)
    24 initial guesses have been made.
 Convergence on wavefunction:    0.001000000000000
 Iteration     1 Dimension    24 NMult     0 NNew     24
 CISAX will form    24 AO SS matrices at one time.
 New state      1 was old state      6
 New state      3 was old state      1
 New state      4 was old state     10
 New state      5 was old state      4
 New state      6 was old state      3
 New state      7 was old state     12
 New state      8 was old state      9
 New state      9 was old state     11
 New state     10 was old state     14
 New state     11 was old state      8
 New state     12 was old state      7
 Vector   5 SDiff=3.95D+00 TDiff=5.66D+00 assumed to be singlet.
 Vector  11 SDiff=4.06D+00 TDiff=5.12D+00 assumed to be singlet.
 Iteration     2 Dimension    36 NMult    24 NNew     12
 New state      2 was old state      4
 New state      3 was old state      2
 New state      4 was old state      3
 New state      5 was old state      6
 New state      6 was old state      8
 Iteration     3 Dimension    48 NMult    36 NNew     12
 Iteration     4 Dimension    60 NMult    48 NNew     12
 Iteration     5 Dimension    72 NMult    60 NNew     12
 Iteration     6 Dimension    80 NMult    72 NNew      8
 Iteration     7 Dimension    82 NMult    80 NNew      2
 ***********************************************************************
 Excited states from <AA,BB:AA,BB> singles matrix:
 ***********************************************************************
 
 Ground to excited state transition densities written to RWF  633
 Ground to excited state transition electric dipole moments (Au):
       state          X           Y           Z        Dip. S.      Osc.
         1         0.0000     -0.0000     -0.0000      0.0000      0.0000
         2         0.0000     -0.0000      0.0000      0.0000      0.0000
         3         0.0000     -0.0000      0.0000      0.0000      0.0000
         4        -0.0046      0.2750     -0.1015      0.0860      0.0074
         5        -0.2982     -0.2634      0.1015      0.1686      0.0163
         6         0.0620     -0.2827      0.1320      0.1012      0.0101
 Ground to excited state transition velocity dipole moments (Au):
       state          X           Y           Z        Dip. S.      Osc.
         1        -0.0000      0.0000     -0.0000      0.0000      0.0000
         2        -0.0000      0.0000      0.0000      0.0000      0.0000
         3        -0.0000      0.0000      0.0000      0.0000      0.0000
         4         0.0012     -0.0302      0.0084      0.0010      0.0051
         5         0.0417      0.0358     -0.0154      0.0033      0.0150
         6        -0.0082      0.0435     -0.0209      0.0024      0.0107
 Ground to excited state transition magnetic dipole moments (Au):
       state          X           Y           Z
         1        -0.0000     -0.0000     -0.0000
         2         0.0000      0.0000     -0.0000
         3         0.0000     -0.0000      0.0000
         4        -0.0330      0.1733      0.4062
         5         0.2790      0.2009     -0.3396
         6        -0.1199      0.1605      0.9195
 Ground to excited state transition velocity quadrupole moments (Au):
       state          XX          YY          ZZ          XY          XZ          YZ
         1        -0.0000     -0.0000     -0.0000      0.0000     -0.0000     -0.0000
         2         0.0000     -0.0000      0.0000     -0.0000     -0.0000     -0.0000
         3        -0.0000     -0.0000     -0.0000      0.0000     -0.0000      0.0000
         4         0.0848     -0.0802      0.0105     -0.0482     -0.0315      0.0105
         5         0.0324      0.0542     -0.0316     -0.0868     -0.0162     -0.0193
         6        -0.0679      0.0527      0.0074      0.2174      0.0269      0.0706
 <0|del|b> * <b|rxdel|0> + <0|del|b> * <b|delr+rdel|0>
 Rotatory Strengths (R) in cgs (10**-40 erg-esu-cm/Gauss)
       state          XX          YY          ZZ    R(velocity)    E-M Angle
         1        -0.0000      0.0000     -0.0000     -0.0000       90.00
         2         0.0000     -0.0000     -0.0000      0.0000       90.00
         3         0.0000     -0.0000      0.0000      0.0000       90.00
         4        -8.7316     10.2969    -11.8533     -3.4293       97.79
         5        34.9134     35.8118     46.3840     39.0364       29.33
         6       -42.5313    -33.8013     23.0310    -17.7672      104.13
 1/2[<0|r|b>*<b|rxdel|0> + (<0|rxdel|b>*<b|r|0>)*]
 Rotatory Strengths (R) in cgs (10**-40 erg-esu-cm/Gauss)
       state          XX          YY          ZZ     R(length)
         1         0.0000     -0.0000     -0.0000     -0.0000
         2        -0.0000      0.0000      0.0000      0.0000
         3        -0.0000     -0.0000     -0.0000     -0.0000
         4        -0.1064    -33.6952     29.1555     -1.5487
         5        58.8180     37.4113     24.3699     40.1997
         6         5.2577     32.0931    -85.8325    -16.1606
  1/2[<0|del|b>*<b|r|0> + (<0|r|b>*<b|del|0>)*] (Au)
       state          X           Y           Z        Dip. S.   Osc.(frdel)
         1        -0.0000     -0.0000      0.0000      0.0000      0.0000
         2        -0.0000     -0.0000      0.0000      0.0000      0.0000
         3        -0.0000     -0.0000      0.0000      0.0000      0.0000
         4        -0.0000     -0.0083     -0.0008      0.0092      0.0061
         5        -0.0124     -0.0094     -0.0016      0.0234      0.0156
         6        -0.0005     -0.0123     -0.0028      0.0156      0.0104

 Excitation energies and oscillator strengths:
 
 Excited State   1:      Triplet-A      2.3784 eV  521.30 nm  f=0.0000  <S**2>=2.000
      59 -> 61         0.70884
      59 <- 61         0.16385
 This state for optimization and/or second-order correction.
 Total Energy, E(TD-HF/TD-DFT) =  -777.217546239    
 Copying the excited state density for this state as the 1-particle RhoCI density.
 
 Excited State   2:      Triplet-A      3.3120 eV  374.35 nm  f=0.0000  <S**2>=2.000
      55 -> 60         0.15639
      55 -> 62        -0.10612
      56 -> 60         0.10426
      56 -> 63         0.14619
      57 -> 60         0.52185
      58 -> 60         0.28193
      58 -> 62        -0.11371
      59 -> 60        -0.19467
 
 Excited State   3:      Triplet-A      3.4112 eV  363.47 nm  f=0.0000  <S**2>=2.000
      55 -> 62        -0.10301
      56 -> 60        -0.17746
      58 -> 60         0.16255
      58 -> 62        -0.10742
      59 -> 60         0.61600
 
 Excited State   4:      Singlet-A      3.5204 eV  352.19 nm  f=0.0074  <S**2>=0.000
      59 -> 60         0.69951
 
 Excited State   5:      Singlet-A      3.9504 eV  313.85 nm  f=0.0163  <S**2>=0.000
      56 -> 60         0.26975
      57 -> 60         0.37129
      58 -> 60         0.51508
 
 Excited State   6:      Singlet-A      4.0662 eV  304.92 nm  f=0.0101  <S**2>=0.000
      56 -> 60        -0.24766
      57 -> 60        -0.42741
      58 -> 60         0.46851
 SavETr:  write IOETrn=   770 NScale= 10 NData=  16 NLR=1 NState=    6 LETran=     118.

 **********************************************************************

            Population analysis using the SCF Density.

 **********************************************************************

 Orbital symmetries:
       Occupied  (A) (A) (A) (A) (A) (A) (A) (A) (A) (A) (A) (A)
                 (A) (A) (A) (A) (A) (A) (A) (A) (A) (A) (A) (A)
                 (A) (A) (A) (A) (A) (A) (A) (A) (A) (A) (A) (A)
                 (A) (A) (A) (A) (A) (A) (A) (A) (A) (A) (A) (A)
                 (A) (A) (A) (A) (A) (A) (A) (A) (A) (A) (A)
       Virtual   (A) (A) (A) (A) (A) (A) (A) (A) (A) (A) (A) (A)
                 (A) (A) (A) (A) (A) (A) (A) (A) (A) (A) (A) (A)
                 (A) (A) (A) (A) (A) (A) (A) (A) (A) (A) (A) (A)
                 (A) (A) (A) (A) (A) (A) (A) (A) (A) (A) (A) (A)
                 (A) (A) (A) (A) (A) (A) (A) (A) (A) (A) (A) (A)
                 (A) (A) (A) (A) (A) (A) (A) (A) (A) (A) (A) (A)
                 (A) (A) (A) (A) (A) (A) (A) (A) (A) (A) (A) (A)
                 (A) (A) (A) (A) (A) (A) (A) (A) (A) (A) (A) (A)
                 (A) (A) (A) (A) (A) (A) (A) (A) (A) (A) (A) (A)
                 (A) (A) (A) (A) (A) (A) (A) (A) (A) (A) (A) (A)
                 (A) (A) (A) (A) (A) (A) (A) (A) (A) (A) (A) (A)
                 (A) (A) (A) (A) (A) (A) (A) (A) (A) (A) (A) (A)
                 (A) (A) (A) (A) (A) (A) (A) (A) (A) (A) (A) (A)
                 (A) (A) (A) (A) (A) (A) (A) (A) (A) (A) (A) (A)
                 (A) (A) (A) (A) (A) (A) (A) (A) (A) (A) (A) (A)
                 (A) (A) (A) (A) (A) (A) (A) (A) (A) (A) (A) (A)
                 (A) (A) (A) (A) (A) (A) (A) (A) (A) (A) (A) (A)
                 (A) (A) (A) (A) (A) (A) (A) (A) (A) (A) (A) (A)
                 (A) (A) (A) (A) (A) (A) (A) (A) (A) (A) (A) (A)
                 (A) (A) (A) (A) (A) (A) (A) (A) (A) (A) (A) (A)
                 (A) (A) (A) (A) (A) (A) (A) (A) (A) (A) (A) (A)
                 (A) (A) (A) (A) (A) (A) (A) (A) (A) (A) (A) (A)
                 (A) (A) (A) (A) (A) (A) (A) (A) (A) (A) (A) (A)
                 (A) (A) (A) (A) (A) (A) (A) (A) (A) (A) (A) (A)
                 (A) (A) (A) (A) (A) (A) (A) (A) (A) (A) (A) (A)
                 (A) (A) (A) (A) (A) (A) (A) (A)
 The electronic state is 1-A.
 Alpha  occ. eigenvalues --  -19.20549 -19.16158 -14.51256 -14.36849 -14.36369
 Alpha  occ. eigenvalues --  -10.34539 -10.29944 -10.28979 -10.28204 -10.26355
 Alpha  occ. eigenvalues --  -10.26108 -10.25736 -10.24781 -10.24729 -10.24613
 Alpha  occ. eigenvalues --  -10.24173 -10.23704  -1.13366  -1.10644  -0.94057
 Alpha  occ. eigenvalues --   -0.92805  -0.92653  -0.89613  -0.84905  -0.81652
 Alpha  occ. eigenvalues --   -0.81018  -0.76482  -0.70674  -0.68489  -0.63574
 Alpha  occ. eigenvalues --   -0.60618  -0.59965  -0.56015  -0.55069  -0.54421
 Alpha  occ. eigenvalues --   -0.52355  -0.52015  -0.50592  -0.48701  -0.47817
 Alpha  occ. eigenvalues --   -0.47540  -0.44803  -0.44782  -0.43610  -0.42886
 Alpha  occ. eigenvalues --   -0.41453  -0.40983  -0.40191  -0.39153  -0.38543
 Alpha  occ. eigenvalues --   -0.37251  -0.36329  -0.35294  -0.35057  -0.31677
 Alpha  occ. eigenvalues --   -0.31372  -0.30095  -0.27850  -0.26067
 Alpha virt. eigenvalues --   -0.10217  -0.07157  -0.06211  -0.04663  -0.02000
 Alpha virt. eigenvalues --   -0.01801  -0.00583   0.00150   0.00407   0.00784
 Alpha virt. eigenvalues --    0.01660   0.01744   0.02490   0.03426   0.03525
 Alpha virt. eigenvalues --    0.03945   0.04212   0.04629   0.05764   0.06233
 Alpha virt. eigenvalues --    0.06705   0.07093   0.07534   0.08401   0.08573
 Alpha virt. eigenvalues --    0.08691   0.09629   0.09661   0.10076   0.10166
 Alpha virt. eigenvalues --    0.10636   0.11093   0.11977   0.12459   0.13215
 Alpha virt. eigenvalues --    0.13603   0.13904   0.14557   0.14834   0.15062
 Alpha virt. eigenvalues --    0.15456   0.16425   0.16865   0.16960   0.17254
 Alpha virt. eigenvalues --    0.17417   0.18335   0.18615   0.18831   0.19444
 Alpha virt. eigenvalues --    0.19712   0.19993   0.20832   0.21343   0.21715
 Alpha virt. eigenvalues --    0.22071   0.22293   0.22849   0.23303   0.23579
 Alpha virt. eigenvalues --    0.24123   0.24438   0.24765   0.25534   0.25695
 Alpha virt. eigenvalues --    0.26271   0.26296   0.27032   0.27267   0.27410
 Alpha virt. eigenvalues --    0.27900   0.28250   0.28415   0.28922   0.29582
 Alpha virt. eigenvalues --    0.29993   0.30807   0.31390   0.31872   0.32467
 Alpha virt. eigenvalues --    0.33324   0.33726   0.34480   0.35254   0.35912
 Alpha virt. eigenvalues --    0.36114   0.37118   0.37653   0.38436   0.39402
 Alpha virt. eigenvalues --    0.40209   0.41287   0.41774   0.42285   0.43299
 Alpha virt. eigenvalues --    0.43749   0.46676   0.52520   0.54506   0.57591
 Alpha virt. eigenvalues --    0.57991   0.63204   0.63394   0.64080   0.66054
 Alpha virt. eigenvalues --    0.66651   0.68899   0.70154   0.70536   0.70796
 Alpha virt. eigenvalues --    0.72227   0.72441   0.73054   0.73527   0.74054
 Alpha virt. eigenvalues --    0.75624   0.75900   0.76631   0.77563   0.79182
 Alpha virt. eigenvalues --    0.79748   0.81132   0.81444   0.83385   0.83816
 Alpha virt. eigenvalues --    0.85159   0.86223   0.86901   0.87918   0.88310
 Alpha virt. eigenvalues --    0.89686   0.91048   0.91379   0.92960   0.93819
 Alpha virt. eigenvalues --    0.94300   0.96445   0.96767   0.97416   0.99315
 Alpha virt. eigenvalues --    1.00128   1.01048   1.02234   1.02823   1.03087
 Alpha virt. eigenvalues --    1.04198   1.05116   1.05737   1.07852   1.10717
 Alpha virt. eigenvalues --    1.10922   1.12056   1.12746   1.13703   1.15045
 Alpha virt. eigenvalues --    1.15967   1.17118   1.20258   1.22164   1.23536
 Alpha virt. eigenvalues --    1.24279   1.25767   1.27540   1.29430   1.30925
 Alpha virt. eigenvalues --    1.31304   1.33069   1.33506   1.34676   1.35336
 Alpha virt. eigenvalues --    1.36637   1.37226   1.37894   1.40545   1.41263
 Alpha virt. eigenvalues --    1.41541   1.42035   1.44267   1.44911   1.47577
 Alpha virt. eigenvalues --    1.48822   1.50090   1.52069   1.53582   1.54312
 Alpha virt. eigenvalues --    1.56967   1.59708   1.61785   1.62174   1.64179
 Alpha virt. eigenvalues --    1.65522   1.68366   1.72577   1.74350   1.75285
 Alpha virt. eigenvalues --    1.76045   1.78085   1.80149   1.80173   1.81237
 Alpha virt. eigenvalues --    1.82453   1.83649   1.85354   1.87458   1.88010
 Alpha virt. eigenvalues --    1.89122   1.90911   1.91951   1.93916   1.94279
 Alpha virt. eigenvalues --    1.94927   1.95411   1.96443   1.98350   1.98922
 Alpha virt. eigenvalues --    2.00021   2.00561   2.01090   2.01953   2.02688
 Alpha virt. eigenvalues --    2.03692   2.05314   2.07780   2.08209   2.10139
 Alpha virt. eigenvalues --    2.11493   2.13661   2.16750   2.18601   2.19661
 Alpha virt. eigenvalues --    2.23028   2.23919   2.24559   2.26479   2.29179
 Alpha virt. eigenvalues --    2.31667   2.34230   2.34701   2.34730   2.35754
 Alpha virt. eigenvalues --    2.38465   2.40643   2.42197   2.43678   2.45194
 Alpha virt. eigenvalues --    2.47516   2.49105   2.50749   2.51839   2.52268
 Alpha virt. eigenvalues --    2.54774   2.55201   2.56915   2.57776   2.59836
 Alpha virt. eigenvalues --    2.62013   2.63658   2.65107   2.65439   2.66324
 Alpha virt. eigenvalues --    2.69734   2.72125   2.75729   2.76543   2.81410
 Alpha virt. eigenvalues --    2.81939   2.83127   2.87895   2.91775   2.94149
 Alpha virt. eigenvalues --    2.96263   2.98240   2.99479   3.00327   3.01673
 Alpha virt. eigenvalues --    3.06690   3.16077   3.18415   3.19021   3.22572
 Alpha virt. eigenvalues --    3.23366   3.26210   3.29386   3.33103   3.34004
 Alpha virt. eigenvalues --    3.41710   3.42556   3.43688   3.44867   3.46033
 Alpha virt. eigenvalues --    3.81149   4.20042   4.21735   4.24605   4.30314
 Alpha virt. eigenvalues --    4.33111   4.35324   4.38554   4.39223   4.45788
 Alpha virt. eigenvalues --    4.48423   4.51075   4.53429   4.59865   4.64634
 Alpha virt. eigenvalues --    4.72394   4.83589   4.99555
          Condensed to atoms (all electrons):
               1          2          3          4          5          6
     1  C    5.851916  -0.831127   0.185360   0.072844  -0.433981   0.119510
     2  C   -0.831127   7.304736  -0.016450  -0.262914   0.335751  -0.305623
     3  N    0.185360  -0.016450   7.055275   0.239816   0.233895   0.162079
     4  O    0.072844  -0.262914   0.239816   8.080536   0.029725  -0.054624
     5  C   -0.433981   0.335751   0.233895   0.029725  23.369358  -5.121443
     6  C    0.119510  -0.305623   0.162079  -0.054624  -5.121443   8.786500
     7  C    0.060332  -0.148751   0.070935  -0.039833   0.859637   0.143791
     8  C    0.065830  -0.039313  -0.050096   0.034481  -0.279367  -0.130718
     9  C   -0.148860   0.117164   0.039085  -0.133961  -1.371758   1.070606
    10  C    0.436676  -0.533405  -0.586479   0.239426  -6.099174   1.277126
    11  C   -0.165304   0.064399  -0.215588  -0.212233  -4.942392   0.131964
    12  O    0.004186  -0.012117  -0.001206  -0.001779  -0.016082   0.012778
    13  C    0.031931   0.010529   0.110260  -0.090517   0.356328  -0.128453
    14  C    0.040681  -0.115900  -0.095725   0.101573   0.701458   0.129361
    15  N    0.000186  -0.000049  -0.002074  -0.002315  -0.016619  -0.000922
    16  C   -0.042543   0.090891   0.018911   0.132781  -0.633174  -0.205273
    17  N    0.000060  -0.004122  -0.006247  -0.002267   0.016431   0.005291
    18  H    0.388598  -0.045857  -0.002394  -0.001952  -0.011710   0.015341
    19  H    0.423263  -0.077428   0.009522   0.000959   0.000914   0.000554
    20  H    0.404233  -0.034214  -0.009293  -0.000330  -0.053146   0.018557
    21  H   -0.051357   0.418347  -0.081171   0.012146  -0.033926  -0.000504
    22  H    0.014931  -0.018041   0.003193   0.001048  -0.066567   0.312283
    23  H   -0.000178   0.000150   0.000083  -0.000133   0.038286  -0.013753
    24  H   -0.000216   0.000037  -0.000041  -0.000005   0.014458   0.003733
    25  H   -0.000595   0.001216   0.001469  -0.000164   0.054206  -0.023586
    26  H    0.004958   0.001536   0.038258   0.027813   0.051560  -0.020671
               7          8          9         10         11         12
     1  C    0.060332   0.065830  -0.148860   0.436676  -0.165304   0.004186
     2  C   -0.148751  -0.039313   0.117164  -0.533405   0.064399  -0.012117
     3  N    0.070935  -0.050096   0.039085  -0.586479  -0.215588  -0.001206
     4  O   -0.039833   0.034481  -0.133961   0.239426  -0.212233  -0.001779
     5  C    0.859637  -0.279367  -1.371758  -6.099174  -4.942392  -0.016082
     6  C    0.143791  -0.130718   1.070606   1.277126   0.131964   0.012778
     7  C    5.953404   0.199604   0.482806  -1.677429  -0.025259   0.000878
     8  C    0.199604   7.803706  -2.861618   2.638177  -1.776106   0.006496
     9  C    0.482806  -2.861618  14.004675  -7.329599   2.807266  -0.008795
    10  C   -1.677429   2.638177  -7.329599  21.649966  -5.169154  -0.378103
    11  C   -0.025259  -1.776106   2.807266  -5.169154  16.230704   0.802520
    12  O    0.000878   0.006496  -0.008795  -0.378103   0.802520   7.958296
    13  C   -0.033449   0.130878   0.062598  -0.045678  -1.229539  -0.025312
    14  C    0.005633   0.164029  -0.362715   1.600198  -2.289042  -0.151816
    15  N   -0.001904  -0.006211  -0.033203   0.057996   0.009962   0.000661
    16  C   -0.035690  -0.092842  -0.253328  -1.099995   1.700119   0.098324
    17  N    0.000027   0.001866   0.012706   0.045789  -0.112636  -0.001274
    18  H    0.002348  -0.001253   0.006717  -0.008189   0.007127  -0.000050
    19  H   -0.000282   0.001247  -0.005302   0.008858  -0.015120   0.000146
    20  H    0.000158   0.000146   0.005574   0.015511   0.003565   0.000139
    21  H   -0.003092  -0.000137   0.000763   0.033122   0.019609  -0.000065
    22  H   -0.003663  -0.004109  -0.026284   0.082513   0.015162   0.000021
    23  H    0.283979   0.013692   0.009876  -0.015821  -0.001388   0.000003
    24  H    0.019474   0.294662   0.002062  -0.005253  -0.012055   0.000028
    25  H    0.003349  -0.019832   0.288524  -0.005385   0.002753   0.001524
    26  H    0.004864  -0.010866  -0.032417  -0.107681  -0.037412   0.006152
              13         14         15         16         17         18
     1  C    0.031931   0.040681   0.000186  -0.042543   0.000060   0.388598
     2  C    0.010529  -0.115900  -0.000049   0.090891  -0.004122  -0.045857
     3  N    0.110260  -0.095725  -0.002074   0.018911  -0.006247  -0.002394
     4  O   -0.090517   0.101573  -0.002315   0.132781  -0.002267  -0.001952
     5  C    0.356328   0.701458  -0.016619  -0.633174   0.016431  -0.011710
     6  C   -0.128453   0.129361  -0.000922  -0.205273   0.005291   0.015341
     7  C   -0.033449   0.005633  -0.001904  -0.035690   0.000027   0.002348
     8  C    0.130878   0.164029  -0.006211  -0.092842   0.001866  -0.001253
     9  C    0.062598  -0.362715  -0.033203  -0.253328   0.012706   0.006717
    10  C   -0.045678   1.600198   0.057996  -1.099995   0.045789  -0.008189
    11  C   -1.229539  -2.289042   0.009962   1.700119  -0.112636   0.007127
    12  O   -0.025312  -0.151816   0.000661   0.098324  -0.001274  -0.000050
    13  C    9.467451  -0.777165   0.012155  -2.888185   0.150801  -0.001819
    14  C   -0.777165   8.324327   0.399759  -1.562447   0.071756   0.000025
    15  N    0.012155   0.399759   6.981067   0.016381  -0.003322  -0.000000
    16  C   -2.888185  -1.562447   0.016381  10.374937   0.228641  -0.000699
    17  N    0.150801   0.071756  -0.003322   0.228641   7.031411   0.000007
    18  H   -0.001819   0.000025  -0.000000  -0.000699   0.000007   0.528969
    19  H    0.000381  -0.000037  -0.000000   0.004868  -0.000129  -0.029431
    20  H    0.001101   0.000543  -0.000001   0.000496  -0.000030  -0.022004
    21  H   -0.004366   0.000867  -0.000001   0.008363  -0.000291  -0.001472
    22  H    0.001218  -0.001144   0.000015   0.000638  -0.000002  -0.000074
    23  H    0.000074   0.000102  -0.000001   0.000003   0.000000   0.000000
    24  H   -0.001770   0.001393  -0.000062  -0.000142  -0.000000   0.000000
    25  H    0.004480  -0.001199  -0.000270   0.002217   0.000007  -0.000000
    26  H    0.368813  -0.095752  -0.004481   0.108113  -0.008079  -0.000006
              19         20         21         22         23         24
     1  C    0.423263   0.404233  -0.051357   0.014931  -0.000178  -0.000216
     2  C   -0.077428  -0.034214   0.418347  -0.018041   0.000150   0.000037
     3  N    0.009522  -0.009293  -0.081171   0.003193   0.000083  -0.000041
     4  O    0.000959  -0.000330   0.012146   0.001048  -0.000133  -0.000005
     5  C    0.000914  -0.053146  -0.033926  -0.066567   0.038286   0.014458
     6  C    0.000554   0.018557  -0.000504   0.312283  -0.013753   0.003733
     7  C   -0.000282   0.000158  -0.003092  -0.003663   0.283979   0.019474
     8  C    0.001247   0.000146  -0.000137  -0.004109   0.013692   0.294662
     9  C   -0.005302   0.005574   0.000763  -0.026284   0.009876   0.002062
    10  C    0.008858   0.015511   0.033122   0.082513  -0.015821  -0.005253
    11  C   -0.015120   0.003565   0.019609   0.015162  -0.001388  -0.012055
    12  O    0.000146   0.000139  -0.000065   0.000021   0.000003   0.000028
    13  C    0.000381   0.001101  -0.004366   0.001218   0.000074  -0.001770
    14  C   -0.000037   0.000543   0.000867  -0.001144   0.000102   0.001393
    15  N   -0.000000  -0.000001  -0.000001   0.000015  -0.000001  -0.000062
    16  C    0.004868   0.000496   0.008363   0.000638   0.000003  -0.000142
    17  N   -0.000129  -0.000030  -0.000291  -0.000002   0.000000  -0.000000
    18  H   -0.029431  -0.022004  -0.001472  -0.000074   0.000000   0.000000
    19  H    0.514454  -0.021848  -0.001501   0.000001  -0.000000  -0.000000
    20  H   -0.021848   0.508061   0.003400  -0.000085  -0.000007   0.000001
    21  H   -0.001501   0.003400   0.506797  -0.000058  -0.000000   0.000000
    22  H    0.000001  -0.000085  -0.000058   0.542424  -0.004890  -0.000145
    23  H   -0.000000  -0.000007  -0.000000  -0.004890   0.548545  -0.004972
    24  H   -0.000000   0.000001   0.000000  -0.000145  -0.004972   0.547081
    25  H    0.000000  -0.000006  -0.000000   0.000013  -0.000155  -0.004829
    26  H    0.000033  -0.000002  -0.000058   0.000005   0.000000  -0.000000
              25         26
     1  C   -0.000595   0.004958
     2  C    0.001216   0.001536
     3  N    0.001469   0.038258
     4  O   -0.000164   0.027813
     5  C    0.054206   0.051560
     6  C   -0.023586  -0.020671
     7  C    0.003349   0.004864
     8  C   -0.019832  -0.010866
     9  C    0.288524  -0.032417
    10  C   -0.005385  -0.107681
    11  C    0.002753  -0.037412
    12  O    0.001524   0.006152
    13  C    0.004480   0.368813
    14  C   -0.001199  -0.095752
    15  N   -0.000270  -0.004481
    16  C    0.002217   0.108113
    17  N    0.000007  -0.008079
    18  H   -0.000000  -0.000006
    19  H    0.000000   0.000033
    20  H   -0.000006  -0.000002
    21  H   -0.000000  -0.000058
    22  H    0.000013   0.000005
    23  H   -0.000155   0.000000
    24  H   -0.004829  -0.000000
    25  H    0.533228   0.000003
    26  H    0.000003   0.427584
 Mulliken charges:
               1
     1  C   -0.431334
     2  C    0.100557
     3  N   -0.101375
     4  O   -0.170121
     5  C   -0.982668
     6  C   -0.183903
     7  C   -0.121870
     8  C   -0.082346
     9  C   -0.342585
    10  C    0.975986
    11  C    0.408078
    12  O   -0.295553
    13  C    0.517254
    14  C   -0.088765
    15  N   -0.406746
    16  C    0.028635
    17  N   -0.426395
    18  H    0.177778
    19  H    0.185879
    20  H    0.179481
    21  H    0.174585
    22  H    0.151595
    23  H    0.146504
    24  H    0.146561
    25  H    0.163034
    26  H    0.277734
 Sum of Mulliken charges =  -0.00000
 Mulliken charges with hydrogens summed into heavy atoms:
               1
     1  C    0.111804
     2  C    0.275141
     3  N   -0.101375
     4  O   -0.170121
     5  C   -0.982668
     6  C   -0.032308
     7  C    0.024634
     8  C    0.064215
     9  C   -0.179551
    10  C    0.975986
    11  C    0.408078
    12  O   -0.295553
    13  C    0.794988
    14  C   -0.088765
    15  N   -0.406746
    16  C    0.028635
    17  N   -0.426395
 Electronic spatial extent (au):  <R**2>=           3584.6807
 Charge=              0.0000 electrons
 Dipole moment (field-independent basis, Debye):
    X=              8.9899    Y=              1.8095    Z=              1.8824  Tot=              9.3614
 Quadrupole moment (field-independent basis, Debye-Ang):
   XX=           -106.6495   YY=            -92.9401   ZZ=           -111.6240
   XY=             -1.1726   XZ=              2.5674   YZ=             -2.6102
 Traceless Quadrupole moment (field-independent basis, Debye-Ang):
   XX=             -2.9116   YY=             10.7978   ZZ=             -7.8861
   XY=             -1.1726   XZ=              2.5674   YZ=             -2.6102
 Octapole moment (field-independent basis, Debye-Ang**2):
  XXX=            137.0878  YYY=             50.2448  ZZZ=              9.3262  XYY=             57.6250
  XXY=            -16.9510  XXZ=            -21.0083  XZZ=             15.7473  YZZ=              4.5076
  YYZ=             31.8324  XYZ=             14.4197
 Hexadecapole moment (field-independent basis, Debye-Ang**3):
 XXXX=          -2918.7266 YYYY=          -1491.6694 ZZZZ=           -761.5228 XXXY=             38.3847
 XXXZ=              0.6388 YYYX=            -50.2568 YYYZ=            -71.3338 ZZZX=              0.6694
 ZZZY=              4.8937 XXYY=           -747.4562 XXZZ=           -589.5256 YYZZ=           -395.9148
 XXYZ=            -58.7459 YYXZ=            -12.7903 ZZXY=            -11.6048
 N-N= 1.117803799349D+03 E-N=-4.041447069253D+03  KE= 7.700171069138D+02
 Unable to Open any file for archive entry.
 1\1\GINC-N2\SP\RB3LYP TD-FC\6-31+G(d,p)\C12H9N3O2\HPCMGAC13\27-Aug-202
 5\0\\# td=(50-50,nstates=3) b3lyp/6-31+g(d,p) geom=connectivity\\Title
  Card Required\\0,1\C,0,-1.546171,2.73427,-1.118786\C,0,-0.839852,2.54
 6887,0.181479\N,0,-0.739597,1.425865,0.843596\O,0,-0.10476,1.302933,1.
 975064\C,0,-1.323254,0.178704,0.359018\C,0,-2.632459,-0.128423,0.71873
 \C,0,-3.20214,-1.323145,0.27476\C,0,-2.468124,-2.189779,-0.539749\C,0,
 -1.160707,-1.868759,-0.902305\C,0,-0.560161,-0.689192,-0.436127\C,0,0.
 855505,-0.409721,-0.851619\O,0,1.209562,-0.471446,-2.006437\C,0,1.8985
 12,-0.145344,0.295727\C,0,2.24318,-1.444448,0.893681\N,0,2.472249,-2.4
 8407,1.355869\C,0,3.082627,0.563741,-0.201491\N,0,3.995774,1.171829,-0
 .577444\H,0,-2.35533,3.466573,-1.004592\H,0,-0.852007,3.143208,-1.8629
 42\H,0,-1.969473,1.80931,-1.512136\H,0,-0.35149,3.383577,0.672531\H,0,
 -3.191094,0.564359,1.339459\H,0,-4.219611,-1.571027,0.559978\H,0,-2.91
 2023,-3.115389,-0.891606\H,0,-0.584162,-2.533264,-1.53723\H,0,1.416069
 ,0.456658,1.093478\\Version=ES64L-G16RevC.02\State=1-A\HF=-777.3049492
 \RMSD=8.711e-09\PG=C01 [X(C12H9N3O2)]\\@
 The archive entry for this job was punched.


 THERE IS MORE TO LIFE THAN INCREASING ITS SPEED.

                                       -- GANDHI
 Job cpu time:       0 days  0 hours 42 minutes 12.0 seconds.
 Elapsed time:       0 days  0 hours  2 minutes 43.4 seconds.
 File lengths (MBytes):  RWF=    802 Int=      0 D2E=      0 Chk=     36 Scr=      2
 Normal termination of Gaussian 16 at Wed Aug 27 08:02:11 2025.
