 Entering Gaussian System, Link 0=g16
 Input=M587e.gjf
 Output=M587e.log
 Initial command:
 /hpc/softwares/Gaussian/g16/l1.exe "/hpc/home/hpcmgac13/pbs.13537.admin1.x8z/Gau-549527.inp" -scrdir="/hpc/home/hpcmgac13/pbs.13537.admin1.x8z/"
 Default linda workers: n1
 Default is to use  16 SMP processors on each worker.
 Entering Link 1 = /hpc/softwares/Gaussian/g16/l1.exe PID=    549528.
  
 Copyright (c) 1988-2021, Gaussian, Inc.  All Rights Reserved.
  
 This is part of the Gaussian(R) 16 program.  It is based on
 the Gaussian(R) 09 system (copyright 2009, Gaussian, Inc.),
 the Gaussian(R) 03 system (copyright 2003, Gaussian, Inc.),
 the Gaussian(R) 98 system (copyright 1998, Gaussian, Inc.),
 the Gaussian(R) 94 system (copyright 1995, Gaussian, Inc.),
 the Gaussian 92(TM) system (copyright 1992, Gaussian, Inc.),
 the Gaussian 90(TM) system (copyright 1990, Gaussian, Inc.),
 the Gaussian 88(TM) system (copyright 1988, Gaussian, Inc.),
 the Gaussian 86(TM) system (copyright 1986, Carnegie Mellon
 University), and the Gaussian 82(TM) system (copyright 1983,
 Carnegie Mellon University). Gaussian is a federally registered
 trademark of Gaussian, Inc.
  
 This software contains proprietary and confidential information,
 including trade secrets, belonging to Gaussian, Inc.
  
 This software is provided under written license and may be
 used, copied, transmitted, or stored only in accord with that
 written license.
  
 The following legend is applicable only to US Government
 contracts under FAR:
  
                    RESTRICTED RIGHTS LEGEND
  
 Use, reproduction and disclosure by the US Government is
 subject to restrictions as set forth in subparagraphs (a)
 and (c) of the Commercial Computer Software - Restricted
 Rights clause in FAR 52.227-19.
  
 Gaussian, Inc.
 340 Quinnipiac St., Bldg. 40, Wallingford CT 06492
  
  
 ---------------------------------------------------------------
 Warning -- This program may not be used in any manner that
 competes with the business of Gaussian, Inc. or will provide
 assistance to any competitor of Gaussian, Inc.  The licensee
 of this program is prohibited from giving any competitor of
 Gaussian, Inc. access to this program.  By using this program,
 the user acknowledges that Gaussian, Inc. is engaged in the
 business of creating and licensing software in the field of
 computational chemistry and represents and warrants to the
 licensee that it is not a competitor of Gaussian, Inc. and that
 it will not use this program in any manner prohibited above.
 ---------------------------------------------------------------
  

 Cite this work as:
 Gaussian 16, Revision C.02,
 M. J. Frisch, G. W. Trucks, H. B. Schlegel, G. E. Scuseria, 
 M. A. Robb, J. R. Cheeseman, G. Scalmani, V. Barone, 
 G. A. Petersson, H. Nakatsuji, X. Li, M. Caricato, A. V. Marenich, 
 J. Bloino, B. G. Janesko, R. Gomperts, B. Mennucci, H. P. Hratchian, 
 J. V. Ortiz, A. F. Izmaylov, J. L. Sonnenberg, D. Williams-Young, 
 F. Ding, F. Lipparini, F. Egidi, J. Goings, B. Peng, A. Petrone, 
 T. Henderson, D. Ranasinghe, V. G. Zakrzewski, J. Gao, N. Rega, 
 G. Zheng, W. Liang, M. Hada, M. Ehara, K. Toyota, R. Fukuda, 
 J. Hasegawa, M. Ishida, T. Nakajima, Y. Honda, O. Kitao, H. Nakai, 
 T. Vreven, K. Throssell, J. A. Montgomery, Jr., J. E. Peralta, 
 F. Ogliaro, M. J. Bearpark, J. J. Heyd, E. N. Brothers, K. N. Kudin, 
 V. N. Staroverov, T. A. Keith, R. Kobayashi, J. Normand, 
 K. Raghavachari, A. P. Rendell, J. C. Burant, S. S. Iyengar, 
 J. Tomasi, M. Cossi, J. M. Millam, M. Klene, C. Adamo, R. Cammi, 
 J. W. Ochterski, R. L. Martin, K. Morokuma, O. Farkas, 
 J. B. Foresman, and D. J. Fox, Gaussian, Inc., Wallingford CT, 2019.
 
 ******************************************
 Gaussian 16:  ES64L-G16RevC.02  7-Dec-2021
                27-Aug-2025 
 ******************************************
 SetLPE:    new flags="-opt 'Tsnet.Node.lindarsharg: ssh'  -nodelist 'n1' -env GAUSS_MDEF=2147483648 -env GAUSS_EXEDIR="/hpc/softwares/Gaussian/g16/bsd:/hpc/softwares/Gaussian/g16""
 Will use up to    1 processors via Linda.
 ----------------------------------------------------------
 # td=(50-50,nstates=3) b3lyp/6-31+g(d,p) geom=connectivity
 ----------------------------------------------------------
 1/38=1,57=2,172=1/1;
 2/12=2,17=6,18=5,40=1/2;
 3/5=1,6=6,7=111,11=9,25=1,30=1,74=-5/1,2,3,8;
 4//1;
 5/5=2,38=5/2;
 8/6=1,10=2,108=3/1;
 9/41=3,42=1,48=2,70=2/14;
 6/7=2,8=2,9=2,10=2/1;
 99/5=1,9=1/99;
 -------------------
 Title Card Required
 -------------------
 Symbolic Z-matrix:
 Charge =  0 Multiplicity = 1
 C                    -2.14702  -1.00784   0.00012 
 C                    -0.65622  -1.14345   0.00005 
 C                     0.21542  -0.1049   -0.00002 
 C                     1.63614  -0.32023  -0.00001 
 N                     2.78493  -0.50122   0. 
 C                    -0.24262   1.25739   0.00006 
 N                    -0.64152   2.34995  -0.00026 
 H                    -2.63074  -1.98574  -0.00036 
 H                    -2.49058  -0.4502    0.87956 
 H                    -2.49064  -0.44927  -0.8787 
 H                    -0.22601  -2.14178   0.00011 
 
                          Input orientation:                          
 ---------------------------------------------------------------------
 Center     Atomic      Atomic             Coordinates (Angstroms)
 Number     Number       Type             X           Y           Z
 ---------------------------------------------------------------------
      1          6           0       -2.147023   -1.007840    0.000121
      2          6           0       -0.656223   -1.143445    0.000045
      3          6           0        0.215419   -0.104900   -0.000017
      4          6           0        1.636140   -0.320226   -0.000014
      5          7           0        2.784926   -0.501222    0.000004
      6          6           0       -0.242623    1.257392    0.000063
      7          7           0       -0.641522    2.349953   -0.000261
      8          1           0       -2.630741   -1.985739   -0.000359
      9          1           0       -2.490578   -0.450204    0.879564
     10          1           0       -2.490638   -0.449266   -0.878698
     11          1           0       -0.226014   -2.141783    0.000110
 ---------------------------------------------------------------------
                    Distance matrix (angstroms):
                    1          2          3          4          5
     1  C    0.000000
     2  C    1.496955   0.000000
     3  C    2.529117   1.355852   0.000000
     4  C    3.845144   2.435697   1.436946   0.000000
     5  N    4.957901   3.500565   2.599892   1.162957   0.000000
     6  C    2.959394   2.436203   1.437234   2.453289   3.501254
     7  N    3.679852   3.493429   2.600125   3.509644   4.457549
     8  H    1.090995   2.146667   3.411478   4.580416   5.615447
     9  H    1.096544   2.149185   2.866237   4.221416   5.348567
    10  H    1.096540   2.149221   2.865905   4.221260   5.348494
    11  H    2.230718   1.087087   2.084168   2.604935   3.428877
                    6          7          8          9         10
     6  C    0.000000
     7  N    1.163104   0.000000
     8  H    4.027531   4.770243   0.000000
     9  H    2.956807   3.469003   1.775325   0.000000
    10  H    2.956091   3.467926   1.775347   1.758262   0.000000
    11  H    3.399216   4.510913   2.409785   2.960258   2.960648
                   11
    11  H    0.000000
 Stoichiometry    C5H4N2
 Framework group  C1[X(C5H4N2)]
 Deg. of freedom    27
 Full point group                 C1      NOp   1
 Largest Abelian subgroup         C1      NOp   1
 Largest concise Abelian subgroup C1      NOp   1
                         Standard orientation:                         
 ---------------------------------------------------------------------
 Center     Atomic      Atomic             Coordinates (Angstroms)
 Number     Number       Type             X           Y           Z
 ---------------------------------------------------------------------
      1          6           0       -2.147023   -1.007840    0.000121
      2          6           0       -0.656223   -1.143445    0.000045
      3          6           0        0.215419   -0.104900   -0.000017
      4          6           0        1.636140   -0.320227   -0.000014
      5          7           0        2.784926   -0.501223    0.000004
      6          6           0       -0.242623    1.257392    0.000063
      7          7           0       -0.641521    2.349953   -0.000261
      8          1           0       -2.630741   -1.985738   -0.000359
      9          1           0       -2.490578   -0.450204    0.879564
     10          1           0       -2.490638   -0.449266   -0.878698
     11          1           0       -0.226015   -2.141783    0.000110
 ---------------------------------------------------------------------
 Rotational constants (GHZ):           3.6467306           2.2026990           1.3849616
 Standard basis: 6-31+G(d,p) (6D, 7F)
 There are   153 symmetry adapted cartesian basis functions of A   symmetry.
 There are   153 symmetry adapted basis functions of A   symmetry.
   153 basis functions,   252 primitive gaussians,   153 cartesian basis functions
    24 alpha electrons       24 beta electrons
       nuclear repulsion energy       230.4353898105 Hartrees.
 NAtoms=   11 NActive=   11 NUniq=   11 SFac= 1.00D+00 NAtFMM=   60 NAOKFM=F Big=F
 Integral buffers will be    131072 words long.
 Regular integral format.
 Two-electron integral symmetry is turned on.
 One-electron integrals computed using PRISM.
 NBasis=   153 RedAO= T EigKep=  1.18D-05  NBF=   153
 NBsUse=   153 1.00D-06 EigRej= -1.00D+00 NBFU=   153
 ExpMin= 4.38D-02 ExpMax= 4.17D+03 ExpMxC= 6.27D+02 IAcc=3 IRadAn=         5 AccDes= 0.00D+00
 Harris functional with IExCor=  402 and IRadAn=       5 diagonalized for initial guess.
 HarFok:  IExCor=  402 AccDes= 0.00D+00 IRadAn=         5 IDoV= 1 UseB2=F ITyADJ=14
 ICtDFT=  3500011 ScaDFX=  1.000000  1.000000  1.000000  1.000000
 FoFCou: FMM=F IPFlag=           0 FMFlag=      100000 FMFlg1=           0
         NFxFlg=           0 DoJE=T BraDBF=F KetDBF=T FulRan=T
         wScrn=  0.000000 ICntrl=       500 IOpCl=  0 I1Cent=   200000004 NGrid=           0
         NMat0=    1 NMatS0=      1 NMatT0=    0 NMatD0=    1 NMtDS0=    0 NMtDT0=    0
 Petite list used in FoFCou.
 Keep R1 ints in memory in canonical form, NReq=85090399.
 Requested convergence on RMS density matrix=1.00D-08 within 128 cycles.
 Requested convergence on MAX density matrix=1.00D-06.
 Requested convergence on             energy=1.00D-06.
 No special actions if energy rises.
 SCF Done:  E(RB3LYP) =  -302.403144999     A.U. after   14 cycles
            NFock= 14  Conv=0.44D-08     -V/T= 2.0098
 DoSCS=F DFT=T ScalE2(SS,OS)=  1.000000  1.000000
 ExpMin= 4.38D-02 ExpMax= 4.17D+03 ExpMxC= 6.27D+02 IAcc=3 IRadAn=         5 AccDes= 0.00D+00
 HarFok:  IExCor=  205 AccDes= 0.00D+00 IRadAn=         5 IDoV=-2 UseB2=F ITyADJ=14
 ICtDFT= 12500011 ScaDFX=  1.000000  1.000000  1.000000  1.000000
 Range of M.O.s used for correlation:     8   153
 NBasis=   153 NAE=    24 NBE=    24 NFC=     7 NFV=     0
 NROrb=    146 NOA=    17 NOB=    17 NVA=   129 NVB=   129

 **** Warning!!: The largest alpha MO coefficient is  0.92770031D+02

 Keep R1, R2, and R3 ints in memory in canonical form, NReq=262583425.
 Orbital symmetries:
       Occupied  (A) (A) (A) (A) (A) (A) (A) (A) (A) (A) (A) (A)
                 (A) (A) (A) (A) (A) (A) (A) (A) (A) (A) (A) (A)
       Virtual   (A) (A) (A) (A) (A) (A) (A) (A) (A) (A) (A) (A)
                 (A) (A) (A) (A) (A) (A) (A) (A) (A) (A) (A) (A)
                 (A) (A) (A) (A) (A) (A) (A) (A) (A) (A) (A) (A)
                 (A) (A) (A) (A) (A) (A) (A) (A) (A) (A) (A) (A)
                 (A) (A) (A) (A) (A) (A) (A) (A) (A) (A) (A) (A)
                 (A) (A) (A) (A) (A) (A) (A) (A) (A) (A) (A) (A)
                 (A) (A) (A) (A) (A) (A) (A) (A) (A) (A) (A) (A)
                 (A) (A) (A) (A) (A) (A) (A) (A) (A) (A) (A) (A)
                 (A) (A) (A) (A) (A) (A) (A) (A) (A) (A) (A) (A)
                 (A) (A) (A) (A) (A) (A) (A) (A) (A) (A) (A) (A)
                 (A) (A) (A) (A) (A) (A) (A) (A) (A)
    24 initial guesses have been made.
 Convergence on wavefunction:    0.001000000000000
 Iteration     1 Dimension    24 NMult     0 NNew     24
 CISAX will form    24 AO SS matrices at one time.
 New state      1 was old state      2
 New state      2 was old state      6
 New state      3 was old state      4
 New state      4 was old state      3
 New state      5 was old state      8
 New state      6 was old state     10
 New state      8 was old state      9
 New state      9 was old state      1
 New state     10 was old state     12
 New state     11 was old state     16
 New state     12 was old state      5
 Vector   5 SDiff=4.80D+00 TDiff=5.80D+00 assumed to be singlet.
 Vector   6 SDiff=5.09D+00 TDiff=6.02D+00 assumed to be singlet.
 Vector  11 SDiff=4.98D+00 TDiff=5.55D+00 assumed to be singlet.
 Vector  12 SDiff=5.08D+00 TDiff=5.82D+00 assumed to be singlet.
 Iteration     2 Dimension    36 NMult    24 NNew     12
 New state      5 was old state      7
 New state      6 was old state      8
 Iteration     3 Dimension    48 NMult    36 NNew     12
 Iteration     4 Dimension    60 NMult    48 NNew     12
 No map to state      4
 New state      5 was old state      4
 New state      6 was old state      5
 Iteration     5 Dimension    72 NMult    60 NNew     12
 New state      3 was old state      4
 New state      4 was old state      3
 Iteration     6 Dimension    82 NMult    72 NNew     10
 Iteration     7 Dimension    88 NMult    82 NNew      6
 Iteration     8 Dimension    92 NMult    88 NNew      4
 Iteration     9 Dimension    94 NMult    92 NNew      2
 ***********************************************************************
 Excited states from <AA,BB:AA,BB> singles matrix:
 ***********************************************************************
 
 Ground to excited state transition densities written to RWF  633
 Ground to excited state transition electric dipole moments (Au):
       state          X           Y           Z        Dip. S.      Osc.
         1         0.0000     -0.0000     -0.0000      0.0000      0.0000
         2         0.0000      0.0000      0.0000      0.0000      0.0000
         3         1.1766      1.0015     -0.0002      2.3875      0.3141
         4         0.0000      0.0000      0.0000      0.0000      0.0000
         5        -0.0001     -0.0001     -0.0125      0.0002      0.0000
         6        -0.0002     -0.0001      0.0605      0.0037      0.0005
 Ground to excited state transition velocity dipole moments (Au):
       state          X           Y           Z        Dip. S.      Osc.
         1         0.0000      0.0000      0.0000      0.0000      0.0000
         2        -0.0000      0.0000     -0.0000      0.0000      0.0000
         3        -0.2308     -0.1933      0.0000      0.0906      0.3062
         4        -0.0000     -0.0000     -0.0000      0.0000      0.0000
         5         0.0000      0.0000      0.0006      0.0000      0.0000
         6         0.0000      0.0000     -0.0040      0.0000      0.0000
 Ground to excited state transition magnetic dipole moments (Au):
       state          X           Y           Z
         1         0.0000     -0.0000     -0.0000
         2         0.0000     -0.0000     -0.0000
         3        -0.0001     -0.0001     -0.3398
         4         0.0000      0.0000     -0.0000
         5        -0.0298     -0.0569      0.0001
         6         0.3926     -0.3415      0.0001
 Ground to excited state transition velocity quadrupole moments (Au):
       state          XX          YY          ZZ          XY          XZ          YZ
         1         0.0000      0.0000      0.0000     -0.0000      0.0000      0.0000
         2         0.0000     -0.0000      0.0000      0.0000      0.0000      0.0000
         3        -0.0804     -0.1158      0.0676      0.4712      0.0001     -0.0000
         4        -0.0000     -0.0000      0.0000      0.0000     -0.0000      0.0000
         5         0.0001      0.0000     -0.0000     -0.0001     -0.0182      0.0200
         6         0.0002     -0.0001     -0.0000     -0.0001     -0.0332     -0.0127
 <0|del|b> * <b|rxdel|0> + <0|del|b> * <b|delr+rdel|0>
 Rotatory Strengths (R) in cgs (10**-40 erg-esu-cm/Gauss)
       state          XX          YY          ZZ    R(velocity)    E-M Angle
         1        -0.0000      0.0000      0.0000     -0.0000       90.00
         2        -0.0000      0.0000      0.0000     -0.0000       90.00
         3         0.0589      0.0318      0.0607      0.0505       90.00
         4        -0.0000     -0.0000      0.0000     -0.0000       90.00
         5        -0.0023     -0.0001     -0.0058     -0.0027       90.00
         6        -0.0112      0.0283      0.0180      0.0117       90.00
 1/2[<0|r|b>*<b|rxdel|0> + (<0|rxdel|b>*<b|r|0>)*]
 Rotatory Strengths (R) in cgs (10**-40 erg-esu-cm/Gauss)
       state          XX          YY          ZZ     R(length)
         1        -0.0000     -0.0000     -0.0000     -0.0000
         2        -0.0000      0.0000      0.0000      0.0000
         3         0.1201      0.0606     -0.0399      0.0469
         4        -0.0000     -0.0000      0.0000     -0.0000
         5        -0.0029     -0.0055      0.0006     -0.0026
         6         0.0564     -0.0286     -0.0044      0.0078
  1/2[<0|del|b>*<b|r|0> + (<0|r|b>*<b|del|0>)*] (Au)
       state          X           Y           Z        Dip. S.   Osc.(frdel)
         1         0.0000     -0.0000     -0.0000      0.0000      0.0000
         2        -0.0000      0.0000     -0.0000      0.0000      0.0000
         3        -0.2716     -0.1936     -0.0000      0.4652      0.3101
         4        -0.0000     -0.0000     -0.0000      0.0000      0.0000
         5        -0.0000     -0.0000     -0.0000      0.0000      0.0000
         6        -0.0000     -0.0000     -0.0002      0.0002      0.0002

 Excitation energies and oscillator strengths:
 
 Excited State   1:      Triplet-A      2.8653 eV  432.71 nm  f=0.0000  <S**2>=2.000
      24 -> 25         0.70413
      24 <- 25         0.13003
 This state for optimization and/or second-order correction.
 Total Energy, E(TD-HF/TD-DFT) =  -302.297847942    
 Copying the excited state density for this state as the 1-particle RhoCI density.
 
 Excited State   2:      Triplet-A      5.1634 eV  240.12 nm  f=0.0000  <S**2>=2.000
      18 -> 30         0.13847
      22 -> 25         0.57600
      23 -> 26        -0.17374
      24 -> 30        -0.28939
 
 Excited State   3:      Singlet-A      5.3703 eV  230.87 nm  f=0.3141  <S**2>=0.000
      24 -> 25         0.69252
 
 Excited State   4:      Triplet-A      5.4612 eV  227.03 nm  f=0.0000  <S**2>=2.000
      21 -> 30         0.13220
      22 -> 26        -0.11288
      23 -> 25         0.66351
 
 Excited State   5:      Singlet-A      5.7681 eV  214.95 nm  f=0.0000  <S**2>=0.000
      23 -> 25         0.69935
 
 Excited State   6:      Singlet-A      6.0076 eV  206.38 nm  f=0.0005  <S**2>=0.000
      21 -> 25         0.63759
      24 -> 26        -0.26976
 SavETr:  write IOETrn=   770 NScale= 10 NData=  16 NLR=1 NState=    6 LETran=     118.

 **********************************************************************

            Population analysis using the SCF Density.

 **********************************************************************

 Orbital symmetries:
       Occupied  (A) (A) (A) (A) (A) (A) (A) (A) (A) (A) (A) (A)
                 (A) (A) (A) (A) (A) (A) (A) (A) (A) (A) (A) (A)
       Virtual   (A) (A) (A) (A) (A) (A) (A) (A) (A) (A) (A) (A)
                 (A) (A) (A) (A) (A) (A) (A) (A) (A) (A) (A) (A)
                 (A) (A) (A) (A) (A) (A) (A) (A) (A) (A) (A) (A)
                 (A) (A) (A) (A) (A) (A) (A) (A) (A) (A) (A) (A)
                 (A) (A) (A) (A) (A) (A) (A) (A) (A) (A) (A) (A)
                 (A) (A) (A) (A) (A) (A) (A) (A) (A) (A) (A) (A)
                 (A) (A) (A) (A) (A) (A) (A) (A) (A) (A) (A) (A)
                 (A) (A) (A) (A) (A) (A) (A) (A) (A) (A) (A) (A)
                 (A) (A) (A) (A) (A) (A) (A) (A) (A) (A) (A) (A)
                 (A) (A) (A) (A) (A) (A) (A) (A) (A) (A) (A) (A)
                 (A) (A) (A) (A) (A) (A) (A) (A) (A)
 The electronic state is 1-A.
 Alpha  occ. eigenvalues --  -14.37640 -14.37215 -10.29928 -10.28010 -10.26791
 Alpha  occ. eigenvalues --  -10.26515 -10.23477  -0.94853  -0.93418  -0.87651
 Alpha  occ. eigenvalues --   -0.78014  -0.67129  -0.62022  -0.53109  -0.47090
 Alpha  occ. eigenvalues --   -0.45715  -0.42459  -0.42296  -0.39859  -0.39128
 Alpha  occ. eigenvalues --   -0.37375  -0.37152  -0.36162  -0.30364
 Alpha virt. eigenvalues --   -0.10585  -0.03016  -0.01356   0.00897   0.01126
 Alpha virt. eigenvalues --    0.01234   0.02905   0.02942   0.04776   0.05527
 Alpha virt. eigenvalues --    0.06049   0.06350   0.07916   0.08236   0.09439
 Alpha virt. eigenvalues --    0.10221   0.11116   0.12075   0.13103   0.13910
 Alpha virt. eigenvalues --    0.14427   0.15582   0.17697   0.18548   0.19114
 Alpha virt. eigenvalues --    0.19306   0.19915   0.22200   0.22781   0.23308
 Alpha virt. eigenvalues --    0.24155   0.24315   0.25494   0.25912   0.26518
 Alpha virt. eigenvalues --    0.27961   0.28991   0.29716   0.31936   0.36086
 Alpha virt. eigenvalues --    0.40051   0.57339   0.61321   0.63890   0.65861
 Alpha virt. eigenvalues --    0.66092   0.67791   0.68329   0.69276   0.70267
 Alpha virt. eigenvalues --    0.73167   0.76120   0.77422   0.80072   0.85697
 Alpha virt. eigenvalues --    0.87583   0.88229   0.89433   0.91214   0.96233
 Alpha virt. eigenvalues --    0.98253   0.99196   0.99629   1.00582   1.03654
 Alpha virt. eigenvalues --    1.06223   1.07928   1.09066   1.10858   1.17802
 Alpha virt. eigenvalues --    1.19079   1.24690   1.27766   1.32280   1.34363
 Alpha virt. eigenvalues --    1.42165   1.49375   1.49799   1.49989   1.50656
 Alpha virt. eigenvalues --    1.60647   1.67200   1.70427   1.71319   1.75386
 Alpha virt. eigenvalues --    1.77903   1.81495   1.85475   1.90150   1.91534
 Alpha virt. eigenvalues --    1.94679   1.98656   1.99105   1.99734   2.00377
 Alpha virt. eigenvalues --    2.05905   2.10576   2.11542   2.17693   2.20344
 Alpha virt. eigenvalues --    2.22653   2.39586   2.41918   2.42593   2.46066
 Alpha virt. eigenvalues --    2.53930   2.63941   2.67847   2.73229   2.77830
 Alpha virt. eigenvalues --    2.85356   2.85414   2.88119   2.94410   3.03512
 Alpha virt. eigenvalues --    3.09384   3.18055   3.23764   3.33770   3.38252
 Alpha virt. eigenvalues --    3.38273   3.53283   4.16479   4.17655   4.23662
 Alpha virt. eigenvalues --    4.31051   4.47766   4.55099   4.80453
          Condensed to atoms (all electrons):
               1          2          3          4          5          6
     1  C    5.621553  -0.237365   0.504625  -0.282723   0.010919  -0.406785
     2  C   -0.237365   6.629905  -0.279045   0.474192  -0.055610  -0.879624
     3  C    0.504625  -0.279045   7.531695  -2.019749   0.218721  -1.067421
     4  C   -0.282723   0.474192  -2.019749   8.904765  -0.012196  -0.973112
     5  N    0.010919  -0.055610   0.218721  -0.012196   7.249028   0.070470
     6  C   -0.406785  -0.879624  -1.067421  -0.973112   0.070470   9.591350
     7  N    0.030418   0.034512   0.133842   0.070131  -0.001993  -0.052108
     8  H    0.428664  -0.087023   0.030519  -0.011274   0.000027   0.003186
     9  H    0.435024  -0.075261  -0.002626  -0.007693   0.000072   0.000271
    10  H    0.435070  -0.075423  -0.002489  -0.007671   0.000072   0.000238
    11  H   -0.029882   0.255819   0.053014  -0.029826  -0.000658   0.063738
               7          8          9         10         11
     1  C    0.030418   0.428664   0.435024   0.435070  -0.029882
     2  C    0.034512  -0.087023  -0.075261  -0.075423   0.255819
     3  C    0.133842   0.030519  -0.002626  -0.002489   0.053014
     4  C    0.070131  -0.011274  -0.007693  -0.007671  -0.029826
     5  N   -0.001993   0.000027   0.000072   0.000072  -0.000658
     6  C   -0.052108   0.003186   0.000271   0.000238   0.063738
     7  N    7.268506   0.000047   0.001215   0.001220  -0.000458
     8  H    0.000047   0.519808  -0.024538  -0.024536  -0.006034
     9  H    0.001215  -0.024538   0.497273  -0.023699   0.002565
    10  H    0.001220  -0.024536  -0.023699   0.497257   0.002567
    11  H   -0.000458  -0.006034   0.002565   0.002567   0.520183
 Mulliken charges:
               1
     1  C   -0.509518
     2  C    0.294921
     3  C    0.898915
     4  C   -0.104844
     5  N   -0.478852
     6  C   -0.350203
     7  N   -0.485334
     8  H    0.171152
     9  H    0.197398
    10  H    0.197394
    11  H    0.168970
 Sum of Mulliken charges =  -0.00000
 Mulliken charges with hydrogens summed into heavy atoms:
               1
     1  C    0.056426
     2  C    0.463891
     3  C    0.898915
     4  C   -0.104844
     5  N   -0.478852
     6  C   -0.350203
     7  N   -0.485334
 Electronic spatial extent (au):  <R**2>=            808.9776
 Charge=             -0.0000 electrons
 Dipole moment (field-independent basis, Debye):
    X=             -3.8560    Y=             -3.6329    Z=              0.0007  Tot=              5.2978
 Quadrupole moment (field-independent basis, Debye-Ang):
   XX=            -48.3865   YY=            -45.7699   ZZ=            -40.5726
   XY=              6.4361   XZ=             -0.0007   YZ=              0.0007
 Traceless Quadrupole moment (field-independent basis, Debye-Ang):
   XX=             -3.4768   YY=             -0.8603   ZZ=              4.3371
   XY=              6.4361   XZ=             -0.0007   YZ=              0.0007
 Octapole moment (field-independent basis, Debye-Ang**2):
  XXX=            -48.9689  YYY=            -33.3008  ZZZ=              0.0015  XYY=              2.2640
  XXY=              0.8969  XXZ=              0.0008  XZZ=             -2.1585  YZZ=              0.1589
  YYZ=              0.0022  XYZ=             -0.0002
 Hexadecapole moment (field-independent basis, Debye-Ang**3):
 XXXX=           -765.8807 YYYY=           -458.8351 ZZZZ=            -50.4343 XXXY=             35.8849
 XXXZ=              0.0030 YYYX=             30.2047 YYYZ=              0.0218 ZZZX=              0.0009
 ZZZY=              0.0127 XXYY=           -182.6602 XXZZ=           -116.6305 YYZZ=            -79.1499
 XXYZ=              0.0045 YYXZ=              0.0018 ZZXY=              0.6606
 N-N= 2.304353898105D+02 E-N=-1.161702192832D+03  KE= 2.994584478833D+02
 Unable to Open any file for archive entry.
 1\1\GINC-N1\SP\RB3LYP TD-FC\6-31+G(d,p)\C5H4N2\HPCMGAC13\27-Aug-2025\0
 \\# td=(50-50,nstates=3) b3lyp/6-31+g(d,p) geom=connectivity\\Title Ca
 rd Required\\0,1\C,0,-2.147023,-1.00784,0.000121\C,0,-0.656223,-1.1434
 45,0.000045\C,0,0.215419,-0.1049,-0.000017\C,0,1.63614,-0.320226,-0.00
 0014\N,0,2.784926,-0.501222,0.000004\C,0,-0.242623,1.257392,0.000063\N
 ,0,-0.641522,2.349953,-0.000261\H,0,-2.630741,-1.985739,-0.000359\H,0,
 -2.490578,-0.450204,0.879564\H,0,-2.490638,-0.449266,-0.878698\H,0,-0.
 226014,-2.141783,0.00011\\Version=ES64L-G16RevC.02\State=1-A\HF=-302.4
 03145\RMSD=4.370e-09\PG=C01 [X(C5H4N2)]\\@
 The archive entry for this job was punched.


 THE CAUTIOUS SELDOM ERR...CONFUCIUS                   
 Job cpu time:       0 days  0 hours  6 minutes 21.9 seconds.
 Elapsed time:       0 days  0 hours  0 minutes 25.4 seconds.
 File lengths (MBytes):  RWF=    243 Int=      0 D2E=      0 Chk=      8 Scr=      2
 Normal termination of Gaussian 16 at Wed Aug 27 08:39:53 2025.
