 Entering Gaussian System, Link 0=g16
 Input=M595e.gjf
 Output=M595e.log
 Initial command:
 /hpc/softwares/Gaussian/g16/l1.exe "/hpc/home/hpcmgac13/pbs.13539.admin1.x8z/Gau-3365635.inp" -scrdir="/hpc/home/hpcmgac13/pbs.13539.admin1.x8z/"
 Default linda workers: n2
 Default is to use  16 SMP processors on each worker.
 Entering Link 1 = /hpc/softwares/Gaussian/g16/l1.exe PID=   3365636.
  
 Copyright (c) 1988-2021, Gaussian, Inc.  All Rights Reserved.
  
 This is part of the Gaussian(R) 16 program.  It is based on
 the Gaussian(R) 09 system (copyright 2009, Gaussian, Inc.),
 the Gaussian(R) 03 system (copyright 2003, Gaussian, Inc.),
 the Gaussian(R) 98 system (copyright 1998, Gaussian, Inc.),
 the Gaussian(R) 94 system (copyright 1995, Gaussian, Inc.),
 the Gaussian 92(TM) system (copyright 1992, Gaussian, Inc.),
 the Gaussian 90(TM) system (copyright 1990, Gaussian, Inc.),
 the Gaussian 88(TM) system (copyright 1988, Gaussian, Inc.),
 the Gaussian 86(TM) system (copyright 1986, Carnegie Mellon
 University), and the Gaussian 82(TM) system (copyright 1983,
 Carnegie Mellon University). Gaussian is a federally registered
 trademark of Gaussian, Inc.
  
 This software contains proprietary and confidential information,
 including trade secrets, belonging to Gaussian, Inc.
  
 This software is provided under written license and may be
 used, copied, transmitted, or stored only in accord with that
 written license.
  
 The following legend is applicable only to US Government
 contracts under FAR:
  
                    RESTRICTED RIGHTS LEGEND
  
 Use, reproduction and disclosure by the US Government is
 subject to restrictions as set forth in subparagraphs (a)
 and (c) of the Commercial Computer Software - Restricted
 Rights clause in FAR 52.227-19.
  
 Gaussian, Inc.
 340 Quinnipiac St., Bldg. 40, Wallingford CT 06492
  
  
 ---------------------------------------------------------------
 Warning -- This program may not be used in any manner that
 competes with the business of Gaussian, Inc. or will provide
 assistance to any competitor of Gaussian, Inc.  The licensee
 of this program is prohibited from giving any competitor of
 Gaussian, Inc. access to this program.  By using this program,
 the user acknowledges that Gaussian, Inc. is engaged in the
 business of creating and licensing software in the field of
 computational chemistry and represents and warrants to the
 licensee that it is not a competitor of Gaussian, Inc. and that
 it will not use this program in any manner prohibited above.
 ---------------------------------------------------------------
  

 Cite this work as:
 Gaussian 16, Revision C.02,
 M. J. Frisch, G. W. Trucks, H. B. Schlegel, G. E. Scuseria, 
 M. A. Robb, J. R. Cheeseman, G. Scalmani, V. Barone, 
 G. A. Petersson, H. Nakatsuji, X. Li, M. Caricato, A. V. Marenich, 
 J. Bloino, B. G. Janesko, R. Gomperts, B. Mennucci, H. P. Hratchian, 
 J. V. Ortiz, A. F. Izmaylov, J. L. Sonnenberg, D. Williams-Young, 
 F. Ding, F. Lipparini, F. Egidi, J. Goings, B. Peng, A. Petrone, 
 T. Henderson, D. Ranasinghe, V. G. Zakrzewski, J. Gao, N. Rega, 
 G. Zheng, W. Liang, M. Hada, M. Ehara, K. Toyota, R. Fukuda, 
 J. Hasegawa, M. Ishida, T. Nakajima, Y. Honda, O. Kitao, H. Nakai, 
 T. Vreven, K. Throssell, J. A. Montgomery, Jr., J. E. Peralta, 
 F. Ogliaro, M. J. Bearpark, J. J. Heyd, E. N. Brothers, K. N. Kudin, 
 V. N. Staroverov, T. A. Keith, R. Kobayashi, J. Normand, 
 K. Raghavachari, A. P. Rendell, J. C. Burant, S. S. Iyengar, 
 J. Tomasi, M. Cossi, J. M. Millam, M. Klene, C. Adamo, R. Cammi, 
 J. W. Ochterski, R. L. Martin, K. Morokuma, O. Farkas, 
 J. B. Foresman, and D. J. Fox, Gaussian, Inc., Wallingford CT, 2019.
 
 ******************************************
 Gaussian 16:  ES64L-G16RevC.02  7-Dec-2021
                27-Aug-2025 
 ******************************************
 SetLPE:    new flags="-opt 'Tsnet.Node.lindarsharg: ssh'  -nodelist 'n2.head.cm.mguif.local' -env GAUSS_MDEF=2147483648 -env GAUSS_EXEDIR="/hpc/softwares/Gaussian/g16/bsd:/hpc/softwares/Gaussian/g16""
 Will use up to    1 processors via Linda.
 ----------------------------------------------------------
 # td=(50-50,nstates=3) b3lyp/6-31+g(d,p) geom=connectivity
 ----------------------------------------------------------
 1/38=1,57=2,172=1/1;
 2/12=2,17=6,18=5,40=1/2;
 3/5=1,6=6,7=111,11=9,25=1,30=1,74=-5/1,2,3,8;
 4//1;
 5/5=2,38=5/2;
 8/6=1,10=2,108=3/1;
 9/41=3,42=1,48=2,70=2/14;
 6/7=2,8=2,9=2,10=2/1;
 99/5=1,9=1/99;
 -------------------
 Title Card Required
 -------------------
 Symbolic Z-matrix:
 Charge =  0 Multiplicity = 1
 C                     4.85264   2.05052   0.59037 
 O                     4.2955    0.74415   0.4312 
 C                     2.99      0.60769   0.13499 
 C                     2.11652   1.63974  -0.03289 
 C                     0.71907   1.45121  -0.36296 
 C                    -0.10055   2.5455   -0.58145 
 C                    -1.56107   2.56198  -0.9795 
 C                     0.47725   3.84499  -0.43199 
 N                     0.91233   4.92133  -0.31576 
 C                     0.27374   0.0569   -0.46207 
 O                    -1.04767  -0.11951  -0.70481 
 C                    -1.55372  -1.4507   -0.88193 
 C                    -3.0681   -1.36164  -1.1048 
 O                    -3.54013  -1.80544  -2.1431 
 C                    -3.92412  -0.79193  -0.05435 
 C                    -5.29927  -0.66459  -0.1359 
 C                    -5.88244  -0.13024   1.03963 
 C                    -4.94852   0.1413    2.01357 
 S                    -3.34566  -0.23983   1.50555 
 C                     1.15221  -0.97722  -0.30797 
 C                     2.54402  -0.77685  -0.00883 
 C                     3.39165  -1.87242   0.13756 
 C                     4.78724  -1.83732   0.43962 
 N                     5.92327  -1.93165   0.6814 
 C                     2.86473  -3.19343  -0.01579 
 N                     2.41161  -4.25986  -0.1423 
 H                     4.75835   2.62878  -0.33553 
 H                     4.36583   2.58287   1.41516 
 H                     5.90455   1.88774   0.8219 
 H                     2.46799   2.65788   0.06569 
 H                    -1.73343   1.96676  -1.87966 
 H                    -2.19093   2.14184  -0.18994 
 H                    -1.88176   3.5874   -1.16973 
 H                    -1.10905  -1.91563  -1.76628 
 H                    -1.33526  -2.0589    0.00669 
 H                    -5.84633  -0.96088  -1.02289 
 H                    -6.94412   0.04435   1.16784 
 H                    -5.11618   0.55055   3.00113 
 H                     0.81118  -1.99872  -0.40469 
 
                          Input orientation:                          
 ---------------------------------------------------------------------
 Center     Atomic      Atomic             Coordinates (Angstroms)
 Number     Number       Type             X           Y           Z
 ---------------------------------------------------------------------
      1          6           0        4.852641    2.050524    0.590369
      2          8           0        4.295502    0.744150    0.431196
      3          6           0        2.990001    0.607688    0.134985
      4          6           0        2.116518    1.639739   -0.032888
      5          6           0        0.719068    1.451207   -0.362964
      6          6           0       -0.100548    2.545495   -0.581446
      7          6           0       -1.561065    2.561984   -0.979504
      8          6           0        0.477249    3.844989   -0.431988
      9          7           0        0.912331    4.921326   -0.315759
     10          6           0        0.273737    0.056901   -0.462073
     11          8           0       -1.047669   -0.119508   -0.704805
     12          6           0       -1.553721   -1.450698   -0.881928
     13          6           0       -3.068101   -1.361644   -1.104798
     14          8           0       -3.540127   -1.805443   -2.143097
     15          6           0       -3.924123   -0.791925   -0.054347
     16          6           0       -5.299265   -0.664585   -0.135898
     17          6           0       -5.882442   -0.130240    1.039631
     18          6           0       -4.948522    0.141302    2.013568
     19         16           0       -3.345661   -0.239834    1.505549
     20          6           0        1.152207   -0.977217   -0.307973
     21          6           0        2.544015   -0.776845   -0.008829
     22          6           0        3.391653   -1.872422    0.137555
     23          6           0        4.787237   -1.837323    0.439619
     24          7           0        5.923273   -1.931652    0.681398
     25          6           0        2.864732   -3.193429   -0.015790
     26          7           0        2.411607   -4.259860   -0.142300
     27          1           0        4.758353    2.628782   -0.335531
     28          1           0        4.365826    2.582867    1.415159
     29          1           0        5.904549    1.887743    0.821895
     30          1           0        2.467987    2.657884    0.065687
     31          1           0       -1.733426    1.966761   -1.879656
     32          1           0       -2.190932    2.141840   -0.189942
     33          1           0       -1.881760    3.587398   -1.169734
     34          1           0       -1.109046   -1.915631   -1.766279
     35          1           0       -1.335264   -2.058904    0.006690
     36          1           0       -5.846328   -0.960875   -1.022890
     37          1           0       -6.944122    0.044353    1.167835
     38          1           0       -5.116185    0.550550    3.001129
     39          1           0        0.811184   -1.998715   -0.404690
 ---------------------------------------------------------------------
                    Distance matrix (angstroms):
                    1          2          3          4          5
     1  C    0.000000
     2  O    1.429109   0.000000
     3  C    2.399704   1.345621   0.000000
     4  C    2.836118   2.401130   1.362455   0.000000
     5  C    4.284209   3.731153   2.473179   1.448227   0.000000
     6  C    5.113925   4.857524   3.717508   2.456968   1.384547
     7  C    6.622818   6.292374   5.076767   3.907843   2.610164
     8  C    4.838323   4.993931   4.137088   2.776619   2.406955
     9  N    4.958691   5.427024   4.809091   3.506978   3.475817
    10  C    5.103776   4.176701   2.835125   2.466864   1.467049
    11  O    6.418736   5.530450   4.187701   3.682187   2.388590
    12  C    7.447663   6.383969   5.090823   4.872610   3.722358
    13  C    8.789462   7.811293   6.489679   6.085850   4.775468
    14  O    9.632179   8.632757   7.324987   6.951251   5.649370
    15  C    9.248068   8.376008   7.056903   6.511743   5.165860
    16  C   10.533778   9.714200   8.390708   7.766232   6.383453
    17  C   10.963557  10.233538   8.948920   8.262353   6.931680
    18  C   10.086299   9.397835   8.171092   7.506536   6.283736
    19  S    8.561276   7.778807   6.537381   5.977874   4.782571
    20  C    4.864920   3.659205   2.466905   2.802504   2.467362
    21  C    3.699028   2.361092   1.461683   2.454223   2.901734
    22  C    4.210586   2.783813   2.512424   3.740360   4.294152
    23  C    3.891318   2.627904   3.049744   4.409758   5.292312
    24  N    4.124593   3.141999   3.918022   5.268436   6.294297
    25  C    5.640767   4.213244   3.806168   4.890770   5.128065
    26  N    6.805615   5.377553   4.909628   5.907988   5.960677
    27  H    1.095702   2.086609   2.726403   2.837092   4.207524
    28  H    1.095745   2.086626   2.726366   2.836497   4.212033
    29  H    1.089317   2.012333   3.256528   3.891187   5.337009
    30  H    2.516099   2.671289   2.116744   1.081604   2.167609
    31  H    7.034509   6.571361   5.311932   4.282472   2.929313
    32  H    7.087252   6.664321   5.413064   4.339458   2.995832
    33  H    7.128261   6.986101   5.857902   4.590427   3.460996
    34  H    7.538295   6.411901   5.175339   5.103877   4.080060
    35  H    7.451057   6.304192   5.082823   5.059281   4.083847
    36  H   11.231165  10.386443   9.048855   8.435059   7.025530
    37  H   11.980059  11.285455  10.003546   9.278049   7.940218
    38  H   10.365287   9.758170   8.598157   7.918559   6.795475
    39  H    5.806880   4.512481   3.439743   3.883360   3.451404
                    6          7          8          9         10
     6  C    0.000000
     7  C    1.513880   0.000000
     8  C    1.429990   2.469939   0.000000
     9  N    2.596360   3.482060   1.166751   0.000000
    10  C    2.519412   3.147963   3.793670   4.908344   0.000000
    11  O    2.830989   2.743981   4.256412   5.422450   1.355047
    12  C    4.262811   4.013875   5.689603   6.855994   2.405979
    13  C    4.934167   4.204963   6.334920   7.479447   3.686902
    14  O    5.761954   4.934071   7.141049   8.271213   4.565055
    15  C    5.102542   4.205789   6.404347   7.490051   4.302183
    16  C    6.126156   5.009646   7.334306   8.355757   5.628968
    17  C    6.574021   5.477159   7.642891   8.574634   6.339454
    18  C    6.001424   5.127675   7.009781   7.913532   5.779958
    19  S    4.758609   4.148549   5.920682   6.934352   4.130330
    20  C    3.748824   4.509850   4.870792   5.903424   1.365597
    21  C    4.284804   5.379746   5.080545   5.935129   2.460635
    22  C    5.677184   6.741008   6.442586   7.246209   3.715271
    23  C    6.643953   7.852945   7.185010   7.827185   4.977230
    24  N    7.610916   8.886320   8.016757   8.547934   6.097469
    25  C    6.484451   7.324015   7.443966   8.351712   4.180558
    26  N    7.267505   7.938551   8.337520   9.304413   4.827750
    27  H    4.865833   6.352496   4.451552   4.477503   5.171302
    28  H    4.892476   6.392408   4.486194   4.515650   5.162334
    29  H    6.201870   7.709412   5.904119   5.951397   6.058597
    30  H    2.651185   4.163518   2.370641   2.772857   3.443599
    31  H    2.164849   1.092828   3.242000   4.263245   3.112203
    32  H    2.164698   1.093920   3.174664   4.167927   3.239694
    33  H    2.145777   1.091103   2.485065   3.211788   4.196589
    34  H    4.724674   4.568629   6.122206   7.275572   2.739329
    35  H    4.803220   4.730346   6.191413   7.340250   2.699121
    36  H    6.745628   5.547603   7.964491   8.987758   6.229412
    37  H    7.493344   6.318768   8.490054   9.365349   7.399611
    38  H    6.478523   5.703524   7.343441   8.151591   6.425630
    39  H    4.638140   5.172809   5.853301   6.921352   2.125488
                   11         12         13         14         15
    11  O    0.000000
    12  C    1.435106   0.000000
    13  C    2.405211   1.533280   0.000000
    14  O    3.335177   2.379538   1.223859   0.000000
    15  C    3.024769   2.595704   1.469966   2.353200   0.000000
    16  C    4.323983   3.899184   2.530366   2.902580   1.383431
    17  C    5.139864   4.916688   3.746391   4.292144   2.338724
    18  C    4.761746   4.737408   3.939421   4.801172   2.489293
    19  S    3.190754   3.221380   2.854717   3.975118   1.752911
    20  C    2.394284   2.806360   4.312043   5.106039   5.086038
    21  C    3.717078   4.243562   5.747955   6.529157   6.468316
    22  C    4.846634   5.066944   6.597936   7.297632   7.397627
    23  C    6.189242   6.488737   8.019840   8.718740   8.787756
    24  N    7.334811   7.653806   9.184782   9.876722   9.940398
    25  C    5.023008   4.828047   6.303958   6.890149   7.201199
    26  N    5.424529   4.915513   6.273218   6.741698   7.223281
    27  H    6.434233   7.535449   8.818654   9.580940   9.336257
    28  H    6.411163   7.522453   8.784795   9.717126   9.070387
    29  H    7.395485   8.347095   9.735456  10.565638  10.225029
    30  H    4.546141   5.826882   6.940815   7.803682   7.264617
    31  H    2.490593   3.564657   3.668793   4.190834   3.967525
    32  H    2.585697   3.713652   3.725693   4.606103   3.410178
    33  H    3.827926   5.056961   5.089660   5.725413   4.959214
    34  H    2.087235   1.093607   2.140644   2.462578   3.481104
    35  H    2.085712   1.098763   2.173546   3.089862   2.882907
    36  H    4.882234   4.322762   2.808179   2.699393   2.159049
    37  H    6.188844   5.957611   4.707996   5.096194   3.363552
    38  H    5.543983   5.636867   4.970892   5.873476   3.543894
    39  H    2.660230   2.474036   3.993102   4.689704   4.899206
                   16         17         18         19         20
    16  C    0.000000
    17  C    1.416859   0.000000
    18  C    2.322214   1.376407   0.000000
    19  S    2.586761   2.581540   1.724097   0.000000
    20  C    6.461334   7.212468   6.622653   4.905447   0.000000
    21  C    7.845112   8.516017   7.814806   6.104916   1.437625
    22  C    8.778707   9.479334   8.782541   7.065986   2.452551
    23  C   10.170745  10.822024  10.058692   8.356567   3.809478
    24  N   11.323374  11.947733  11.147544   9.458045   4.965166
    25  C    8.547533   9.327920   8.734166   7.043236   2.815974
    26  N    8.507855   9.340341   8.842482   7.212638   3.519841
    27  H   10.584980  11.078348  10.292193   8.791677   5.099831
    28  H   10.313375  10.607967   9.647612   8.212359   5.096148
    29  H   11.530707  11.960469  11.057092   9.516320   5.662981
    30  H    8.450422   8.857306   8.070442   6.653456   3.883923
    31  H    4.762340   5.489443   5.369016   4.350629   4.411810
    32  H    4.188159   4.505712   4.057328   3.143320   4.573732
    33  H    5.552253   5.891314   5.604821   4.893654   5.548270
    34  H    4.667033   5.817737   5.767130   4.302976   2.849657
    35  H    4.204493   5.046141   4.682318   3.097949   2.730672
    36  H    1.083430   2.223792   3.352749   3.628531   7.034974
    37  H    2.215371   1.083551   2.169581   3.625429   8.292898
    38  H    3.369126   2.213165   1.082068   2.448718   7.250998
    39  H    6.260171   7.098020   6.603170   4.901228   1.081253
                   21         22         23         24         25
    21  C    0.000000
    22  C    1.392913   0.000000
    23  C    2.521461   1.428331   0.000000
    24  N    3.637221   2.590053   1.165304   0.000000
    25  C    2.437783   1.430461   2.396340   3.381246   0.000000
    26  N    3.488085   2.595895   3.442518   4.293114   1.165591
    27  H    4.075331   4.727845   4.532967   4.815469   6.130757
    28  H    4.078529   4.736126   4.546135   4.831659   6.137303
    29  H    4.368446   4.574036   3.907766   3.822024   5.980009
    30  H    3.436378   4.624067   5.072044   5.777711   5.865314
    31  H    5.415152   6.713784   7.897413   8.965582   7.158534
    32  H    5.565182   6.883808   8.057601   9.121014   7.352222
    33  H    6.323116   7.702436   8.746035   9.736793   8.357056
    34  H    4.210739   4.886997   6.295893   7.446133   4.526355
    35  H    4.085673   4.732404   6.141787   7.290938   4.350588
    36  H    8.453404   9.355097  10.769392  11.931912   9.048818
    37  H    9.596023  10.562374  11.903604  13.027320  10.397010
    38  H    8.336695   9.298073  10.504334  11.550416   9.317415
    39  H    2.156937   2.639848   4.067911   5.226618   2.407414
                   26         27         28         29         30
    26  N    0.000000
    27  H    7.279969   0.000000
    28  H    7.284749   1.794743   0.000000
    29  H    7.136059   1.789564   1.789645   0.000000
    30  H    6.921100   2.325425   2.329913   3.602072   0.000000
    31  H    7.679226   6.705653   6.959617   8.102054   4.681227
    32  H    7.884630   6.967845   6.764756   8.162426   4.694377
    33  H    9.003781   6.760617   6.835429   8.214744   4.616336
    34  H    4.530752   7.558115   7.767384   8.387778   6.088374
    35  H    4.348040   7.695693   7.485469   8.285860   6.059397
    36  H    8.936008  11.216834  11.081078  12.231147   9.132812
    37  H   10.381347  12.078382  11.593970  12.984841   9.830212
    38  H    9.470419  10.628210   9.826197  11.313431   8.401032
    39  H    2.782621   6.082652   6.077682   6.523146   4.964893
                   31         32         33         34         35
    31  H    0.000000
    32  H    1.759289   0.000000
    33  H    1.775516   1.773476   0.000000
    34  H    3.933913   4.485352   5.588943   0.000000
    35  H    4.463498   4.291513   5.793389   1.793076   0.000000
    36  H    5.120651   4.866473   6.035408   4.889379   4.755565
    37  H    6.335156   5.369900   6.606429   6.818994   6.101740
    38  H    6.104979   4.612184   6.089339   6.698313   5.483729
    39  H    4.937162   5.118888   6.248352   2.355443   2.186343
                   36         37         38         39
    36  H    0.000000
    37  H    2.648568   0.000000
    38  H    4.360074   2.637907   0.000000
    39  H    6.766221   8.172621   7.296030   0.000000
 Stoichiometry    C19H13N3O3S
 Framework group  C1[X(C19H13N3O3S)]
 Deg. of freedom   111
 Full point group                 C1      NOp   1
 Largest Abelian subgroup         C1      NOp   1
 Largest concise Abelian subgroup C1      NOp   1
                         Standard orientation:                         
 ---------------------------------------------------------------------
 Center     Atomic      Atomic             Coordinates (Angstroms)
 Number     Number       Type             X           Y           Z
 ---------------------------------------------------------------------
      1          6           0        4.852641    2.050524    0.590369
      2          8           0        4.295502    0.744150    0.431196
      3          6           0        2.990001    0.607688    0.134985
      4          6           0        2.116518    1.639739   -0.032888
      5          6           0        0.719068    1.451207   -0.362964
      6          6           0       -0.100548    2.545495   -0.581446
      7          6           0       -1.561065    2.561984   -0.979504
      8          6           0        0.477249    3.844989   -0.431988
      9          7           0        0.912331    4.921326   -0.315759
     10          6           0        0.273737    0.056901   -0.462073
     11          8           0       -1.047669   -0.119508   -0.704805
     12          6           0       -1.553721   -1.450698   -0.881928
     13          6           0       -3.068101   -1.361644   -1.104798
     14          8           0       -3.540127   -1.805443   -2.143097
     15          6           0       -3.924123   -0.791925   -0.054347
     16          6           0       -5.299265   -0.664585   -0.135898
     17          6           0       -5.882442   -0.130240    1.039631
     18          6           0       -4.948522    0.141302    2.013568
     19         16           0       -3.345661   -0.239834    1.505549
     20          6           0        1.152207   -0.977217   -0.307973
     21          6           0        2.544015   -0.776845   -0.008829
     22          6           0        3.391653   -1.872422    0.137555
     23          6           0        4.787237   -1.837323    0.439619
     24          7           0        5.923273   -1.931652    0.681398
     25          6           0        2.864732   -3.193429   -0.015790
     26          7           0        2.411607   -4.259860   -0.142300
     27          1           0        4.758353    2.628782   -0.335531
     28          1           0        4.365826    2.582867    1.415159
     29          1           0        5.904549    1.887743    0.821895
     30          1           0        2.467987    2.657884    0.065687
     31          1           0       -1.733426    1.966761   -1.879656
     32          1           0       -2.190932    2.141840   -0.189942
     33          1           0       -1.881760    3.587398   -1.169734
     34          1           0       -1.109046   -1.915631   -1.766279
     35          1           0       -1.335264   -2.058904    0.006690
     36          1           0       -5.846328   -0.960875   -1.022890
     37          1           0       -6.944122    0.044353    1.167835
     38          1           0       -5.116185    0.550550    3.001129
     39          1           0        0.811184   -1.998715   -0.404690
 ---------------------------------------------------------------------
 Rotational constants (GHZ):           0.2805568           0.1141383           0.0898928
 Standard basis: 6-31+G(d,p) (6D, 7F)
 There are   563 symmetry adapted cartesian basis functions of A   symmetry.
 There are   563 symmetry adapted basis functions of A   symmetry.
   563 basis functions,   947 primitive gaussians,   563 cartesian basis functions
    94 alpha electrons       94 beta electrons
       nuclear repulsion energy      2248.2361603549 Hartrees.
 NAtoms=   39 NActive=   39 NUniq=   39 SFac= 1.00D+00 NAtFMM=   60 NAOKFM=F Big=F
 Integral buffers will be    131072 words long.
 Regular integral format.
 Two-electron integral symmetry is turned on.
 One-electron integrals computed using PRISM.
 NBasis=   563 RedAO= T EigKep=  1.01D-06  NBF=   563
 NBsUse=   557 1.00D-06 EigRej=  6.08D-07 NBFU=   557
 ExpMin= 4.05D-02 ExpMax= 2.19D+04 ExpMxC= 3.30D+03 IAcc=3 IRadAn=         5 AccDes= 0.00D+00
 Harris functional with IExCor=  402 and IRadAn=       5 diagonalized for initial guess.
 HarFok:  IExCor=  402 AccDes= 0.00D+00 IRadAn=         5 IDoV= 1 UseB2=F ITyADJ=14
 ICtDFT=  3500011 ScaDFX=  1.000000  1.000000  1.000000  1.000000
 FoFCou: FMM=F IPFlag=           0 FMFlag=      100000 FMFlg1=           0
         NFxFlg=           0 DoJE=T BraDBF=F KetDBF=T FulRan=T
         wScrn=  0.000000 ICntrl=       500 IOpCl=  0 I1Cent=   200000004 NGrid=           0
         NMat0=    1 NMatS0=      1 NMatT0=    0 NMatD0=    1 NMtDS0=    0 NMtDT0=    0
 Petite list used in FoFCou.
 Requested convergence on RMS density matrix=1.00D-08 within 128 cycles.
 Requested convergence on MAX density matrix=1.00D-06.
 Requested convergence on             energy=1.00D-06.
 No special actions if energy rises.
 SCF Done:  E(RB3LYP) =  -1519.89787259     A.U. after   17 cycles
            NFock= 17  Conv=0.65D-08     -V/T= 2.0078
 DoSCS=F DFT=T ScalE2(SS,OS)=  1.000000  1.000000
 ExpMin= 4.05D-02 ExpMax= 2.19D+04 ExpMxC= 3.30D+03 IAcc=3 IRadAn=         5 AccDes= 0.00D+00
 HarFok:  IExCor=  205 AccDes= 0.00D+00 IRadAn=         5 IDoV=-2 UseB2=F ITyADJ=14
 ICtDFT= 12500011 ScaDFX=  1.000000  1.000000  1.000000  1.000000
 GSVD:  LWork=       -1140 too small for GESVD, short by        4950 words or        4950 for optimal perf.
 Range of M.O.s used for correlation:    31   557
 NBasis=   563 NAE=    94 NBE=    94 NFC=    30 NFV=     0
 NROrb=    527 NOA=    64 NOB=    64 NVA=   463 NVB=   463

 **** Warning!!: The largest alpha MO coefficient is  0.18875862D+03


 **** Warning!!: The smallest alpha delta epsilon is  0.98204826D-01

 Orbital symmetries:
       Occupied  (A) (A) (A) (A) (A) (A) (A) (A) (A) (A) (A) (A)
                 (A) (A) (A) (A) (A) (A) (A) (A) (A) (A) (A) (A)
                 (A) (A) (A) (A) (A) (A) (A) (A) (A) (A) (A) (A)
                 (A) (A) (A) (A) (A) (A) (A) (A) (A) (A) (A) (A)
                 (A) (A) (A) (A) (A) (A) (A) (A) (A) (A) (A) (A)
                 (A) (A) (A) (A) (A) (A) (A) (A) (A) (A) (A) (A)
                 (A) (A) (A) (A) (A) (A) (A) (A) (A) (A) (A) (A)
                 (A) (A) (A) (A) (A) (A) (A) (A) (A) (A)
       Virtual   (A) (A) (A) (A) (A) (A) (A) (A) (A) (A) (A) (A)
                 (A) (A) (A) (A) (A) (A) (A) (A) (A) (A) (A) (A)
                 (A) (A) (A) (A) (A) (A) (A) (A) (A) (A) (A) (A)
                 (A) (A) (A) (A) (A) (A) (A) (A) (A) (A) (A) (A)
                 (A) (A) (A) (A) (A) (A) (A) (A) (A) (A) (A) (A)
                 (A) (A) (A) (A) (A) (A) (A) (A) (A) (A) (A) (A)
                 (A) (A) (A) (A) (A) (A) (A) (A) (A) (A) (A) (A)
                 (A) (A) (A) (A) (A) (A) (A) (A) (A) (A) (A) (A)
                 (A) (A) (A) (A) (A) (A) (A) (A) (A) (A) (A) (A)
                 (A) (A) (A) (A) (A) (A) (A) (A) (A) (A) (A) (A)
                 (A) (A) (A) (A) (A) (A) (A) (A) (A) (A) (A) (A)
                 (A) (A) (A) (A) (A) (A) (A) (A) (A) (A) (A) (A)
                 (A) (A) (A) (A) (A) (A) (A) (A) (A) (A) (A) (A)
                 (A) (A) (A) (A) (A) (A) (A) (A) (A) (A) (A) (A)
                 (A) (A) (A) (A) (A) (A) (A) (A) (A) (A) (A) (A)
                 (A) (A) (A) (A) (A) (A) (A) (A) (A) (A) (A) (A)
                 (A) (A) (A) (A) (A) (A) (A) (A) (A) (A) (A) (A)
                 (A) (A) (A) (A) (A) (A) (A) (A) (A) (A) (A) (A)
                 (A) (A) (A) (A) (A) (A) (A) (A) (A) (A) (A) (A)
                 (A) (A) (A) (A) (A) (A) (A) (A) (A) (A) (A) (A)
                 (A) (A) (A) (A) (A) (A) (A) (A) (A) (A) (A) (A)
                 (A) (A) (A) (A) (A) (A) (A) (A) (A) (A) (A) (A)
                 (A) (A) (A) (A) (A) (A) (A) (A) (A) (A) (A) (A)
                 (A) (A) (A) (A) (A) (A) (A) (A) (A) (A) (A) (A)
                 (A) (A) (A) (A) (A) (A) (A) (A) (A) (A) (A) (A)
                 (A) (A) (A) (A) (A) (A) (A) (A) (A) (A) (A) (A)
                 (A) (A) (A) (A) (A) (A) (A) (A) (A) (A) (A) (A)
                 (A) (A) (A) (A) (A) (A) (A) (A) (A) (A) (A) (A)
                 (A) (A) (A) (A) (A) (A) (A) (A) (A) (A) (A) (A)
                 (A) (A) (A) (A) (A) (A) (A) (A) (A) (A) (A) (A)
                 (A) (A) (A) (A) (A) (A) (A) (A) (A) (A) (A) (A)
                 (A) (A) (A) (A) (A) (A) (A) (A) (A) (A) (A) (A)
                 (A) (A) (A) (A) (A) (A) (A) (A) (A) (A) (A) (A)
                 (A) (A) (A) (A) (A) (A) (A) (A) (A) (A) (A) (A)
                 (A) (A) (A) (A) (A) (A) (A) (A) (A) (A) (A) (A)
                 (A) (A) (A) (A) (A) (A) (A) (A) (A) (A) (A) (A)
                 (A) (A) (A) (A) (A) (A) (A) (A) (A) (A) (A) (A)
                 (A) (A) (A) (A) (A) (A) (A) (A) (A) (A) (A) (A)
                 (A) (A) (A) (A) (A) (A) (A)
    24 initial guesses have been made.
 Convergence on wavefunction:    0.001000000000000
 Iteration     1 Dimension    24 NMult     0 NNew     24
 CISAX will form    24 AO SS matrices at one time.
 New state      1 was old state      2
 New state      2 was old state      4
 New state      3 was old state     16
 New state      4 was old state      3
 New state      5 was old state      6
 New state      6 was old state      5
 New state      7 was old state      8
 New state      8 was old state      7
 New state      9 was old state     20
 New state     11 was old state      9
 Vector   5 SDiff=1.02D+01 TDiff=1.03D+01 assumed to be singlet.
 Vector  11 SDiff=1.02D+01 TDiff=1.03D+01 assumed to be singlet.
 Iteration     2 Dimension    36 NMult    24 NNew     12
 New state      3 was old state      4
 New state      4 was old state      3
 New state      5 was old state      6
 New state      6 was old state      8
 Iteration     3 Dimension    48 NMult    36 NNew     12
 New state      5 was old state      6
 New state      6 was old state      5
 Iteration     4 Dimension    60 NMult    48 NNew     12
 Iteration     5 Dimension    72 NMult    60 NNew     12
 Iteration     6 Dimension    82 NMult    72 NNew     10
 Iteration     7 Dimension    84 NMult    82 NNew      2
 ***********************************************************************
 Excited states from <AA,BB:AA,BB> singles matrix:
 ***********************************************************************
 
 Ground to excited state transition densities written to RWF  633
 Ground to excited state transition electric dipole moments (Au):
       state          X           Y           Z        Dip. S.      Osc.
         1         0.0000      0.0000     -0.0000      0.0000      0.0000
         2        -0.0000      0.0000     -0.0000      0.0000      0.0000
         3         0.3448     -0.7995      0.1288      0.7746      0.0512
         4        -0.0000      0.0000     -0.0000      0.0000      0.0000
         5         2.1636     -2.5588      0.3834     11.3759      0.8403
         6        -0.0810      0.1651     -0.0349      0.0350      0.0028
 Ground to excited state transition velocity dipole moments (Au):
       state          X           Y           Z        Dip. S.      Osc.
         1         0.0000      0.0000      0.0000      0.0000      0.0000
         2         0.0000      0.0000      0.0000      0.0000      0.0000
         3        -0.0317      0.0766     -0.0123      0.0070      0.0472
         4         0.0000     -0.0000      0.0000      0.0000      0.0000
         5        -0.2316      0.2727     -0.0412      0.1297      0.7803
         6         0.0108     -0.0198      0.0045      0.0005      0.0030
 Ground to excited state transition magnetic dipole moments (Au):
       state          X           Y           Z
         1         0.0000     -0.0000      0.0000
         2         0.0000     -0.0000      0.0000
         3        -0.0459     -0.0027      0.7291
         4         0.0000      0.0000     -0.0000
         5         0.1259      0.2166      0.7903
         6        -0.0055      0.0096     -0.0629
 Ground to excited state transition velocity quadrupole moments (Au):
       state          XX          YY          ZZ          XY          XZ          YZ
         1         0.0000     -0.0000      0.0000      0.0000      0.0000      0.0000
         2         0.0000      0.0000      0.0000      0.0000      0.0000      0.0000
         3        -0.5053      0.4662     -0.0032     -0.0225     -0.0281     -0.0973
         4         0.0000     -0.0000      0.0000      0.0000      0.0000      0.0000
         5        -1.5001      0.2367      0.0617      1.0786     -0.1267     -0.0929
         6         0.1157     -0.0145      0.0003     -0.0873     -0.0113      0.0014
 <0|del|b> * <b|rxdel|0> + <0|del|b> * <b|delr+rdel|0>
 Rotatory Strengths (R) in cgs (10**-40 erg-esu-cm/Gauss)
       state          XX          YY          ZZ    R(velocity)    E-M Angle
         1         0.0000      0.0000     -0.0000      0.0000       90.00
         2         0.0000     -0.0000      0.0000      0.0000       90.00
         3       -23.9462    -16.6828    -14.2084    -18.2791       97.22
         4         0.0000      0.0000     -0.0000     -0.0000       90.00
         5        53.0305     13.4977    -83.5009     -5.6576       90.51
         6        -3.2527      0.1924     -0.1226     -1.0610      111.27
 1/2[<0|r|b>*<b|rxdel|0> + (<0|rxdel|b>*<b|r|0>)*]
 Rotatory Strengths (R) in cgs (10**-40 erg-esu-cm/Gauss)
       state          XX          YY          ZZ     R(length)
         1        -0.0000      0.0000      0.0000      0.0000
         2         0.0000      0.0000      0.0000      0.0000
         3        11.1889     -1.5019    -66.3968    -18.9033
         4         0.0000     -0.0000     -0.0000     -0.0000
         5      -192.6982    391.8949   -214.2642     -5.0225
         6        -0.3179     -1.1195     -1.5525     -0.9966
  1/2[<0|del|b>*<b|r|0> + (<0|r|b>*<b|del|0>)*] (Au)
       state          X           Y           Z        Dip. S.   Osc.(frdel)
         1         0.0000      0.0000     -0.0000     -0.0000     -0.0000
         2        -0.0000      0.0000     -0.0000     -0.0000     -0.0000
         3        -0.0109     -0.0612     -0.0016      0.0737      0.0491
         4        -0.0000     -0.0000     -0.0000      0.0000      0.0000
         5        -0.5010     -0.6978     -0.0158      1.2146      0.8097
         6        -0.0009     -0.0033     -0.0002      0.0043      0.0029

 Excitation energies and oscillator strengths:
 
 Excited State   1:      Triplet-A      0.9196 eV 1348.22 nm  f=0.0000  <S**2>=2.000
      94 -> 95         0.74439
      94 <- 95         0.26104
 This state for optimization and/or second-order correction.
 Total Energy, E(TD-HF/TD-DFT) =  -1519.86407745    
 Copying the excited state density for this state as the 1-particle RhoCI density.
 
 Excited State   2:      Triplet-A      2.0765 eV  597.08 nm  f=0.0000  <S**2>=2.000
      93 -> 95         0.69033
 
 Excited State   3:      Singlet-A      2.6979 eV  459.57 nm  f=0.0512  <S**2>=0.000
      93 -> 95         0.64716
      94 -> 95         0.26908
 
 Excited State   4:      Triplet-A      2.7173 eV  456.27 nm  f=0.0000  <S**2>=2.000
      92 -> 96         0.67557
      93 -> 96        -0.10871
 
 Excited State   5:      Singlet-A      3.0150 eV  411.23 nm  f=0.8403  <S**2>=0.000
      93 -> 95        -0.26895
      94 -> 95         0.65975
      94 <- 95        -0.14314
 
 Excited State   6:      Singlet-A      3.2162 eV  385.50 nm  f=0.0028  <S**2>=0.000
      92 -> 95         0.70490
 SavETr:  write IOETrn=   770 NScale= 10 NData=  16 NLR=1 NState=    6 LETran=     118.

 **********************************************************************

            Population analysis using the SCF Density.

 **********************************************************************

 Orbital symmetries:
       Occupied  (A) (A) (A) (A) (A) (A) (A) (A) (A) (A) (A) (A)
                 (A) (A) (A) (A) (A) (A) (A) (A) (A) (A) (A) (A)
                 (A) (A) (A) (A) (A) (A) (A) (A) (A) (A) (A) (A)
                 (A) (A) (A) (A) (A) (A) (A) (A) (A) (A) (A) (A)
                 (A) (A) (A) (A) (A) (A) (A) (A) (A) (A) (A) (A)
                 (A) (A) (A) (A) (A) (A) (A) (A) (A) (A) (A) (A)
                 (A) (A) (A) (A) (A) (A) (A) (A) (A) (A) (A) (A)
                 (A) (A) (A) (A) (A) (A) (A) (A) (A) (A)
       Virtual   (A) (A) (A) (A) (A) (A) (A) (A) (A) (A) (A) (A)
                 (A) (A) (A) (A) (A) (A) (A) (A) (A) (A) (A) (A)
                 (A) (A) (A) (A) (A) (A) (A) (A) (A) (A) (A) (A)
                 (A) (A) (A) (A) (A) (A) (A) (A) (A) (A) (A) (A)
                 (A) (A) (A) (A) (A) (A) (A) (A) (A) (A) (A) (A)
                 (A) (A) (A) (A) (A) (A) (A) (A) (A) (A) (A) (A)
                 (A) (A) (A) (A) (A) (A) (A) (A) (A) (A) (A) (A)
                 (A) (A) (A) (A) (A) (A) (A) (A) (A) (A) (A) (A)
                 (A) (A) (A) (A) (A) (A) (A) (A) (A) (A) (A) (A)
                 (A) (A) (A) (A) (A) (A) (A) (A) (A) (A) (A) (A)
                 (A) (A) (A) (A) (A) (A) (A) (A) (A) (A) (A) (A)
                 (A) (A) (A) (A) (A) (A) (A) (A) (A) (A) (A) (A)
                 (A) (A) (A) (A) (A) (A) (A) (A) (A) (A) (A) (A)
                 (A) (A) (A) (A) (A) (A) (A) (A) (A) (A) (A) (A)
                 (A) (A) (A) (A) (A) (A) (A) (A) (A) (A) (A) (A)
                 (A) (A) (A) (A) (A) (A) (A) (A) (A) (A) (A) (A)
                 (A) (A) (A) (A) (A) (A) (A) (A) (A) (A) (A) (A)
                 (A) (A) (A) (A) (A) (A) (A) (A) (A) (A) (A) (A)
                 (A) (A) (A) (A) (A) (A) (A) (A) (A) (A) (A) (A)
                 (A) (A) (A) (A) (A) (A) (A) (A) (A) (A) (A) (A)
                 (A) (A) (A) (A) (A) (A) (A) (A) (A) (A) (A) (A)
                 (A) (A) (A) (A) (A) (A) (A) (A) (A) (A) (A) (A)
                 (A) (A) (A) (A) (A) (A) (A) (A) (A) (A) (A) (A)
                 (A) (A) (A) (A) (A) (A) (A) (A) (A) (A) (A) (A)
                 (A) (A) (A) (A) (A) (A) (A) (A) (A) (A) (A) (A)
                 (A) (A) (A) (A) (A) (A) (A) (A) (A) (A) (A) (A)
                 (A) (A) (A) (A) (A) (A) (A) (A) (A) (A) (A) (A)
                 (A) (A) (A) (A) (A) (A) (A) (A) (A) (A) (A) (A)
                 (A) (A) (A) (A) (A) (A) (A) (A) (A) (A) (A) (A)
                 (A) (A) (A) (A) (A) (A) (A) (A) (A) (A) (A) (A)
                 (A) (A) (A) (A) (A) (A) (A) (A) (A) (A) (A) (A)
                 (A) (A) (A) (A) (A) (A) (A) (A) (A) (A) (A) (A)
                 (A) (A) (A) (A) (A) (A) (A) (A) (A) (A) (A) (A)
                 (A) (A) (A) (A) (A) (A) (A) (A) (A) (A) (A) (A)
                 (A) (A) (A) (A) (A) (A) (A) (A) (A) (A) (A) (A)
                 (A) (A) (A) (A) (A) (A) (A) (A) (A) (A) (A) (A)
                 (A) (A) (A) (A) (A) (A) (A) (A) (A) (A) (A) (A)
                 (A) (A) (A) (A) (A) (A) (A) (A) (A) (A) (A) (A)
                 (A) (A) (A) (A) (A) (A) (A)
 The electronic state is 1-A.
 Alpha  occ. eigenvalues --  -88.95625 -19.24514 -19.22702 -19.18051 -14.36965
 Alpha  occ. eigenvalues --  -14.36456 -14.35345 -10.32184 -10.31609 -10.30480
 Alpha  occ. eigenvalues --  -10.29273 -10.28654 -10.28058 -10.27925 -10.27028
 Alpha  occ. eigenvalues --  -10.26991 -10.26317 -10.25927 -10.25867 -10.25811
 Alpha  occ. eigenvalues --  -10.25066 -10.23930 -10.23906 -10.23576 -10.23569
 Alpha  occ. eigenvalues --  -10.22310  -8.01502  -5.97914  -5.97542  -5.97245
 Alpha  occ. eigenvalues --   -1.13085  -1.11516  -1.07750  -0.94028  -0.93792
 Alpha  occ. eigenvalues --   -0.92257  -0.91849  -0.91116  -0.87219  -0.82735
 Alpha  occ. eigenvalues --   -0.81796  -0.79111  -0.77732  -0.77079  -0.76677
 Alpha  occ. eigenvalues --   -0.72905  -0.70095  -0.67815  -0.65100  -0.63819
 Alpha  occ. eigenvalues --   -0.60857  -0.59983  -0.58860  -0.57547  -0.56270
 Alpha  occ. eigenvalues --   -0.55094  -0.54615  -0.52657  -0.52042  -0.50609
 Alpha  occ. eigenvalues --   -0.50165  -0.49004  -0.48157  -0.46979  -0.46479
 Alpha  occ. eigenvalues --   -0.45700  -0.44833  -0.44399  -0.43937  -0.43683
 Alpha  occ. eigenvalues --   -0.43348  -0.42105  -0.41908  -0.41362  -0.40080
 Alpha  occ. eigenvalues --   -0.39636  -0.39329  -0.39102  -0.38818  -0.38578
 Alpha  occ. eigenvalues --   -0.38471  -0.37993  -0.37705  -0.35959  -0.35712
 Alpha  occ. eigenvalues --   -0.35657  -0.34485  -0.33584  -0.32817  -0.29508
 Alpha  occ. eigenvalues --   -0.29410  -0.27960  -0.26923  -0.24338
 Alpha virt. eigenvalues --   -0.14518  -0.10495  -0.05125  -0.02733  -0.02489
 Alpha virt. eigenvalues --   -0.02154  -0.01834  -0.01659  -0.00581  -0.00440
 Alpha virt. eigenvalues --    0.00240   0.00452   0.00950   0.01407   0.01640
 Alpha virt. eigenvalues --    0.02103   0.02444   0.02484   0.02641   0.03345
 Alpha virt. eigenvalues --    0.03679   0.03805   0.04177   0.04194   0.04475
 Alpha virt. eigenvalues --    0.04693   0.05348   0.05853   0.05941   0.06180
 Alpha virt. eigenvalues --    0.06483   0.06844   0.07436   0.07632   0.07842
 Alpha virt. eigenvalues --    0.08029   0.08552   0.08842   0.08968   0.09424
 Alpha virt. eigenvalues --    0.09669   0.10067   0.10216   0.10605   0.10915
 Alpha virt. eigenvalues --    0.10959   0.11366   0.11432   0.12186   0.12363
 Alpha virt. eigenvalues --    0.12543   0.12696   0.13136   0.13498   0.13757
 Alpha virt. eigenvalues --    0.14042   0.14373   0.14729   0.14852   0.15296
 Alpha virt. eigenvalues --    0.15307   0.15621   0.16103   0.16476   0.16596
 Alpha virt. eigenvalues --    0.16854   0.17411   0.17516   0.17691   0.17976
 Alpha virt. eigenvalues --    0.18505   0.18880   0.19054   0.19219   0.19559
 Alpha virt. eigenvalues --    0.19735   0.19910   0.20762   0.20902   0.21168
 Alpha virt. eigenvalues --    0.21407   0.21678   0.21737   0.22198   0.22264
 Alpha virt. eigenvalues --    0.22533   0.23071   0.23493   0.23907   0.24182
 Alpha virt. eigenvalues --    0.24607   0.24714   0.24811   0.25405   0.25592
 Alpha virt. eigenvalues --    0.25814   0.26060   0.26187   0.26482   0.26680
 Alpha virt. eigenvalues --    0.26983   0.27249   0.27459   0.27532   0.27700
 Alpha virt. eigenvalues --    0.27994   0.28436   0.28544   0.28911   0.29121
 Alpha virt. eigenvalues --    0.29596   0.29824   0.29996   0.30236   0.30661
 Alpha virt. eigenvalues --    0.31119   0.31357   0.31993   0.32583   0.32759
 Alpha virt. eigenvalues --    0.33270   0.33700   0.33866   0.33914   0.34126
 Alpha virt. eigenvalues --    0.35145   0.35659   0.35911   0.36784   0.37007
 Alpha virt. eigenvalues --    0.37848   0.38235   0.39212   0.39644   0.40144
 Alpha virt. eigenvalues --    0.41399   0.42255   0.42483   0.43312   0.43718
 Alpha virt. eigenvalues --    0.44366   0.45725   0.47250   0.48103   0.49167
 Alpha virt. eigenvalues --    0.50685   0.52967   0.53985   0.55582   0.55991
 Alpha virt. eigenvalues --    0.57814   0.59192   0.62136   0.62480   0.63375
 Alpha virt. eigenvalues --    0.64280   0.65238   0.65419   0.65836   0.66354
 Alpha virt. eigenvalues --    0.66792   0.67679   0.68061   0.68887   0.69319
 Alpha virt. eigenvalues --    0.69729   0.70149   0.70586   0.71148   0.71826
 Alpha virt. eigenvalues --    0.72032   0.72604   0.73388   0.73748   0.74501
 Alpha virt. eigenvalues --    0.74881   0.75519   0.75846   0.76410   0.78022
 Alpha virt. eigenvalues --    0.78317   0.78858   0.79413   0.80290   0.80303
 Alpha virt. eigenvalues --    0.80629   0.81079   0.82139   0.83737   0.85544
 Alpha virt. eigenvalues --    0.85987   0.86235   0.86692   0.87194   0.88081
 Alpha virt. eigenvalues --    0.88460   0.89395   0.89908   0.90021   0.90506
 Alpha virt. eigenvalues --    0.91116   0.92675   0.92747   0.93909   0.95092
 Alpha virt. eigenvalues --    0.95753   0.97120   0.98175   0.98580   0.99082
 Alpha virt. eigenvalues --    0.99881   1.00553   1.01170   1.01660   1.02022
 Alpha virt. eigenvalues --    1.02423   1.03819   1.04223   1.04946   1.05189
 Alpha virt. eigenvalues --    1.05708   1.05956   1.06693   1.07987   1.09106
 Alpha virt. eigenvalues --    1.09397   1.09705   1.10269   1.11587   1.12066
 Alpha virt. eigenvalues --    1.12580   1.13017   1.14380   1.15591   1.16276
 Alpha virt. eigenvalues --    1.16982   1.17624   1.18596   1.18815   1.20786
 Alpha virt. eigenvalues --    1.21581   1.21855   1.22534   1.23391   1.24038
 Alpha virt. eigenvalues --    1.24298   1.25114   1.25666   1.26146   1.27579
 Alpha virt. eigenvalues --    1.28302   1.28485   1.29269   1.30451   1.31429
 Alpha virt. eigenvalues --    1.31738   1.31960   1.32414   1.33123   1.34618
 Alpha virt. eigenvalues --    1.35655   1.35937   1.36621   1.37512   1.37984
 Alpha virt. eigenvalues --    1.38419   1.41501   1.42582   1.43449   1.44531
 Alpha virt. eigenvalues --    1.45573   1.46716   1.49250   1.50283   1.50527
 Alpha virt. eigenvalues --    1.50910   1.51666   1.52757   1.54266   1.54930
 Alpha virt. eigenvalues --    1.55442   1.57923   1.58004   1.59371   1.61201
 Alpha virt. eigenvalues --    1.63345   1.64740   1.65253   1.66869   1.67790
 Alpha virt. eigenvalues --    1.68404   1.68795   1.70899   1.72363   1.73425
 Alpha virt. eigenvalues --    1.75545   1.75722   1.77861   1.79301   1.80241
 Alpha virt. eigenvalues --    1.80948   1.81518   1.81820   1.82631   1.83207
 Alpha virt. eigenvalues --    1.83531   1.85139   1.86232   1.86687   1.87622
 Alpha virt. eigenvalues --    1.88585   1.88776   1.89902   1.90711   1.90999
 Alpha virt. eigenvalues --    1.91623   1.91844   1.93472   1.94301   1.95274
 Alpha virt. eigenvalues --    1.95382   1.95632   1.97258   1.97707   1.98451
 Alpha virt. eigenvalues --    1.98525   1.99597   2.00585   2.01423   2.02312
 Alpha virt. eigenvalues --    2.03206   2.03490   2.03904   2.04543   2.05726
 Alpha virt. eigenvalues --    2.06565   2.07095   2.08328   2.09437   2.10071
 Alpha virt. eigenvalues --    2.11817   2.12111   2.13050   2.13731   2.15134
 Alpha virt. eigenvalues --    2.15841   2.16800   2.17539   2.17917   2.19300
 Alpha virt. eigenvalues --    2.21698   2.22659   2.22949   2.23612   2.26351
 Alpha virt. eigenvalues --    2.28172   2.30614   2.31374   2.33331   2.33765
 Alpha virt. eigenvalues --    2.34964   2.36368   2.38932   2.39953   2.42620
 Alpha virt. eigenvalues --    2.43277   2.44938   2.46622   2.48319   2.48599
 Alpha virt. eigenvalues --    2.49366   2.49873   2.51109   2.52408   2.53593
 Alpha virt. eigenvalues --    2.55031   2.55833   2.56212   2.58024   2.60174
 Alpha virt. eigenvalues --    2.60633   2.62095   2.64154   2.65952   2.66363
 Alpha virt. eigenvalues --    2.66512   2.67120   2.67919   2.68637   2.70243
 Alpha virt. eigenvalues --    2.72581   2.73455   2.74203   2.75331   2.75789
 Alpha virt. eigenvalues --    2.78906   2.81794   2.81821   2.82062   2.83114
 Alpha virt. eigenvalues --    2.83449   2.84333   2.85558   2.87256   2.89534
 Alpha virt. eigenvalues --    2.91240   2.94965   2.99487   3.02049   3.02267
 Alpha virt. eigenvalues --    3.03887   3.05654   3.07906   3.08532   3.10684
 Alpha virt. eigenvalues --    3.14263   3.15300   3.17748   3.20681   3.21957
 Alpha virt. eigenvalues --    3.22546   3.23495   3.24718   3.28028   3.29869
 Alpha virt. eigenvalues --    3.31940   3.36680   3.39321   3.39655   3.43615
 Alpha virt. eigenvalues --    3.45201   3.45460   3.47835   3.48873   3.53335
 Alpha virt. eigenvalues --    3.64113   3.69312   3.95946   4.21765   4.23640
 Alpha virt. eigenvalues --    4.24640   4.27074   4.28762   4.29938   4.30474
 Alpha virt. eigenvalues --    4.31869   4.34094   4.35301   4.39359   4.43743
 Alpha virt. eigenvalues --    4.45808   4.47407   4.52234   4.56264   4.59186
 Alpha virt. eigenvalues --    4.63850   4.64915   4.65323   4.72250   4.73819
 Alpha virt. eigenvalues --    4.79248   4.85456   5.01030
          Condensed to atoms (all electrons):
               1          2          3          4          5          6
     1  C    4.983058   0.037173  -0.115087   0.009502   0.053085   0.064123
     2  O    0.037173   8.534762   0.245918   0.239115   0.110262   0.010637
     3  C   -0.115087   0.245918  14.343110  -2.144896  -2.714989  -3.899610
     4  C    0.009502   0.239115  -2.144896  12.660538   3.898292  -1.536616
     5  C    0.053085   0.110262  -2.714989   3.898292  24.094629  -7.569185
     6  C    0.064123   0.010637  -3.899610  -1.536616  -7.569185  22.172836
     7  C    0.002637  -0.003166  -0.266156  -0.959459  -0.102725  -0.229250
     8  C    0.018811  -0.006049  -0.788231   0.019343  -0.794745  -0.791113
     9  N   -0.000017  -0.000024   0.078632   0.116687   0.033736   0.388115
    10  C   -0.020745  -0.011742   1.216569  -0.474616  -3.496237   2.591627
    11  O   -0.000444   0.000528  -0.046827   0.039017  -0.450024   0.067681
    12  C   -0.002298   0.000509  -0.016983   0.034815   0.628688  -0.257453
    13  C   -0.001292   0.000785  -0.225758  -0.015703  -0.781972   0.186556
    14  O    0.000000  -0.000000   0.000599   0.000669   0.009927  -0.000640
    15  C   -0.000019  -0.000008   0.008926   0.003093   0.054734  -0.089647
    16  C   -0.000079   0.000010  -0.012239  -0.001154  -0.077307   0.035537
    17  C    0.000008   0.000001  -0.001206  -0.001680  -0.030289   0.017014
    18  C   -0.000020   0.000004   0.001188   0.005580   0.014704  -0.000849
    19  S    0.000057   0.000089   0.003751  -0.003918   0.046758   0.008097
    20  C   -0.023237   0.016882  -0.424112   0.490841   0.530696  -1.304298
    21  C   -0.140117  -0.348002   2.293251  -2.018581  -2.666817  -4.121565
    22  C   -0.025110  -0.232001   0.928448  -2.940647  -4.575939  -0.249593
    23  C    0.076753  -0.051617   0.045952  -0.592098  -0.206070  -0.154779
    24  N   -0.004510   0.015439  -0.074632  -0.022467  -0.008788   0.001012
    25  C   -0.023648  -0.057702  -2.077956  -0.463518  -0.653147  -0.303708
    26  N    0.000551   0.000031   0.141234   0.013493   0.026273   0.008267
    27  H    0.406543  -0.038401  -0.139823   0.127465   0.040869   0.016446
    28  H    0.407127  -0.038660  -0.139569   0.128469   0.037437   0.018578
    29  H    0.417249  -0.070560   0.128248  -0.145361  -0.024599  -0.006310
    30  H    0.003326  -0.017303   0.099465   0.330181  -0.035062  -0.191643
    31  H   -0.000018  -0.000001  -0.001791  -0.025775   0.068052  -0.137482
    32  H    0.000004   0.000000  -0.003694  -0.031378   0.006893  -0.064734
    33  H   -0.000008  -0.000001   0.002610   0.004023   0.057307  -0.190135
    34  H   -0.000014   0.000003  -0.005189  -0.000972  -0.027327   0.000147
    35  H   -0.000017   0.000000  -0.002440  -0.000344  -0.026813   0.013104
    36  H   -0.000000  -0.000000   0.000004   0.000030   0.000694  -0.000311
    37  H    0.000000  -0.000000   0.000001   0.000001   0.000063  -0.000072
    38  H   -0.000000  -0.000000  -0.000007  -0.000037  -0.000064  -0.000144
    39  H    0.000257  -0.000662   0.010749   0.009155   0.050899   0.005084
               7          8          9         10         11         12
     1  C    0.002637   0.018811  -0.000017  -0.020745  -0.000444  -0.002298
     2  O   -0.003166  -0.006049  -0.000024  -0.011742   0.000528   0.000509
     3  C   -0.266156  -0.788231   0.078632   1.216569  -0.046827  -0.016983
     4  C   -0.959459   0.019343   0.116687  -0.474616   0.039017   0.034815
     5  C   -0.102725  -0.794745   0.033736  -3.496237  -0.450024   0.628688
     6  C   -0.229250  -0.791113   0.388115   2.591627   0.067681  -0.257453
     7  C    7.623098  -0.002081  -0.083403  -0.128754  -0.041146   0.209496
     8  C   -0.002081  11.218732  -0.476746  -1.199716  -0.030344   0.014630
     9  N   -0.083403  -0.476746   7.325447   0.082853   0.000108   0.000143
    10  C   -0.128754  -1.199716   0.082853   8.518661   0.362375   0.039810
    11  O   -0.041146  -0.030344   0.000108   0.362375   8.705166  -0.393802
    12  C    0.209496   0.014630   0.000143   0.039810  -0.393802  11.345104
    13  C   -0.316881  -0.038340   0.000761  -0.795250   0.192815  -5.717791
    14  O   -0.004316  -0.000149  -0.000001  -0.010868   0.014124   0.171987
    15  C    0.135278   0.001815   0.000015   0.204493   0.147481   0.955123
    16  C   -0.061439  -0.016492   0.000188  -0.068694  -0.039741  -1.284279
    17  C   -0.003987   0.004640  -0.000045   0.022663   0.005363  -0.227692
    18  C   -0.016344  -0.006039   0.000016  -0.039883   0.002377  -0.091140
    19  S   -0.007585   0.019409  -0.000382  -0.015643  -0.009581   0.257410
    20  C   -0.225723  -0.088529  -0.001407  -0.133963  -0.139811  -0.453371
    21  C   -0.330167  -0.556479   0.022857  -0.350703   0.052422  -0.155706
    22  C   -0.105882  -0.185627   0.004801   0.328636   0.007065  -0.132799
    23  C    0.008617  -0.006966  -0.000451  -0.202064  -0.010706  -0.027317
    24  N   -0.000138  -0.000002   0.000004   0.004971   0.000030   0.000359
    25  C   -0.003391  -0.043312   0.000387  -0.373182  -0.006312   0.054039
    26  N   -0.000035   0.000535  -0.000001   0.025411   0.000081  -0.008514
    27  H    0.000745   0.001545   0.000157  -0.004072   0.000002  -0.000044
    28  H    0.000601   0.002358   0.000144  -0.003496   0.000002  -0.000040
    29  H   -0.000153  -0.000167  -0.000003   0.001651  -0.000000   0.000018
    30  H   -0.007400   0.057235   0.000761  -0.000416  -0.000778   0.000869
    31  H    0.484055  -0.019125  -0.000139  -0.009290  -0.002861   0.000750
    32  H    0.460144  -0.006508  -0.000467   0.002295  -0.000951  -0.007535
    33  H    0.495896  -0.015216   0.002572  -0.005205  -0.000319  -0.000461
    34  H   -0.001287  -0.000095   0.000000  -0.068291  -0.041714   0.071070
    35  H   -0.003175  -0.000203   0.000000  -0.006602  -0.036190   0.371035
    36  H    0.000298  -0.000011  -0.000000  -0.000420   0.000069   0.017931
    37  H    0.000072  -0.000005   0.000000   0.000030   0.000001   0.002443
    38  H    0.000079  -0.000021   0.000000   0.000194  -0.000020  -0.001726
    39  H    0.000468  -0.000227   0.000003   0.001458  -0.020464   0.041534
              13         14         15         16         17         18
     1  C   -0.001292   0.000000  -0.000019  -0.000079   0.000008  -0.000020
     2  O    0.000785  -0.000000  -0.000008   0.000010   0.000001   0.000004
     3  C   -0.225758   0.000599   0.008926  -0.012239  -0.001206   0.001188
     4  C   -0.015703   0.000669   0.003093  -0.001154  -0.001680   0.005580
     5  C   -0.781972   0.009927   0.054734  -0.077307  -0.030289   0.014704
     6  C    0.186556  -0.000640  -0.089647   0.035537   0.017014  -0.000849
     7  C   -0.316881  -0.004316   0.135278  -0.061439  -0.003987  -0.016344
     8  C   -0.038340  -0.000149   0.001815  -0.016492   0.004640  -0.006039
     9  N    0.000761  -0.000001   0.000015   0.000188  -0.000045   0.000016
    10  C   -0.795250  -0.010868   0.204493  -0.068694   0.022663  -0.039883
    11  O    0.192815   0.014124   0.147481  -0.039741   0.005363   0.002377
    12  C   -5.717791   0.171987   0.955123  -1.284279  -0.227692  -0.091140
    13  C   14.175719   0.282409  -4.408665   2.412748   0.002836   0.210081
    14  O    0.282409   8.168522  -0.196476  -0.046814   0.015139  -0.002406
    15  C   -4.408665  -0.196476  15.923183  -7.542699   1.147379  -1.039929
    16  C    2.412748  -0.046814  -7.542699  13.833312  -1.569729   1.087920
    17  C    0.002836   0.015139   1.147379  -1.569729   6.170576   0.093552
    18  C    0.210081  -0.002406  -1.039929   1.087920   0.093552   5.555212
    19  S   -0.367271   0.010532   1.071632  -1.331075   0.345267   0.009191
    20  C    0.492527  -0.001938  -0.156935   0.098290  -0.010225   0.013983
    21  C    0.544700  -0.003229  -0.037597   0.035020   0.001620   0.003607
    22  C    0.074202   0.000323  -0.014091   0.004179  -0.000463   0.002482
    23  C    0.010128  -0.000000  -0.001005   0.000429  -0.000044   0.000090
    24  N    0.000002  -0.000000  -0.000010  -0.000001   0.000000  -0.000000
    25  C    0.034232  -0.000315   0.004031   0.000147   0.000225  -0.000524
    26  N   -0.003587   0.000013  -0.000072  -0.000054   0.000002   0.000003
    27  H   -0.000000  -0.000000  -0.000002  -0.000000   0.000000   0.000000
    28  H   -0.000001   0.000000   0.000002   0.000000  -0.000000  -0.000000
    29  H    0.000000   0.000000   0.000000   0.000000  -0.000000   0.000000
    30  H    0.000311  -0.000000  -0.000047  -0.000003   0.000001  -0.000004
    31  H   -0.004602   0.000103   0.007741  -0.000196   0.000490  -0.000027
    32  H    0.004047  -0.000075  -0.004097   0.001698  -0.001421  -0.000931
    33  H    0.001090   0.000009  -0.001849   0.000517   0.000106  -0.000184
    34  H    0.315637  -0.004823   0.018416   0.007636   0.001470   0.000481
    35  H   -0.028728   0.003839   0.001721   0.007547  -0.000007  -0.000910
    36  H   -0.025953  -0.000928   0.068221   0.308947  -0.065903  -0.006847
    37  H   -0.015877   0.000072   0.045231  -0.050754   0.334267  -0.020441
    38  H    0.001168   0.000032  -0.029272   0.041914  -0.027518   0.342071
    39  H   -0.016234   0.000130  -0.001277  -0.001872   0.000004   0.000054
              19         20         21         22         23         24
     1  C    0.000057  -0.023237  -0.140117  -0.025110   0.076753  -0.004510
     2  O    0.000089   0.016882  -0.348002  -0.232001  -0.051617   0.015439
     3  C    0.003751  -0.424112   2.293251   0.928448   0.045952  -0.074632
     4  C   -0.003918   0.490841  -2.018581  -2.940647  -0.592098  -0.022467
     5  C    0.046758   0.530696  -2.666817  -4.575939  -0.206070  -0.008788
     6  C    0.008097  -1.304298  -4.121565  -0.249593  -0.154779   0.001012
     7  C   -0.007585  -0.225723  -0.330167  -0.105882   0.008617  -0.000138
     8  C    0.019409  -0.088529  -0.556479  -0.185627  -0.006966  -0.000002
     9  N   -0.000382  -0.001407   0.022857   0.004801  -0.000451   0.000004
    10  C   -0.015643  -0.133963  -0.350703   0.328636  -0.202064   0.004971
    11  O   -0.009581  -0.139811   0.052422   0.007065  -0.010706   0.000030
    12  C    0.257410  -0.453371  -0.155706  -0.132799  -0.027317   0.000359
    13  C   -0.367271   0.492527   0.544700   0.074202   0.010128   0.000002
    14  O    0.010532  -0.001938  -0.003229   0.000323  -0.000000  -0.000000
    15  C    1.071632  -0.156935  -0.037597  -0.014091  -0.001005  -0.000010
    16  C   -1.331075   0.098290   0.035020   0.004179   0.000429  -0.000001
    17  C    0.345267  -0.010225   0.001620  -0.000463  -0.000044   0.000000
    18  C    0.009191   0.013983   0.003607   0.002482   0.000090  -0.000000
    19  S   16.033763  -0.056016  -0.015495  -0.002662  -0.001207   0.000003
    20  C   -0.056016   7.386765   1.347233  -0.538812  -1.582183   0.070182
    21  C   -0.015495   1.347233  16.615565  -3.130167  -1.109651   0.078432
    22  C   -0.002662  -0.538812  -3.130167  18.909911  -2.223887   0.473185
    23  C   -0.001207  -1.582183  -1.109651  -2.223887  13.407521  -0.320130
    24  N    0.000003   0.070182   0.078432   0.473185  -0.320130   7.320410
    25  C   -0.000304   0.622708  -0.255724  -1.789470  -0.958017  -0.016170
    26  N   -0.000008   0.002177   0.043895   0.279472  -0.021516   0.000743
    27  H    0.000002  -0.000138  -0.033389  -0.021785   0.002702  -0.000346
    28  H   -0.000002  -0.001077  -0.037855  -0.019726   0.004257  -0.000354
    29  H   -0.000000  -0.000088   0.026396   0.044124  -0.010184   0.002766
    30  H   -0.000053   0.005675   0.067242  -0.006045   0.002151  -0.000017
    31  H   -0.000809  -0.002588  -0.004372  -0.001151   0.000022  -0.000000
    32  H    0.005010   0.000058  -0.005204  -0.000682   0.000025  -0.000000
    33  H    0.000924   0.000651   0.000907  -0.000020   0.000004  -0.000000
    34  H   -0.004211   0.034017   0.022305   0.011646   0.001227   0.000000
    35  H    0.003117   0.011002  -0.001154   0.000307  -0.001574   0.000001
    36  H    0.014222  -0.000136  -0.000015   0.000001   0.000000   0.000000
    37  H    0.018610  -0.000028  -0.000002  -0.000000   0.000000   0.000000
    38  H    0.001863   0.000026   0.000004  -0.000002   0.000000  -0.000000
    39  H    0.002667   0.336869  -0.035780  -0.161660  -0.003905  -0.000087
              25         26         27         28         29         30
     1  C   -0.023648   0.000551   0.406543   0.407127   0.417249   0.003326
     2  O   -0.057702   0.000031  -0.038401  -0.038660  -0.070560  -0.017303
     3  C   -2.077956   0.141234  -0.139823  -0.139569   0.128248   0.099465
     4  C   -0.463518   0.013493   0.127465   0.128469  -0.145361   0.330181
     5  C   -0.653147   0.026273   0.040869   0.037437  -0.024599  -0.035062
     6  C   -0.303708   0.008267   0.016446   0.018578  -0.006310  -0.191643
     7  C   -0.003391  -0.000035   0.000745   0.000601  -0.000153  -0.007400
     8  C   -0.043312   0.000535   0.001545   0.002358  -0.000167   0.057235
     9  N    0.000387  -0.000001   0.000157   0.000144  -0.000003   0.000761
    10  C   -0.373182   0.025411  -0.004072  -0.003496   0.001651  -0.000416
    11  O   -0.006312   0.000081   0.000002   0.000002  -0.000000  -0.000778
    12  C    0.054039  -0.008514  -0.000044  -0.000040   0.000018   0.000869
    13  C    0.034232  -0.003587  -0.000000  -0.000001   0.000000   0.000311
    14  O   -0.000315   0.000013  -0.000000   0.000000   0.000000  -0.000000
    15  C    0.004031  -0.000072  -0.000002   0.000002   0.000000  -0.000047
    16  C    0.000147  -0.000054  -0.000000   0.000000   0.000000  -0.000003
    17  C    0.000225   0.000002   0.000000  -0.000000  -0.000000   0.000001
    18  C   -0.000524   0.000003   0.000000  -0.000000   0.000000  -0.000004
    19  S   -0.000304  -0.000008   0.000002  -0.000002  -0.000000  -0.000053
    20  C    0.622708   0.002177  -0.000138  -0.001077  -0.000088   0.005675
    21  C   -0.255724   0.043895  -0.033389  -0.037855   0.026396   0.067242
    22  C   -1.789470   0.279472  -0.021785  -0.019726   0.044124  -0.006045
    23  C   -0.958017  -0.021516   0.002702   0.004257  -0.010184   0.002151
    24  N   -0.016170   0.000743  -0.000346  -0.000354   0.002766  -0.000017
    25  C   13.082171  -0.341435  -0.001315  -0.001325   0.002970  -0.000107
    26  N   -0.341435   7.313177   0.000002   0.000002  -0.000004   0.000002
    27  H   -0.001315   0.000002   0.553360  -0.040357  -0.026422  -0.000491
    28  H   -0.001325   0.000002  -0.040357   0.554730  -0.026543  -0.000586
    29  H    0.002970  -0.000004  -0.026422  -0.026543   0.516517   0.000123
    30  H   -0.000107   0.000002  -0.000491  -0.000586   0.000123   0.543931
    31  H    0.000007   0.000000   0.000000  -0.000000  -0.000000  -0.000008
    32  H   -0.000013   0.000000  -0.000000   0.000000  -0.000000  -0.000008
    33  H   -0.000004   0.000000   0.000000   0.000000  -0.000000  -0.000001
    34  H    0.001455   0.000034  -0.000000   0.000000   0.000000   0.000000
    35  H    0.002971  -0.000046   0.000000  -0.000000   0.000000   0.000000
    36  H   -0.000000   0.000000  -0.000000  -0.000000   0.000000  -0.000000
    37  H   -0.000000   0.000000   0.000000  -0.000000  -0.000000  -0.000000
    38  H    0.000001  -0.000000  -0.000000  -0.000000  -0.000000   0.000000
    39  H    0.087144   0.001340   0.000000  -0.000000  -0.000000   0.000010
              31         32         33         34         35         36
     1  C   -0.000018   0.000004  -0.000008  -0.000014  -0.000017  -0.000000
     2  O   -0.000001   0.000000  -0.000001   0.000003   0.000000  -0.000000
     3  C   -0.001791  -0.003694   0.002610  -0.005189  -0.002440   0.000004
     4  C   -0.025775  -0.031378   0.004023  -0.000972  -0.000344   0.000030
     5  C    0.068052   0.006893   0.057307  -0.027327  -0.026813   0.000694
     6  C   -0.137482  -0.064734  -0.190135   0.000147   0.013104  -0.000311
     7  C    0.484055   0.460144   0.495896  -0.001287  -0.003175   0.000298
     8  C   -0.019125  -0.006508  -0.015216  -0.000095  -0.000203  -0.000011
     9  N   -0.000139  -0.000467   0.002572   0.000000   0.000000  -0.000000
    10  C   -0.009290   0.002295  -0.005205  -0.068291  -0.006602  -0.000420
    11  O   -0.002861  -0.000951  -0.000319  -0.041714  -0.036190   0.000069
    12  C    0.000750  -0.007535  -0.000461   0.071070   0.371035   0.017931
    13  C   -0.004602   0.004047   0.001090   0.315637  -0.028728  -0.025953
    14  O    0.000103  -0.000075   0.000009  -0.004823   0.003839  -0.000928
    15  C    0.007741  -0.004097  -0.001849   0.018416   0.001721   0.068221
    16  C   -0.000196   0.001698   0.000517   0.007636   0.007547   0.308947
    17  C    0.000490  -0.001421   0.000106   0.001470  -0.000007  -0.065903
    18  C   -0.000027  -0.000931  -0.000184   0.000481  -0.000910  -0.006847
    19  S   -0.000809   0.005010   0.000924  -0.004211   0.003117   0.014222
    20  C   -0.002588   0.000058   0.000651   0.034017   0.011002  -0.000136
    21  C   -0.004372  -0.005204   0.000907   0.022305  -0.001154  -0.000015
    22  C   -0.001151  -0.000682  -0.000020   0.011646   0.000307   0.000001
    23  C    0.000022   0.000025   0.000004   0.001227  -0.001574   0.000000
    24  N   -0.000000  -0.000000  -0.000000   0.000000   0.000001   0.000000
    25  C    0.000007  -0.000013  -0.000004   0.001455   0.002971  -0.000000
    26  N    0.000000   0.000000   0.000000   0.000034  -0.000046   0.000000
    27  H    0.000000  -0.000000   0.000000  -0.000000   0.000000  -0.000000
    28  H   -0.000000   0.000000   0.000000   0.000000  -0.000000  -0.000000
    29  H   -0.000000  -0.000000  -0.000000   0.000000   0.000000   0.000000
    30  H   -0.000008  -0.000008  -0.000001   0.000000   0.000000  -0.000000
    31  H    0.515262  -0.024445  -0.026138  -0.000044  -0.000004  -0.000000
    32  H   -0.024445   0.511353  -0.026318   0.000005  -0.000016   0.000000
    33  H   -0.026138  -0.026318   0.533068   0.000000   0.000000  -0.000000
    34  H   -0.000044   0.000005   0.000000   0.526144  -0.038551  -0.000001
    35  H   -0.000004  -0.000016   0.000000  -0.038551   0.566917  -0.000005
    36  H   -0.000000   0.000000  -0.000000  -0.000001  -0.000005   0.522114
    37  H   -0.000000   0.000000  -0.000000  -0.000000   0.000000  -0.002551
    38  H    0.000000   0.000001   0.000000   0.000000  -0.000001  -0.000094
    39  H    0.000002   0.000001  -0.000000  -0.000342  -0.000593   0.000000
              37         38         39
     1  C    0.000000  -0.000000   0.000257
     2  O   -0.000000  -0.000000  -0.000662
     3  C    0.000001  -0.000007   0.010749
     4  C    0.000001  -0.000037   0.009155
     5  C    0.000063  -0.000064   0.050899
     6  C   -0.000072  -0.000144   0.005084
     7  C    0.000072   0.000079   0.000468
     8  C   -0.000005  -0.000021  -0.000227
     9  N    0.000000   0.000000   0.000003
    10  C    0.000030   0.000194   0.001458
    11  O    0.000001  -0.000020  -0.020464
    12  C    0.002443  -0.001726   0.041534
    13  C   -0.015877   0.001168  -0.016234
    14  O    0.000072   0.000032   0.000130
    15  C    0.045231  -0.029272  -0.001277
    16  C   -0.050754   0.041914  -0.001872
    17  C    0.334267  -0.027518   0.000004
    18  C   -0.020441   0.342071   0.000054
    19  S    0.018610   0.001863   0.002667
    20  C   -0.000028   0.000026   0.336869
    21  C   -0.000002   0.000004  -0.035780
    22  C   -0.000000  -0.000002  -0.161660
    23  C    0.000000   0.000000  -0.003905
    24  N    0.000000  -0.000000  -0.000087
    25  C   -0.000000   0.000001   0.087144
    26  N    0.000000  -0.000000   0.001340
    27  H    0.000000  -0.000000   0.000000
    28  H   -0.000000  -0.000000  -0.000000
    29  H   -0.000000  -0.000000  -0.000000
    30  H   -0.000000   0.000000   0.000010
    31  H   -0.000000   0.000000   0.000002
    32  H    0.000000   0.000001   0.000001
    33  H   -0.000000   0.000000  -0.000000
    34  H   -0.000000   0.000000  -0.000342
    35  H    0.000000  -0.000001  -0.000593
    36  H   -0.002551  -0.000094   0.000000
    37  H    0.542323  -0.002959   0.000000
    38  H   -0.002959   0.501649  -0.000000
    39  H    0.000000  -0.000000   0.544714
 Mulliken charges:
               1
     1  C   -0.123581
     2  O   -0.336249
     3  C   -0.447458
     4  C   -0.751089
     5  C    0.478104
     6  C    1.494278
     7  C   -0.517441
     8  C   -0.286517
     9  N   -0.495299
    10  C    0.016153
    11  O   -0.324670
    12  C    0.561191
    13  C   -0.178851
    14  O   -0.405451
    15  C   -0.274817
    16  C    0.228580
    17  C   -0.222414
    18  C   -0.116121
    19  S   -0.036153
    20  C   -0.315967
    21  C    0.202312
    22  C    1.289435
    23  C   -0.074505
    24  N   -0.519888
    25  C   -0.521890
    26  N   -0.481467
    27  H    0.156749
    28  H    0.155884
    29  H    0.170330
    30  H    0.148688
    31  H    0.184382
    32  H    0.186942
    33  H    0.166174
    34  H    0.181170
    35  H    0.165812
    36  H    0.170644
    37  H    0.149575
    38  H    0.172863
    39  H    0.150561
 Sum of Mulliken charges =  -0.00000
 Mulliken charges with hydrogens summed into heavy atoms:
               1
     1  C    0.359382
     2  O   -0.336249
     3  C   -0.447458
     4  C   -0.602401
     5  C    0.478104
     6  C    1.494278
     7  C    0.020056
     8  C   -0.286517
     9  N   -0.495299
    10  C    0.016153
    11  O   -0.324670
    12  C    0.908174
    13  C   -0.178851
    14  O   -0.405451
    15  C   -0.274817
    16  C    0.399225
    17  C   -0.072839
    18  C    0.056742
    19  S   -0.036153
    20  C   -0.165406
    21  C    0.202312
    22  C    1.289435
    23  C   -0.074505
    24  N   -0.519888
    25  C   -0.521890
    26  N   -0.481467
 Electronic spatial extent (au):  <R**2>=          11475.2476
 Charge=             -0.0000 electrons
 Dipole moment (field-independent basis, Debye):
    X=             -6.4113    Y=              4.0611    Z=              2.0570  Tot=              7.8631
 Quadrupole moment (field-independent basis, Debye-Ang):
   XX=           -160.7321   YY=           -198.4135   ZZ=           -157.9180
   XY=             15.9827   XZ=            -14.4563   YZ=             -0.3421
 Traceless Quadrupole moment (field-independent basis, Debye-Ang):
   XX=             11.6224   YY=            -26.0590   ZZ=             14.4365
   XY=             15.9827   XZ=            -14.4563   YZ=             -0.3421
 Octapole moment (field-independent basis, Debye-Ang**2):
  XXX=           -320.9190  YYY=            -24.0120  ZZZ=             24.5566  XYY=            -63.9355
  XXY=            166.3663  XXZ=             38.1105  XZZ=             -9.1301  YZZ=             21.8876
  YYZ=             10.6587  XYZ=             25.6615
 Hexadecapole moment (field-independent basis, Debye-Ang**3):
 XXXX=         -11042.6327 YYYY=          -5506.4797 ZZZZ=           -927.0654 XXXY=            779.4422
 XXXZ=           -393.0252 YYYX=            149.1705 YYYZ=             17.0774 ZZZX=           -101.7300
 ZZZY=              5.7625 XXYY=          -2703.9767 XXZZ=          -1950.7941 YYZZ=           -871.9470
 XXYZ=             95.2442 YYXZ=             13.7622 ZZXY=            -44.8220
 N-N= 2.248236160355D+03 E-N=-8.046881818681D+03  KE= 1.508067369248D+03
 Unable to Open any file for archive entry.
 1\1\GINC-N2\SP\RB3LYP TD-FC\6-31+G(d,p)\C19H13N3O3S1\HPCMGAC13\27-Aug-
 2025\0\\# td=(50-50,nstates=3) b3lyp/6-31+g(d,p) geom=connectivity\\Ti
 tle Card Required\\0,1\C,0,4.852641,2.050524,0.590369\O,0,4.295502,0.7
 4415,0.431196\C,0,2.990001,0.607688,0.134985\C,0,2.116518,1.639739,-0.
 032888\C,0,0.719068,1.451207,-0.362964\C,0,-0.100548,2.545495,-0.58144
 6\C,0,-1.561065,2.561984,-0.979504\C,0,0.477249,3.844989,-0.431988\N,0
 ,0.912331,4.921326,-0.315759\C,0,0.273737,0.056901,-0.462073\O,0,-1.04
 7669,-0.119508,-0.704805\C,0,-1.553721,-1.450698,-0.881928\C,0,-3.0681
 01,-1.361644,-1.104798\O,0,-3.540127,-1.805443,-2.143097\C,0,-3.924123
 ,-0.791925,-0.054347\C,0,-5.299265,-0.664585,-0.135898\C,0,-5.882442,-
 0.13024,1.039631\C,0,-4.948522,0.141302,2.013568\S,0,-3.345661,-0.2398
 34,1.505549\C,0,1.152207,-0.977217,-0.307973\C,0,2.544015,-0.776845,-0
 .008829\C,0,3.391653,-1.872422,0.137555\C,0,4.787237,-1.837323,0.43961
 9\N,0,5.923273,-1.931652,0.681398\C,0,2.864732,-3.193429,-0.01579\N,0,
 2.411607,-4.25986,-0.1423\H,0,4.758353,2.628782,-0.335531\H,0,4.365826
 ,2.582867,1.415159\H,0,5.904549,1.887743,0.821895\H,0,2.467987,2.65788
 4,0.065687\H,0,-1.733426,1.966761,-1.879656\H,0,-2.190932,2.14184,-0.1
 89942\H,0,-1.88176,3.587398,-1.169734\H,0,-1.109046,-1.915631,-1.76627
 9\H,0,-1.335264,-2.058904,0.00669\H,0,-5.846328,-0.960875,-1.02289\H,0
 ,-6.944122,0.044353,1.167835\H,0,-5.116185,0.55055,3.001129\H,0,0.8111
 84,-1.998715,-0.40469\\Version=ES64L-G16RevC.02\State=1-A\HF=-1519.897
 8726\RMSD=6.510e-09\PG=C01 [X(C19H13N3O3S1)]\\@
 The archive entry for this job was punched.


 EDUCATION IS NOT TRAINING BUT RATHER THE PROCESS THAT EQUIPS YOU TO
 ENTERTAIN YOURSELF, A FRIEND, OR AN IDEA.  -- WALLACE STERLING
 Job cpu time:       0 days  1 hours 51 minutes 21.6 seconds.
 Elapsed time:       0 days  0 hours  7 minutes  9.6 seconds.
 File lengths (MBytes):  RWF=   1669 Int=      0 D2E=      0 Chk=     81 Scr=      2
 Normal termination of Gaussian 16 at Wed Aug 27 08:47:32 2025.
