 Entering Gaussian System, Link 0=g16
 Input=M661e.gjf
 Output=M661e.log
 Initial command:
 /hpc/softwares/Gaussian/g16/l1.exe "/hpc/home/hpcmgac13/pbs.13545.admin1.x8z/Gau-553110.inp" -scrdir="/hpc/home/hpcmgac13/pbs.13545.admin1.x8z/"
 Default linda workers: n1
 Default is to use  16 SMP processors on each worker.
 Entering Link 1 = /hpc/softwares/Gaussian/g16/l1.exe PID=    553111.
  
 Copyright (c) 1988-2021, Gaussian, Inc.  All Rights Reserved.
  
 This is part of the Gaussian(R) 16 program.  It is based on
 the Gaussian(R) 09 system (copyright 2009, Gaussian, Inc.),
 the Gaussian(R) 03 system (copyright 2003, Gaussian, Inc.),
 the Gaussian(R) 98 system (copyright 1998, Gaussian, Inc.),
 the Gaussian(R) 94 system (copyright 1995, Gaussian, Inc.),
 the Gaussian 92(TM) system (copyright 1992, Gaussian, Inc.),
 the Gaussian 90(TM) system (copyright 1990, Gaussian, Inc.),
 the Gaussian 88(TM) system (copyright 1988, Gaussian, Inc.),
 the Gaussian 86(TM) system (copyright 1986, Carnegie Mellon
 University), and the Gaussian 82(TM) system (copyright 1983,
 Carnegie Mellon University). Gaussian is a federally registered
 trademark of Gaussian, Inc.
  
 This software contains proprietary and confidential information,
 including trade secrets, belonging to Gaussian, Inc.
  
 This software is provided under written license and may be
 used, copied, transmitted, or stored only in accord with that
 written license.
  
 The following legend is applicable only to US Government
 contracts under FAR:
  
                    RESTRICTED RIGHTS LEGEND
  
 Use, reproduction and disclosure by the US Government is
 subject to restrictions as set forth in subparagraphs (a)
 and (c) of the Commercial Computer Software - Restricted
 Rights clause in FAR 52.227-19.
  
 Gaussian, Inc.
 340 Quinnipiac St., Bldg. 40, Wallingford CT 06492
  
  
 ---------------------------------------------------------------
 Warning -- This program may not be used in any manner that
 competes with the business of Gaussian, Inc. or will provide
 assistance to any competitor of Gaussian, Inc.  The licensee
 of this program is prohibited from giving any competitor of
 Gaussian, Inc. access to this program.  By using this program,
 the user acknowledges that Gaussian, Inc. is engaged in the
 business of creating and licensing software in the field of
 computational chemistry and represents and warrants to the
 licensee that it is not a competitor of Gaussian, Inc. and that
 it will not use this program in any manner prohibited above.
 ---------------------------------------------------------------
  

 Cite this work as:
 Gaussian 16, Revision C.02,
 M. J. Frisch, G. W. Trucks, H. B. Schlegel, G. E. Scuseria, 
 M. A. Robb, J. R. Cheeseman, G. Scalmani, V. Barone, 
 G. A. Petersson, H. Nakatsuji, X. Li, M. Caricato, A. V. Marenich, 
 J. Bloino, B. G. Janesko, R. Gomperts, B. Mennucci, H. P. Hratchian, 
 J. V. Ortiz, A. F. Izmaylov, J. L. Sonnenberg, D. Williams-Young, 
 F. Ding, F. Lipparini, F. Egidi, J. Goings, B. Peng, A. Petrone, 
 T. Henderson, D. Ranasinghe, V. G. Zakrzewski, J. Gao, N. Rega, 
 G. Zheng, W. Liang, M. Hada, M. Ehara, K. Toyota, R. Fukuda, 
 J. Hasegawa, M. Ishida, T. Nakajima, Y. Honda, O. Kitao, H. Nakai, 
 T. Vreven, K. Throssell, J. A. Montgomery, Jr., J. E. Peralta, 
 F. Ogliaro, M. J. Bearpark, J. J. Heyd, E. N. Brothers, K. N. Kudin, 
 V. N. Staroverov, T. A. Keith, R. Kobayashi, J. Normand, 
 K. Raghavachari, A. P. Rendell, J. C. Burant, S. S. Iyengar, 
 J. Tomasi, M. Cossi, J. M. Millam, M. Klene, C. Adamo, R. Cammi, 
 J. W. Ochterski, R. L. Martin, K. Morokuma, O. Farkas, 
 J. B. Foresman, and D. J. Fox, Gaussian, Inc., Wallingford CT, 2019.
 
 ******************************************
 Gaussian 16:  ES64L-G16RevC.02  7-Dec-2021
                27-Aug-2025 
 ******************************************
 SetLPE:    new flags="-opt 'Tsnet.Node.lindarsharg: ssh'  -nodelist 'n1' -env GAUSS_MDEF=2147483648 -env GAUSS_EXEDIR="/hpc/softwares/Gaussian/g16/bsd:/hpc/softwares/Gaussian/g16""
 Will use up to    1 processors via Linda.
 ----------------------------------------------------------
 # td=(50-50,nstates=3) b3lyp/6-31+g(d,p) geom=connectivity
 ----------------------------------------------------------
 1/38=1,57=2,172=1/1;
 2/12=2,17=6,18=5,40=1/2;
 3/5=1,6=6,7=111,11=9,25=1,30=1,74=-5/1,2,3,8;
 4//1;
 5/5=2,38=5/2;
 8/6=1,10=2,108=3/1;
 9/41=3,42=1,48=2,70=2/14;
 6/7=2,8=2,9=2,10=2/1;
 99/5=1,9=1/99;
 -------------------
 Title Card Required
 -------------------
 Symbolic Z-matrix:
 Charge =  0 Multiplicity = 1
 C                     1.77582  -2.05086   0.93742 
 C                     1.81829  -0.88235   0.26688 
 C                     3.03564  -0.47015  -0.38491 
 N                     4.01912  -0.15786  -0.92029 
 C                     0.67294   0.03723   0.17348 
 C                    -0.65638  -0.196    -0.00084 
 C                    -1.38819  -1.50014  -0.21067 
 C                    -2.29368  -1.83145   0.99451 
 C                    -2.19598  -1.47829  -1.52518 
 C                    -1.29003   1.12693   0.00762 
 O                    -2.45611   1.45319  -0.08879 
 C                    -0.12312   2.13879   0.17908 
 O                    -0.12858   3.32961   0.24133 
 O                     1.03729   1.37884   0.26572 
 H                     0.88564  -2.35826   1.47318 
 H                     2.64243  -2.70125   0.97559 
 H                    -0.63587  -2.29225  -0.30016 
 H                    -2.78812  -2.79596   0.83883 
 H                    -1.72203  -1.88961   1.92739 
 H                    -3.06863  -1.06932   1.11993 
 H                    -2.67294  -2.45133  -1.68204 
 H                    -1.54886  -1.27721  -2.38507 
 H                    -2.97808  -0.71514  -1.49606 
 
                          Input orientation:                          
 ---------------------------------------------------------------------
 Center     Atomic      Atomic             Coordinates (Angstroms)
 Number     Number       Type             X           Y           Z
 ---------------------------------------------------------------------
      1          6           0        1.775819   -2.050861    0.937418
      2          6           0        1.818286   -0.882349    0.266883
      3          6           0        3.035637   -0.470149   -0.384914
      4          7           0        4.019121   -0.157858   -0.920286
      5          6           0        0.672935    0.037225    0.173484
      6          6           0       -0.656376   -0.196000   -0.000844
      7          6           0       -1.388189   -1.500144   -0.210674
      8          6           0       -2.293681   -1.831446    0.994508
      9          6           0       -2.195981   -1.478289   -1.525176
     10          6           0       -1.290025    1.126926    0.007622
     11          8           0       -2.456114    1.453194   -0.088785
     12          6           0       -0.123122    2.138786    0.179076
     13          8           0       -0.128581    3.329610    0.241327
     14          8           0        1.037293    1.378835    0.265722
     15          1           0        0.885639   -2.358257    1.473184
     16          1           0        2.642433   -2.701246    0.975592
     17          1           0       -0.635866   -2.292255   -0.300156
     18          1           0       -2.788119   -2.795963    0.838832
     19          1           0       -1.722030   -1.889606    1.927390
     20          1           0       -3.068627   -1.069315    1.119928
     21          1           0       -2.672944   -2.451327   -1.682036
     22          1           0       -1.548856   -1.277209   -2.385074
     23          1           0       -2.978084   -0.715143   -1.496059
 ---------------------------------------------------------------------
                    Distance matrix (angstroms):
                    1          2          3          4          5
     1  C    0.000000
     2  C    1.347902   0.000000
     3  C    2.415441   1.441073   0.000000
     4  N    3.473748   2.603446   1.162493   0.000000
     5  C    2.481945   1.471791   2.480241   3.525812   0.000000
     6  C    3.199440   2.581996   3.722046   4.765197   1.360828
     7  C    3.410623   3.300184   4.545491   5.616430   2.599868
     8  C    4.075811   4.282347   5.670764   6.805792   3.600947
     9  C    4.708227   4.436323   5.448520   6.382548   3.662364
    10  C    4.512455   3.710256   4.627752   5.540642   2.251260
    11  O    5.589343   4.883826   5.826343   6.724251   3.444518
    12  C    4.661995   3.592218   4.135503   4.862237   2.247287
    13  O    5.749848   4.640209   4.984237   5.542130   3.389223
    14  O    3.572032   2.392259   2.799187   3.557996   1.393263
    15  H    1.083493   2.122097   3.411740   4.515436   2.733642
    16  H    1.084195   2.118932   2.642609   3.458099   3.467207
    17  H    2.721412   2.886560   4.099657   5.158402   2.713627
    18  H    4.625411   5.020758   6.389296   7.509501   4.522006
    19  H    3.638818   4.038030   5.476952   6.638450   3.539028
    20  H    4.946251   4.964329   6.315504   7.431648   4.014906
    21  H    5.178166   5.141121   6.180250   7.115054   4.564072
    22  H    4.763502   4.304235   5.066514   5.865230   3.634599
    23  H    5.505047   5.112836   6.120417   7.042937   4.084528
                    6          7          8          9         10
     6  C    0.000000
     7  C    1.510090   0.000000
     8  C    2.519162   1.543418   0.000000
     9  C    2.517585   1.543023   2.546188   0.000000
    10  C    1.466873   2.637951   3.276162   3.155530   0.000000
    11  O    2.442669   3.142853   3.462480   3.274825   1.214705
    12  C    2.401657   3.872223   4.597717   4.503826   1.554001
    13  O    3.573114   5.011730   5.647251   5.523637   2.501077
    14  O    2.328020   3.794527   4.683206   4.671674   2.355097
    15  H    3.037421   2.956692   3.258026   4.388723   4.362097
    16  H    4.255799   4.369873   5.012198   5.582089   5.572799
    17  H    2.117615   1.096101   2.153335   2.144102   3.494775
    18  H    3.465428   2.177249   1.094987   2.770456   4.280684
    19  H    2.778850   2.198738   1.095644   3.509134   3.601611
    20  H    2.799601   2.186318   1.094128   2.815199   3.037124
    21  H    3.461135   2.172614   2.773442   1.094944   4.191814
    22  H    2.765879   2.191696   3.504785   1.094819   3.401743
    23  H    2.809894   2.190024   2.813799   1.093126   2.916131
                   11         12         13         14         15
    11  O    0.000000
    12  C    2.446352   0.000000
    13  O    3.007876   1.192462   0.000000
    14  O    3.512136   1.389819   2.272747   0.000000
    15  H    5.304170   4.787036   5.907448   3.930244   0.000000
    16  H    6.662391   5.631043   6.677491   4.441560   1.857839
    17  H    4.169696   4.486278   5.670618   4.073890   2.337535
    18  H    4.361884   5.647055   6.704685   5.691324   3.753730
    19  H    3.972172   4.673441   5.711576   4.588868   2.688099
    20  H    2.863426   4.455683   5.363427   4.856098   4.174013
    21  H    4.222647   5.570859   6.602450   5.677126   4.756846
    22  H    3.681190   4.502955   5.489804   4.557352   4.688452
    23  H    2.637150   4.370560   5.243873   4.859205   5.142430
                   16         17         18         19         20
    16  H    0.000000
    17  H    3.541476   0.000000
    18  H    5.433099   2.486606   0.000000
    19  H    4.540178   2.510745   1.772847   0.000000
    20  H    5.941400   3.070920   1.771726   1.771495   0.000000
    21  H    5.947998   2.466695   2.546923   3.774616   3.149210
    22  H    5.557775   2.492138   3.773057   4.359170   3.825959
    23  H    6.453207   3.066505   3.133307   3.831062   2.641406
                   21         22         23
    21  H    0.000000
    22  H    1.770985   0.000000
    23  H    1.772578   1.774531   0.000000
 Stoichiometry    C10H9NO3
 Framework group  C1[X(C10H9NO3)]
 Deg. of freedom    63
 Full point group                 C1      NOp   1
 Largest Abelian subgroup         C1      NOp   1
 Largest concise Abelian subgroup C1      NOp   1
                         Standard orientation:                         
 ---------------------------------------------------------------------
 Center     Atomic      Atomic             Coordinates (Angstroms)
 Number     Number       Type             X           Y           Z
 ---------------------------------------------------------------------
      1          6           0       -1.775819   -2.050861   -0.937418
      2          6           0       -1.818286   -0.882349   -0.266883
      3          6           0       -3.035637   -0.470150    0.384914
      4          7           0       -4.019121   -0.157859    0.920286
      5          6           0       -0.672935    0.037225   -0.173484
      6          6           0        0.656376   -0.196000    0.000844
      7          6           0        1.388189   -1.500143    0.210674
      8          6           0        2.293681   -1.831445   -0.994508
      9          6           0        2.195981   -1.478288    1.525176
     10          6           0        1.290025    1.126927   -0.007622
     11          8           0        2.456114    1.453195    0.088785
     12          6           0        0.123121    2.138786   -0.179076
     13          8           0        0.128580    3.329610   -0.241327
     14          8           0       -1.037293    1.378835   -0.265722
     15          1           0       -0.885638   -2.358257   -1.473184
     16          1           0       -2.642432   -2.701246   -0.975592
     17          1           0        0.635867   -2.292255    0.300156
     18          1           0        2.788120   -2.795962   -0.838832
     19          1           0        1.722030   -1.889605   -1.927390
     20          1           0        3.068627   -1.069314   -1.119928
     21          1           0        2.672945   -2.451326    1.682036
     22          1           0        1.548856   -1.277208    2.385074
     23          1           0        2.978084   -0.715142    1.496059
 ---------------------------------------------------------------------
 Rotational constants (GHZ):           0.8528502           0.6024289           0.4025079
 Standard basis: 6-31+G(d,p) (6D, 7F)
 There are   311 symmetry adapted cartesian basis functions of A   symmetry.
 There are   311 symmetry adapted basis functions of A   symmetry.
   311 basis functions,   511 primitive gaussians,   311 cartesian basis functions
    50 alpha electrons       50 beta electrons
       nuclear repulsion energy       842.0772973100 Hartrees.
 NAtoms=   23 NActive=   23 NUniq=   23 SFac= 1.00D+00 NAtFMM=   60 NAOKFM=F Big=F
 Integral buffers will be    131072 words long.
 Regular integral format.
 Two-electron integral symmetry is turned on.
 One-electron integrals computed using PRISM.
 NBasis=   311 RedAO= T EigKep=  1.03D-06  NBF=   311
 NBsUse=   311 1.00D-06 EigRej= -1.00D+00 NBFU=   311
 ExpMin= 4.38D-02 ExpMax= 5.48D+03 ExpMxC= 8.25D+02 IAcc=3 IRadAn=         5 AccDes= 0.00D+00
 Harris functional with IExCor=  402 and IRadAn=       5 diagonalized for initial guess.
 HarFok:  IExCor=  402 AccDes= 0.00D+00 IRadAn=         5 IDoV= 1 UseB2=F ITyADJ=14
 ICtDFT=  3500011 ScaDFX=  1.000000  1.000000  1.000000  1.000000
 FoFCou: FMM=F IPFlag=           0 FMFlag=      100000 FMFlg1=           0
         NFxFlg=           0 DoJE=T BraDBF=F KetDBF=T FulRan=T
         wScrn=  0.000000 ICntrl=       500 IOpCl=  0 I1Cent=   200000004 NGrid=           0
         NMat0=    1 NMatS0=      1 NMatT0=    0 NMatD0=    1 NMtDS0=    0 NMtDT0=    0
 Petite list used in FoFCou.
 Requested convergence on RMS density matrix=1.00D-08 within 128 cycles.
 Requested convergence on MAX density matrix=1.00D-06.
 Requested convergence on             energy=1.00D-06.
 No special actions if energy rises.
 SCF Done:  E(RB3LYP) =  -666.882784369     A.U. after   17 cycles
            NFock= 17  Conv=0.65D-08     -V/T= 2.0093
 DoSCS=F DFT=T ScalE2(SS,OS)=  1.000000  1.000000
 ExpMin= 4.38D-02 ExpMax= 5.48D+03 ExpMxC= 8.25D+02 IAcc=3 IRadAn=         5 AccDes= 0.00D+00
 HarFok:  IExCor=  205 AccDes= 0.00D+00 IRadAn=         5 IDoV=-2 UseB2=F ITyADJ=14
 ICtDFT= 12500011 ScaDFX=  1.000000  1.000000  1.000000  1.000000
 Range of M.O.s used for correlation:    15   311
 NBasis=   311 NAE=    50 NBE=    50 NFC=    14 NFV=     0
 NROrb=    297 NOA=    36 NOB=    36 NVA=   261 NVB=   261

 **** Warning!!: The largest alpha MO coefficient is  0.18461204D+03

 Orbital symmetries:
       Occupied  (A) (A) (A) (A) (A) (A) (A) (A) (A) (A) (A) (A)
                 (A) (A) (A) (A) (A) (A) (A) (A) (A) (A) (A) (A)
                 (A) (A) (A) (A) (A) (A) (A) (A) (A) (A) (A) (A)
                 (A) (A) (A) (A) (A) (A) (A) (A) (A) (A) (A) (A)
                 (A) (A)
       Virtual   (A) (A) (A) (A) (A) (A) (A) (A) (A) (A) (A) (A)
                 (A) (A) (A) (A) (A) (A) (A) (A) (A) (A) (A) (A)
                 (A) (A) (A) (A) (A) (A) (A) (A) (A) (A) (A) (A)
                 (A) (A) (A) (A) (A) (A) (A) (A) (A) (A) (A) (A)
                 (A) (A) (A) (A) (A) (A) (A) (A) (A) (A) (A) (A)
                 (A) (A) (A) (A) (A) (A) (A) (A) (A) (A) (A) (A)
                 (A) (A) (A) (A) (A) (A) (A) (A) (A) (A) (A) (A)
                 (A) (A) (A) (A) (A) (A) (A) (A) (A) (A) (A) (A)
                 (A) (A) (A) (A) (A) (A) (A) (A) (A) (A) (A) (A)
                 (A) (A) (A) (A) (A) (A) (A) (A) (A) (A) (A) (A)
                 (A) (A) (A) (A) (A) (A) (A) (A) (A) (A) (A) (A)
                 (A) (A) (A) (A) (A) (A) (A) (A) (A) (A) (A) (A)
                 (A) (A) (A) (A) (A) (A) (A) (A) (A) (A) (A) (A)
                 (A) (A) (A) (A) (A) (A) (A) (A) (A) (A) (A) (A)
                 (A) (A) (A) (A) (A) (A) (A) (A) (A) (A) (A) (A)
                 (A) (A) (A) (A) (A) (A) (A) (A) (A) (A) (A) (A)
                 (A) (A) (A) (A) (A) (A) (A) (A) (A) (A) (A) (A)
                 (A) (A) (A) (A) (A) (A) (A) (A) (A) (A) (A) (A)
                 (A) (A) (A) (A) (A) (A) (A) (A) (A) (A) (A) (A)
                 (A) (A) (A) (A) (A) (A) (A) (A) (A) (A) (A) (A)
                 (A) (A) (A) (A) (A) (A) (A) (A) (A) (A) (A) (A)
                 (A) (A) (A) (A) (A) (A) (A) (A) (A)
    24 initial guesses have been made.
 Convergence on wavefunction:    0.001000000000000
 Iteration     1 Dimension    24 NMult     0 NNew     24
 CISAX will form    24 AO SS matrices at one time.
 New state      1 was old state      2
 New state      2 was old state      4
 New state      3 was old state      1
 New state      4 was old state      6
 New state      5 was old state      3
 New state      6 was old state     12
 New state      7 was old state     10
 New state      9 was old state     11
 New state     10 was old state      7
 New state     11 was old state      5
 New state     12 was old state     20
 Vector   6 SDiff=2.26D+00 TDiff=4.08D+00 assumed to be singlet.
 Vector  12 SDiff=3.47D+00 TDiff=2.52D+00 assumed to be triplet.
 Iteration     2 Dimension    36 NMult    24 NNew     12
 New state      6 was old state      9
 Iteration     3 Dimension    48 NMult    36 NNew     12
 Iteration     4 Dimension    60 NMult    48 NNew     12
 Iteration     5 Dimension    70 NMult    60 NNew     10
 Iteration     6 Dimension    76 NMult    70 NNew      6
 Iteration     7 Dimension    78 NMult    76 NNew      2
 ***********************************************************************
 Excited states from <AA,BB:AA,BB> singles matrix:
 ***********************************************************************
 
 Ground to excited state transition densities written to RWF  633
 Ground to excited state transition electric dipole moments (Au):
       state          X           Y           Z        Dip. S.      Osc.
         1         0.0000     -0.0000     -0.0000      0.0000      0.0000
         2         0.0000     -0.0000      0.0000      0.0000      0.0000
         3        -0.0192     -0.0093      0.0331      0.0016      0.0001
         4         0.0000     -0.0000      0.0000      0.0000      0.0000
         5         1.0958      0.3270      0.1941      1.3455      0.1133
         6        -0.0257     -0.2570     -0.0282      0.0675      0.0071
 Ground to excited state transition velocity dipole moments (Au):
       state          X           Y           Z        Dip. S.      Osc.
         1        -0.0000     -0.0000     -0.0000      0.0000      0.0000
         2         0.0000     -0.0000     -0.0000      0.0000      0.0000
         3         0.0019      0.0000     -0.0054      0.0000      0.0002
         4        -0.0000      0.0000     -0.0000      0.0000      0.0000
         5        -0.1352     -0.0312     -0.0242      0.0198      0.1047
         6         0.0011      0.0404      0.0032      0.0016      0.0069
 Ground to excited state transition magnetic dipole moments (Au):
       state          X           Y           Z
         1         0.0000     -0.0000      0.0000
         2        -0.0000     -0.0000     -0.0000
         3        -0.5253      0.0371     -0.1039
         4         0.0000      0.0000      0.0000
         5        -0.0250     -0.0832     -0.2034
         6         0.3056      0.5593     -0.0404
 Ground to excited state transition velocity quadrupole moments (Au):
       state          XX          YY          ZZ          XY          XZ          YZ
         1        -0.0000     -0.0000     -0.0000     -0.0000     -0.0000      0.0000
         2         0.0000      0.0000      0.0000      0.0000      0.0000     -0.0000
         3        -0.0128      0.0080      0.0022      0.0073     -0.0085     -0.0282
         4         0.0000      0.0000      0.0000      0.0000     -0.0000      0.0000
         5        -0.0959      0.2692      0.0135      0.0651      0.0456      0.0719
         6        -0.0065      0.0278     -0.0269     -0.0307     -0.0577     -0.0327
 <0|del|b> * <b|rxdel|0> + <0|del|b> * <b|delr+rdel|0>
 Rotatory Strengths (R) in cgs (10**-40 erg-esu-cm/Gauss)
       state          XX          YY          ZZ    R(velocity)    E-M Angle
         1        -0.0000     -0.0000      0.0000     -0.0000       90.00
         2         0.0000      0.0000      0.0000      0.0000       90.00
         3         1.9780     -1.8103     -3.6585     -1.1636       98.62
         4        -0.0000     -0.0000      0.0000     -0.0000       90.00
         5        20.6324      0.4877     39.9495     20.3565       69.50
         6        55.0022      0.5793     45.9365     33.8393       28.32
 1/2[<0|r|b>*<b|rxdel|0> + (<0|rxdel|b>*<b|r|0>)*]
 Rotatory Strengths (R) in cgs (10**-40 erg-esu-cm/Gauss)
       state          XX          YY          ZZ     R(length)
         1        -0.0000     -0.0000      0.0000     -0.0000
         2         0.0000     -0.0000      0.0000      0.0000
         3        -7.1396      0.2427      2.4360     -1.4870
         4        -0.0000      0.0000     -0.0000     -0.0000
         5        19.3985     19.2473     27.9187     22.1882
         6         5.5645    101.6602     -0.8064     35.4728
  1/2[<0|del|b>*<b|r|0> + (<0|r|b>*<b|del|0>)*] (Au)
       state          X           Y           Z        Dip. S.   Osc.(frdel)
         1        -0.0000      0.0000      0.0000      0.0000      0.0000
         2         0.0000      0.0000     -0.0000     -0.0000     -0.0000
         3        -0.0000     -0.0000     -0.0002      0.0002      0.0001
         4        -0.0000     -0.0000     -0.0000      0.0000      0.0000
         5        -0.1482     -0.0102     -0.0047      0.1631      0.1087
         6        -0.0000     -0.0104     -0.0001      0.0105      0.0070

 Excitation energies and oscillator strengths:
 
 Excited State   1:      Triplet-A      2.0632 eV  600.93 nm  f=0.0000  <S**2>=2.000
      50 -> 51         0.67515
      50 -> 52         0.16583
 This state for optimization and/or second-order correction.
 Total Energy, E(TD-HF/TD-DFT) =  -666.806962458    
 Copying the excited state density for this state as the 1-particle RhoCI density.
 
 Excited State   2:      Triplet-A      2.0822 eV  595.45 nm  f=0.0000  <S**2>=2.000
      48 -> 52         0.11714
      49 -> 51         0.68598
      49 <- 51         0.10439
 
 Excited State   3:      Singlet-A      2.5405 eV  488.03 nm  f=0.0001  <S**2>=0.000
      49 -> 51         0.13901
      50 -> 51         0.67933
      50 -> 52         0.12229
 
 Excited State   4:      Triplet-A      3.1380 eV  395.10 nm  f=0.0000  <S**2>=2.000
      48 -> 51         0.49158
      48 -> 52        -0.29753
      49 -> 52         0.36687
 
 Excited State   5:      Singlet-A      3.4385 eV  360.57 nm  f=0.1133  <S**2>=0.000
      49 -> 51         0.68030
      50 -> 51        -0.14329
 
 Excited State   6:      Singlet-A      4.3170 eV  287.20 nm  f=0.0071  <S**2>=0.000
      45 -> 51        -0.10404
      47 -> 51         0.55078
      47 -> 52         0.13018
      48 -> 51         0.34251
      49 -> 52        -0.14564
      50 -> 52         0.13501
 SavETr:  write IOETrn=   770 NScale= 10 NData=  16 NLR=1 NState=    6 LETran=     118.

 **********************************************************************

            Population analysis using the SCF Density.

 **********************************************************************

 Orbital symmetries:
       Occupied  (A) (A) (A) (A) (A) (A) (A) (A) (A) (A) (A) (A)
                 (A) (A) (A) (A) (A) (A) (A) (A) (A) (A) (A) (A)
                 (A) (A) (A) (A) (A) (A) (A) (A) (A) (A) (A) (A)
                 (A) (A) (A) (A) (A) (A) (A) (A) (A) (A) (A) (A)
                 (A) (A)
       Virtual   (A) (A) (A) (A) (A) (A) (A) (A) (A) (A) (A) (A)
                 (A) (A) (A) (A) (A) (A) (A) (A) (A) (A) (A) (A)
                 (A) (A) (A) (A) (A) (A) (A) (A) (A) (A) (A) (A)
                 (A) (A) (A) (A) (A) (A) (A) (A) (A) (A) (A) (A)
                 (A) (A) (A) (A) (A) (A) (A) (A) (A) (A) (A) (A)
                 (A) (A) (A) (A) (A) (A) (A) (A) (A) (A) (A) (A)
                 (A) (A) (A) (A) (A) (A) (A) (A) (A) (A) (A) (A)
                 (A) (A) (A) (A) (A) (A) (A) (A) (A) (A) (A) (A)
                 (A) (A) (A) (A) (A) (A) (A) (A) (A) (A) (A) (A)
                 (A) (A) (A) (A) (A) (A) (A) (A) (A) (A) (A) (A)
                 (A) (A) (A) (A) (A) (A) (A) (A) (A) (A) (A) (A)
                 (A) (A) (A) (A) (A) (A) (A) (A) (A) (A) (A) (A)
                 (A) (A) (A) (A) (A) (A) (A) (A) (A) (A) (A) (A)
                 (A) (A) (A) (A) (A) (A) (A) (A) (A) (A) (A) (A)
                 (A) (A) (A) (A) (A) (A) (A) (A) (A) (A) (A) (A)
                 (A) (A) (A) (A) (A) (A) (A) (A) (A) (A) (A) (A)
                 (A) (A) (A) (A) (A) (A) (A) (A) (A) (A) (A) (A)
                 (A) (A) (A) (A) (A) (A) (A) (A) (A) (A) (A) (A)
                 (A) (A) (A) (A) (A) (A) (A) (A) (A) (A) (A) (A)
                 (A) (A) (A) (A) (A) (A) (A) (A) (A) (A) (A) (A)
                 (A) (A) (A) (A) (A) (A) (A) (A) (A) (A) (A) (A)
                 (A) (A) (A) (A) (A) (A) (A) (A) (A)
 The electronic state is 1-A.
 Alpha  occ. eigenvalues --  -19.25397 -19.20329 -19.19475 -14.37482 -10.36250
 Alpha  occ. eigenvalues --  -10.32880 -10.32364 -10.29690 -10.26971 -10.26554
 Alpha  occ. eigenvalues --  -10.24749 -10.23854 -10.20591 -10.20001  -1.16578
 Alpha  occ. eigenvalues --   -1.09261  -1.08422  -0.94211  -0.88814  -0.85623
 Alpha  occ. eigenvalues --   -0.79999  -0.75660  -0.71126  -0.68743  -0.65198
 Alpha  occ. eigenvalues --   -0.61746  -0.59724  -0.56227  -0.52842  -0.51429
 Alpha  occ. eigenvalues --   -0.50055  -0.48843  -0.47819  -0.47058  -0.45084
 Alpha  occ. eigenvalues --   -0.44705  -0.44131  -0.43196  -0.42080  -0.40449
 Alpha  occ. eigenvalues --   -0.39616  -0.39244  -0.38281  -0.37299  -0.37258
 Alpha  occ. eigenvalues --   -0.36690  -0.35156  -0.32941  -0.28696  -0.28477
 Alpha virt. eigenvalues --   -0.14223  -0.09085  -0.02470  -0.01613  -0.00358
 Alpha virt. eigenvalues --    0.00259   0.00765   0.00973   0.02488   0.03076
 Alpha virt. eigenvalues --    0.03696   0.04024   0.04493   0.04804   0.05853
 Alpha virt. eigenvalues --    0.06115   0.06363   0.06598   0.07430   0.07604
 Alpha virt. eigenvalues --    0.08282   0.08909   0.09093   0.09770   0.10665
 Alpha virt. eigenvalues --    0.11296   0.11404   0.11489   0.12286   0.12947
 Alpha virt. eigenvalues --    0.13558   0.13838   0.14190   0.14980   0.15645
 Alpha virt. eigenvalues --    0.16175   0.16579   0.17103   0.17295   0.18279
 Alpha virt. eigenvalues --    0.18737   0.18954   0.19493   0.19779   0.20526
 Alpha virt. eigenvalues --    0.21180   0.21629   0.22213   0.22326   0.22818
 Alpha virt. eigenvalues --    0.23952   0.24319   0.24669   0.25476   0.25665
 Alpha virt. eigenvalues --    0.25939   0.26234   0.26612   0.27188   0.27512
 Alpha virt. eigenvalues --    0.28274   0.28829   0.29848   0.31113   0.31158
 Alpha virt. eigenvalues --    0.32141   0.32750   0.33089   0.33464   0.33884
 Alpha virt. eigenvalues --    0.34055   0.35003   0.35967   0.37760   0.38373
 Alpha virt. eigenvalues --    0.39600   0.40066   0.41183   0.42403   0.44455
 Alpha virt. eigenvalues --    0.45825   0.46302   0.48830   0.58633   0.60999
 Alpha virt. eigenvalues --    0.63349   0.64179   0.65854   0.66900   0.67408
 Alpha virt. eigenvalues --    0.68509   0.70761   0.71708   0.72691   0.74208
 Alpha virt. eigenvalues --    0.74869   0.75061   0.76432   0.77387   0.78029
 Alpha virt. eigenvalues --    0.78927   0.79970   0.81209   0.83159   0.83329
 Alpha virt. eigenvalues --    0.85308   0.86139   0.88724   0.90335   0.91718
 Alpha virt. eigenvalues --    0.93430   0.94008   0.95781   0.96523   0.97566
 Alpha virt. eigenvalues --    0.99139   1.00729   1.01281   1.02948   1.04076
 Alpha virt. eigenvalues --    1.05721   1.07241   1.07539   1.08957   1.11501
 Alpha virt. eigenvalues --    1.12458   1.14849   1.15348   1.17921   1.18771
 Alpha virt. eigenvalues --    1.19536   1.19954   1.22532   1.24621   1.26298
 Alpha virt. eigenvalues --    1.27863   1.28510   1.28885   1.29856   1.32743
 Alpha virt. eigenvalues --    1.34615   1.35525   1.36194   1.37512   1.39300
 Alpha virt. eigenvalues --    1.40303   1.41491   1.42684   1.43899   1.44509
 Alpha virt. eigenvalues --    1.48481   1.48854   1.50062   1.52961   1.55458
 Alpha virt. eigenvalues --    1.57043   1.59178   1.62176   1.64338   1.67288
 Alpha virt. eigenvalues --    1.68429   1.71857   1.73616   1.73833   1.75941
 Alpha virt. eigenvalues --    1.78919   1.80062   1.81979   1.82891   1.83966
 Alpha virt. eigenvalues --    1.84538   1.86681   1.88692   1.89861   1.91173
 Alpha virt. eigenvalues --    1.92428   1.94634   1.95609   1.96840   1.98307
 Alpha virt. eigenvalues --    1.99628   2.00753   2.02912   2.03739   2.05676
 Alpha virt. eigenvalues --    2.06933   2.08274   2.09948   2.11553   2.11635
 Alpha virt. eigenvalues --    2.12296   2.13819   2.14655   2.15830   2.17051
 Alpha virt. eigenvalues --    2.21581   2.22874   2.25687   2.29097   2.31248
 Alpha virt. eigenvalues --    2.32480   2.33155   2.36203   2.38561   2.40544
 Alpha virt. eigenvalues --    2.45124   2.46886   2.48461   2.50049   2.51343
 Alpha virt. eigenvalues --    2.53023   2.54081   2.57279   2.62267   2.64453
 Alpha virt. eigenvalues --    2.67901   2.68661   2.70994   2.71237   2.73584
 Alpha virt. eigenvalues --    2.74547   2.79114   2.79789   2.85884   2.86839
 Alpha virt. eigenvalues --    2.88438   2.88803   2.90353   2.93996   2.94619
 Alpha virt. eigenvalues --    2.98256   3.00979   3.10911   3.13645   3.21956
 Alpha virt. eigenvalues --    3.23783   3.25428   3.25889   3.26671   3.29731
 Alpha virt. eigenvalues --    3.36697   3.37442   3.42260   3.47879   3.49333
 Alpha virt. eigenvalues --    3.53572   3.58334   4.18434   4.24757   4.26529
 Alpha virt. eigenvalues --    4.34426   4.35725   4.37021   4.43216   4.51652
 Alpha virt. eigenvalues --    4.53344   4.61702   4.65624   4.72424   4.75648
 Alpha virt. eigenvalues --    5.17243
          Condensed to atoms (all electrons):
               1          2          3          4          5          6
     1  C    7.006028   0.271302  -0.921514   0.001011   0.853067  -1.567541
     2  C    0.271302  14.106756  -0.418486   0.125050  -0.192837  -6.208228
     3  C   -0.921514  -0.418486   8.937249   0.113655  -1.504982   0.028310
     4  N    0.001011   0.125050   0.113655   7.204303   0.041807  -0.016215
     5  C    0.853067  -0.192837  -1.504982   0.041807  22.900962 -15.695350
     6  C   -1.567541  -6.208228   0.028310  -0.016215 -15.695350  29.643983
     7  C   -0.239323  -2.528683  -0.073784   0.006969  -2.776566   3.047166
     8  C    0.030410  -0.148608  -0.050386   0.000545   0.267805   0.017994
     9  C   -0.079835   0.311923   0.024268   0.000880  -0.284634   0.238738
    10  C    0.196653   2.985439   0.164273  -0.002885   6.342427  -9.476082
    11  O   -0.001022  -0.010481   0.002683  -0.000010  -0.210981   0.018974
    12  C   -0.017571  -1.509188  -0.234610   0.003709  -2.137720   3.015960
    13  O   -0.001133   0.024472  -0.003215   0.000197   0.053241  -0.098216
    14  O   -0.056274  -0.579660  -0.026147   0.005281  -0.934875   1.709746
    15  H    0.433515  -0.107001  -0.008969  -0.000247   0.052976  -0.014072
    16  H    0.459064  -0.101332  -0.029919  -0.000098   0.042697  -0.017857
    17  H    0.001946   0.067461  -0.024810   0.000257  -0.042681   0.003194
    18  H   -0.000945   0.004497   0.000298   0.000000  -0.003281  -0.025308
    19  H    0.000510  -0.021058   0.001018  -0.000002  -0.020210   0.008118
    20  H   -0.001313  -0.008075  -0.000671   0.000002  -0.018438   0.084791
    21  H   -0.002675   0.003492  -0.000545   0.000005  -0.015066  -0.003175
    22  H   -0.001080  -0.002647  -0.002542   0.000011  -0.036325   0.022357
    23  H   -0.000140   0.006190  -0.000126  -0.000001   0.024563   0.038960
               7          8          9         10         11         12
     1  C   -0.239323   0.030410  -0.079835   0.196653  -0.001022  -0.017571
     2  C   -2.528683  -0.148608   0.311923   2.985439  -0.010481  -1.509188
     3  C   -0.073784  -0.050386   0.024268   0.164273   0.002683  -0.234610
     4  N    0.006969   0.000545   0.000880  -0.002885  -0.000010   0.003709
     5  C   -2.776566   0.267805  -0.284634   6.342427  -0.210981  -2.137720
     6  C    3.047166   0.017994   0.238738  -9.476082   0.018974   3.015960
     7  C   10.196756   0.035138  -0.594297  -2.830673   0.191782   0.982707
     8  C    0.035138   5.530400  -0.240578  -0.138114  -0.028464   0.001914
     9  C   -0.594297  -0.240578   5.951613   0.108580  -0.056119  -0.135323
    10  C   -2.830673  -0.138114   0.108580  12.782305   0.135545  -3.029455
    11  O    0.191782  -0.028464  -0.056119   0.135545   8.327729   0.050973
    12  C    0.982707   0.001914  -0.135323  -3.029455   0.050973   7.397564
    13  O   -0.004011  -0.001716   0.000195  -0.045501  -0.007633   0.402814
    14  O    0.116843   0.003346   0.014115  -0.777669   0.021478   0.298703
    15  H   -0.003131  -0.003441  -0.001119  -0.000033   0.000023  -0.000198
    16  H    0.002149   0.000740  -0.000581   0.000482  -0.000002  -0.000452
    17  H    0.243435  -0.011637   0.043974  -0.018347  -0.000421  -0.002851
    18  H   -0.054418   0.426745  -0.001078   0.008506   0.000213  -0.000586
    19  H   -0.020526   0.400731   0.002951  -0.002185  -0.000278   0.004123
    20  H   -0.097150   0.476805  -0.023452  -0.065277  -0.000488   0.007010
    21  H   -0.055719   0.003369   0.408183   0.014797   0.000427   0.000183
    22  H   -0.066889  -0.005627   0.447471   0.000702   0.000059   0.003808
    23  H   -0.178086  -0.011897   0.511450  -0.029348  -0.002716  -0.003811
              13         14         15         16         17         18
     1  C   -0.001133  -0.056274   0.433515   0.459064   0.001946  -0.000945
     2  C    0.024472  -0.579660  -0.107001  -0.101332   0.067461   0.004497
     3  C   -0.003215  -0.026147  -0.008969  -0.029919  -0.024810   0.000298
     4  N    0.000197   0.005281  -0.000247  -0.000098   0.000257   0.000000
     5  C    0.053241  -0.934875   0.052976   0.042697  -0.042681  -0.003281
     6  C   -0.098216   1.709746  -0.014072  -0.017857   0.003194  -0.025308
     7  C   -0.004011   0.116843  -0.003131   0.002149   0.243435  -0.054418
     8  C   -0.001716   0.003346  -0.003441   0.000740  -0.011637   0.426745
     9  C    0.000195   0.014115  -0.001119  -0.000581   0.043974  -0.001078
    10  C   -0.045501  -0.777669  -0.000033   0.000482  -0.018347   0.008506
    11  O   -0.007633   0.021478   0.000023  -0.000002  -0.000421   0.000213
    12  C    0.402814   0.298703  -0.000198  -0.000452  -0.002851  -0.000586
    13  O    8.197328  -0.079713   0.000007   0.000000   0.000001  -0.000001
    14  O   -0.079713   8.566464  -0.000212  -0.000417   0.000717   0.000011
    15  H    0.000007  -0.000212   0.511178  -0.028711  -0.000811  -0.000010
    16  H    0.000000  -0.000417  -0.028711   0.494322   0.000147   0.000000
    17  H    0.000001   0.000717  -0.000811   0.000147   0.626696  -0.003480
    18  H   -0.000001   0.000011  -0.000010   0.000000  -0.003480   0.545830
    19  H    0.000010  -0.000012   0.001133   0.000004  -0.004787  -0.027521
    20  H   -0.000028   0.000187  -0.000004  -0.000000   0.005134  -0.025465
    21  H   -0.000002  -0.000000   0.000001  -0.000000  -0.003741   0.002968
    22  H    0.000009  -0.000076  -0.000004  -0.000000  -0.004497   0.000103
    23  H   -0.000005   0.000161  -0.000002   0.000000   0.004863  -0.000142
              19         20         21         22         23
     1  C    0.000510  -0.001313  -0.002675  -0.001080  -0.000140
     2  C   -0.021058  -0.008075   0.003492  -0.002647   0.006190
     3  C    0.001018  -0.000671  -0.000545  -0.002542  -0.000126
     4  N   -0.000002   0.000002   0.000005   0.000011  -0.000001
     5  C   -0.020210  -0.018438  -0.015066  -0.036325   0.024563
     6  C    0.008118   0.084791  -0.003175   0.022357   0.038960
     7  C   -0.020526  -0.097150  -0.055719  -0.066889  -0.178086
     8  C    0.400731   0.476805   0.003369  -0.005627  -0.011897
     9  C    0.002951  -0.023452   0.408183   0.447471   0.511450
    10  C   -0.002185  -0.065277   0.014797   0.000702  -0.029348
    11  O   -0.000278  -0.000488   0.000427   0.000059  -0.002716
    12  C    0.004123   0.007010   0.000183   0.003808  -0.003811
    13  O    0.000010  -0.000028  -0.000002   0.000009  -0.000005
    14  O   -0.000012   0.000187  -0.000000  -0.000076   0.000161
    15  H    0.001133  -0.000004   0.000001  -0.000004  -0.000002
    16  H    0.000004  -0.000000  -0.000000  -0.000000   0.000000
    17  H   -0.004787   0.005134  -0.003741  -0.004497   0.004863
    18  H   -0.027521  -0.025465   0.002968   0.000103  -0.000142
    19  H    0.566916  -0.026584   0.000070  -0.000155   0.000010
    20  H   -0.026584   0.510042  -0.000071   0.000031   0.002874
    21  H    0.000070  -0.000071   0.549972  -0.026274  -0.025341
    22  H   -0.000155   0.000031  -0.026274   0.547495  -0.026808
    23  H    0.000010   0.002874  -0.025341  -0.026808   0.504188
 Mulliken charges:
               1
     1  C   -0.363141
     2  C   -0.070297
     3  C    0.028954
     4  N   -0.484225
     5  C   -0.705596
     6  C    1.243757
     7  C    0.700311
     8  C   -0.555476
     9  C   -0.647325
    10  C   -0.324139
    11  O   -0.431271
    12  C    0.902297
    13  O   -0.437101
    14  O   -0.281995
    15  H    0.169133
    16  H    0.179765
    17  H    0.120240
    18  H    0.153062
    19  H    0.137725
    20  H    0.180142
    21  H    0.149141
    22  H    0.150876
    23  H    0.185164
 Sum of Mulliken charges =  -0.00000
 Mulliken charges with hydrogens summed into heavy atoms:
               1
     1  C   -0.014243
     2  C   -0.070297
     3  C    0.028954
     4  N   -0.484225
     5  C   -0.705596
     6  C    1.243757
     7  C    0.820551
     8  C   -0.084548
     9  C   -0.162144
    10  C   -0.324139
    11  O   -0.431271
    12  C    0.902297
    13  O   -0.437101
    14  O   -0.281995
 Electronic spatial extent (au):  <R**2>=           2788.9654
 Charge=             -0.0000 electrons
 Dipole moment (field-independent basis, Debye):
    X=              1.3651    Y=             -6.4833    Z=             -1.7282  Tot=              6.8471
 Quadrupole moment (field-independent basis, Debye-Ang):
   XX=           -101.4804   YY=            -86.8197   ZZ=            -80.0203
   XY=             -0.1513   XZ=              6.2871   YZ=              3.2560
 Traceless Quadrupole moment (field-independent basis, Debye-Ang):
   XX=            -12.0403   YY=              2.6204   ZZ=              9.4198
   XY=             -0.1513   XZ=              6.2871   YZ=              3.2560
 Octapole moment (field-independent basis, Debye-Ang**2):
  XXX=             70.5195  YYY=            -43.5123  ZZZ=             -3.7246  XYY=            -11.4726
  XXY=            -23.5968  XXZ=            -27.2756  XZZ=              9.8512  YZZ=              6.4634
  YYZ=             -3.9742  XYZ=             -6.6664
 Hexadecapole moment (field-independent basis, Debye-Ang**3):
 XXXX=          -2461.5819 YYYY=          -1463.9918 ZZZZ=           -351.9180 XXXY=             -4.6844
 XXXZ=            116.1005 YYYX=              9.5563 YYYZ=             26.0415 ZZZX=             10.4326
 ZZZY=             -0.7985 XXYY=           -552.1306 XXZZ=           -425.7692 YYZZ=           -270.2028
 XXYZ=              8.4777 YYXZ=             14.7525 ZZXY=              6.9852
 N-N= 8.420772973100D+02 E-N=-3.235662825548D+03  KE= 6.607064992423D+02
 Unable to Open any file for archive entry.
 1\1\GINC-N1\SP\RB3LYP TD-FC\6-31+G(d,p)\C10H9N1O3\HPCMGAC13\27-Aug-202
 5\0\\# td=(50-50,nstates=3) b3lyp/6-31+g(d,p) geom=connectivity\\Title
  Card Required\\0,1\C,0,1.775819,-2.050861,0.937418\C,0,1.818286,-0.88
 2349,0.266883\C,0,3.035637,-0.470149,-0.384914\N,0,4.019121,-0.157858,
 -0.920286\C,0,0.672935,0.037225,0.173484\C,0,-0.656376,-0.196,-0.00084
 4\C,0,-1.388189,-1.500144,-0.210674\C,0,-2.293681,-1.831446,0.994508\C
 ,0,-2.195981,-1.478289,-1.525176\C,0,-1.290025,1.126926,0.007622\O,0,-
 2.456114,1.453194,-0.088785\C,0,-0.123122,2.138786,0.179076\O,0,-0.128
 581,3.32961,0.241327\O,0,1.037293,1.378835,0.265722\H,0,0.885639,-2.35
 8257,1.473184\H,0,2.642433,-2.701246,0.975592\H,0,-0.635866,-2.292255,
 -0.300156\H,0,-2.788119,-2.795963,0.838832\H,0,-1.72203,-1.889606,1.92
 739\H,0,-3.068627,-1.069315,1.119928\H,0,-2.672944,-2.451327,-1.682036
 \H,0,-1.548856,-1.277209,-2.385074\H,0,-2.978084,-0.715143,-1.496059\\
 Version=ES64L-G16RevC.02\State=1-A\HF=-666.8827844\RMSD=6.488e-09\PG=C
 01 [X(C10H9N1O3)]\\@
 The archive entry for this job was punched.


 WE LEARN WISDOM FROM FAILURE MUCH MORE THAN FROM SUCCESS.
 WE DISCOVER WHAT WILL DO BY FINDING OUT WHAT WILL NOT DO...
 AND HE WHO NEVER MADE A MISTAKE NEVER MADE A DISCOVERY
 Job cpu time:       0 days  0 hours 28 minutes 37.4 seconds.
 Elapsed time:       0 days  0 hours  1 minutes 51.0 seconds.
 File lengths (MBytes):  RWF=    628 Int=      0 D2E=      0 Chk=     26 Scr=      2
 Normal termination of Gaussian 16 at Wed Aug 27 09:01:10 2025.
