 Entering Gaussian System, Link 0=g16
 Input=M673E.gjf
 Output=M673E.log
 Initial command:
 /hpc/softwares/Gaussian/g16/l1.exe "/hpc/home/hpcmgac13/pbs.13484.admin1.x8z/Gau-3336745.inp" -scrdir="/hpc/home/hpcmgac13/pbs.13484.admin1.x8z/"
 Default linda workers: n2
 Default is to use  16 SMP processors on each worker.
 Entering Link 1 = /hpc/softwares/Gaussian/g16/l1.exe PID=   3336746.
  
 Copyright (c) 1988-2021, Gaussian, Inc.  All Rights Reserved.
  
 This is part of the Gaussian(R) 16 program.  It is based on
 the Gaussian(R) 09 system (copyright 2009, Gaussian, Inc.),
 the Gaussian(R) 03 system (copyright 2003, Gaussian, Inc.),
 the Gaussian(R) 98 system (copyright 1998, Gaussian, Inc.),
 the Gaussian(R) 94 system (copyright 1995, Gaussian, Inc.),
 the Gaussian 92(TM) system (copyright 1992, Gaussian, Inc.),
 the Gaussian 90(TM) system (copyright 1990, Gaussian, Inc.),
 the Gaussian 88(TM) system (copyright 1988, Gaussian, Inc.),
 the Gaussian 86(TM) system (copyright 1986, Carnegie Mellon
 University), and the Gaussian 82(TM) system (copyright 1983,
 Carnegie Mellon University). Gaussian is a federally registered
 trademark of Gaussian, Inc.
  
 This software contains proprietary and confidential information,
 including trade secrets, belonging to Gaussian, Inc.
  
 This software is provided under written license and may be
 used, copied, transmitted, or stored only in accord with that
 written license.
  
 The following legend is applicable only to US Government
 contracts under FAR:
  
                    RESTRICTED RIGHTS LEGEND
  
 Use, reproduction and disclosure by the US Government is
 subject to restrictions as set forth in subparagraphs (a)
 and (c) of the Commercial Computer Software - Restricted
 Rights clause in FAR 52.227-19.
  
 Gaussian, Inc.
 340 Quinnipiac St., Bldg. 40, Wallingford CT 06492
  
  
 ---------------------------------------------------------------
 Warning -- This program may not be used in any manner that
 competes with the business of Gaussian, Inc. or will provide
 assistance to any competitor of Gaussian, Inc.  The licensee
 of this program is prohibited from giving any competitor of
 Gaussian, Inc. access to this program.  By using this program,
 the user acknowledges that Gaussian, Inc. is engaged in the
 business of creating and licensing software in the field of
 computational chemistry and represents and warrants to the
 licensee that it is not a competitor of Gaussian, Inc. and that
 it will not use this program in any manner prohibited above.
 ---------------------------------------------------------------
  

 Cite this work as:
 Gaussian 16, Revision C.02,
 M. J. Frisch, G. W. Trucks, H. B. Schlegel, G. E. Scuseria, 
 M. A. Robb, J. R. Cheeseman, G. Scalmani, V. Barone, 
 G. A. Petersson, H. Nakatsuji, X. Li, M. Caricato, A. V. Marenich, 
 J. Bloino, B. G. Janesko, R. Gomperts, B. Mennucci, H. P. Hratchian, 
 J. V. Ortiz, A. F. Izmaylov, J. L. Sonnenberg, D. Williams-Young, 
 F. Ding, F. Lipparini, F. Egidi, J. Goings, B. Peng, A. Petrone, 
 T. Henderson, D. Ranasinghe, V. G. Zakrzewski, J. Gao, N. Rega, 
 G. Zheng, W. Liang, M. Hada, M. Ehara, K. Toyota, R. Fukuda, 
 J. Hasegawa, M. Ishida, T. Nakajima, Y. Honda, O. Kitao, H. Nakai, 
 T. Vreven, K. Throssell, J. A. Montgomery, Jr., J. E. Peralta, 
 F. Ogliaro, M. J. Bearpark, J. J. Heyd, E. N. Brothers, K. N. Kudin, 
 V. N. Staroverov, T. A. Keith, R. Kobayashi, J. Normand, 
 K. Raghavachari, A. P. Rendell, J. C. Burant, S. S. Iyengar, 
 J. Tomasi, M. Cossi, J. M. Millam, M. Klene, C. Adamo, R. Cammi, 
 J. W. Ochterski, R. L. Martin, K. Morokuma, O. Farkas, 
 J. B. Foresman, and D. J. Fox, Gaussian, Inc., Wallingford CT, 2019.
 
 ******************************************
 Gaussian 16:  ES64L-G16RevC.02  7-Dec-2021
                26-Aug-2025 
 ******************************************
 SetLPE:    new flags="-opt 'Tsnet.Node.lindarsharg: ssh'  -nodelist 'n2.head.cm.mguif.local' -env GAUSS_MDEF=4294967296 -env GAUSS_EXEDIR="/hpc/softwares/Gaussian/g16/bsd:/hpc/softwares/Gaussian/g16""
 Will use up to    1 processors via Linda.
 ----------------------------------------------------------
 # td=(50-50,nstates=3) b3lyp/6-31+g(d,p) geom=connectivity
 ----------------------------------------------------------
 1/38=1,57=2,172=1/1;
 2/12=2,17=6,18=5,40=1/2;
 3/5=1,6=6,7=111,11=9,25=1,30=1,74=-5/1,2,3,8;
 4//1;
 5/5=2,38=5/2;
 8/6=1,10=2,108=3/1;
 9/41=3,42=1,48=2,70=2/14;
 6/7=2,8=2,9=2,10=2/1;
 99/5=1,9=1/99;
 -------------------
 Title Card Required
 -------------------
 Symbolic Z-matrix:
 Charge =  0 Multiplicity = 1
 C                     7.14896   0.36974   0.24135 
 O                     5.93618  -0.31606   0.49849 
 C                     5.55212  -1.19226  -0.55636 
 Si                    3.89039  -2.02734  -0.12785 
 C                     3.52796  -3.32348  -1.45349 
 C                     3.97078  -2.79008   1.59158 
 C                     2.56031  -0.75306  -0.16989 
 C                     1.68383   0.10019  -0.17892 
 C                     0.62697   1.06987  -0.21426 
 C                     0.79494   2.31016   0.31667 
 Si                   -0.25758   3.88825   0.29162 
 C                    -1.44643   3.93363   1.7678 
 C                     0.99307   5.29659   0.48594 
 C                    -1.20271   4.12047  -1.32856 
 C                    -0.60597   0.57233  -0.87948 
 C                    -1.83068   0.61336  -0.34318 
 C                    -3.05661   0.02765  -1.03214 
 C                    -4.08166   1.071    -1.22871 
 N                    -4.87675   1.90661  -1.36468 
 C                    -3.62445  -1.15379  -0.24305 
 C                    -4.34913  -0.92914   0.97769 
 C                    -4.78795  -2.00603   1.66889 
 O                    -4.57682  -3.27448   1.2709 
 C                    -3.87784  -3.57964   0.08037 
 O                    -3.73666  -4.74669  -0.20149 
 C                    -3.40845  -2.42993  -0.66898 
 H                     7.34986   1.00719   1.10592 
 H                     7.98596  -0.33352   0.10859 
 H                     7.0698    0.99693  -0.65999 
 H                     5.4631   -0.63906  -1.5077 
 H                     6.32499  -1.96754  -0.7124 
 H                     2.562    -3.8065   -1.27064 
 H                     4.2971   -4.10458  -1.4578 
 H                     3.49306  -2.87631  -2.45292 
 H                     4.21658  -2.02638   2.33564 
 H                     3.01395  -3.24592   1.86731 
 H                     4.74368  -3.56632   1.63401 
 H                     1.76963   2.45257   0.78962 
 H                    -1.92087   4.91973   1.8396 
 H                    -2.24667   3.19148   1.6784 
 H                    -0.91826   3.74795   2.70977 
 H                     0.48559   6.26798   0.50722 
 H                     1.70871   5.31333  -0.34409 
 H                     1.56436   5.2004    1.4167 
 H                    -0.53691   4.01186  -2.19209 
 H                    -2.02936   3.41491  -1.44624 
 H                    -1.62684   5.13129  -1.3618 
 H                    -0.45871   0.07776  -1.84023 
 H                    -1.98993   1.0429    0.64232 
 H                    -2.76378  -0.33024  -2.02537 
 H                    -4.56507   0.06851   1.33995 
 H                    -5.34781  -1.95955   2.59596 
 H                    -2.87035  -2.65548  -1.5827 
 
 Stoichiometry    C20H27NO3Si2
 Framework group  C1[X(C20H27NO3Si2)]
 Deg. of freedom   153
 Full point group                 C1      NOp   1
 Largest Abelian subgroup         C1      NOp   1
 Largest concise Abelian subgroup C1      NOp   1
                         Standard orientation:                         
 ---------------------------------------------------------------------
 Center     Atomic      Atomic             Coordinates (Angstroms)
 Number     Number       Type             X           Y           Z
 ---------------------------------------------------------------------
      1          6           0        7.148958    0.369736    0.241352
      2          8           0        5.936182   -0.316064    0.498487
      3          6           0        5.552117   -1.192256   -0.556359
      4         14           0        3.890392   -2.027340   -0.127846
      5          6           0        3.527960   -3.323478   -1.453489
      6          6           0        3.970776   -2.790078    1.591578
      7          6           0        2.560311   -0.753062   -0.169893
      8          6           0        1.683827    0.100190   -0.178918
      9          6           0        0.626973    1.069868   -0.214262
     10          6           0        0.794943    2.310164    0.316674
     11         14           0       -0.257577    3.888252    0.291621
     12          6           0       -1.446430    3.933631    1.767796
     13          6           0        0.993066    5.296588    0.485939
     14          6           0       -1.202708    4.120473   -1.328556
     15          6           0       -0.605966    0.572330   -0.879476
     16          6           0       -1.830682    0.613355   -0.343182
     17          6           0       -3.056607    0.027645   -1.032138
     18          6           0       -4.081660    1.070996   -1.228710
     19          7           0       -4.876749    1.906607   -1.364679
     20          6           0       -3.624453   -1.153788   -0.243052
     21          6           0       -4.349126   -0.929142    0.977694
     22          6           0       -4.787949   -2.006028    1.668885
     23          8           0       -4.576816   -3.274481    1.270904
     24          6           0       -3.877844   -3.579644    0.080373
     25          8           0       -3.736660   -4.746685   -0.201487
     26          6           0       -3.408447   -2.429930   -0.668981
     27          1           0        7.349862    1.007189    1.105916
     28          1           0        7.985955   -0.333519    0.108594
     29          1           0        7.069796    0.996928   -0.659994
     30          1           0        5.463098   -0.639056   -1.507697
     31          1           0        6.324987   -1.967544   -0.712402
     32          1           0        2.562003   -3.806496   -1.270638
     33          1           0        4.297096   -4.104584   -1.457797
     34          1           0        3.493060   -2.876306   -2.452917
     35          1           0        4.216581   -2.026379    2.335635
     36          1           0        3.013947   -3.245919    1.867306
     37          1           0        4.743677   -3.566317    1.634012
     38          1           0        1.769634    2.452572    0.789622
     39          1           0       -1.920867    4.919729    1.839595
     40          1           0       -2.246673    3.191482    1.678398
     41          1           0       -0.918262    3.747954    2.709774
     42          1           0        0.485592    6.267982    0.507216
     43          1           0        1.708711    5.313333   -0.344089
     44          1           0        1.564363    5.200399    1.416699
     45          1           0       -0.536908    4.011861   -2.192088
     46          1           0       -2.029362    3.414905   -1.446242
     47          1           0       -1.626836    5.131286   -1.361796
     48          1           0       -0.458709    0.077760   -1.840233
     49          1           0       -1.989925    1.042897    0.642315
     50          1           0       -2.763775   -0.330243   -2.025366
     51          1           0       -4.565074    0.068511    1.339948
     52          1           0       -5.347806   -1.959545    2.595959
     53          1           0       -2.870346   -2.655482   -1.582702
 ---------------------------------------------------------------------
 Rotational constants (GHZ):           0.1612713           0.0921277           0.0637609
 Standard basis: 6-31+G(d,p) (6D, 7F)
 There are   637 symmetry adapted cartesian basis functions of A   symmetry.
 There are   637 symmetry adapted basis functions of A   symmetry.
   637 basis functions,  1069 primitive gaussians,   637 cartesian basis functions
   103 alpha electrons      103 beta electrons
       nuclear repulsion energy      2403.2740410525 Hartrees.
 NAtoms=   53 NActive=   53 NUniq=   53 SFac= 1.00D+00 NAtFMM=   60 NAOKFM=F Big=F
 Integral buffers will be    131072 words long.
 Regular integral format.
 Two-electron integral symmetry is turned on.
 One-electron integrals computed using PRISM.
 NBasis=   637 RedAO= T EigKep=  1.70D-06  NBF=   637
 NBsUse=   635 1.00D-06 EigRej=  5.44D-07 NBFU=   635
 ExpMin= 3.31D-02 ExpMax= 1.61D+04 ExpMxC= 2.43D+03 IAcc=3 IRadAn=         5 AccDes= 0.00D+00
 Harris functional with IExCor=  402 and IRadAn=       5 diagonalized for initial guess.
 HarFok:  IExCor=  402 AccDes= 0.00D+00 IRadAn=         5 IDoV= 1 UseB2=F ITyADJ=14
 ICtDFT=  3500011 ScaDFX=  1.000000  1.000000  1.000000  1.000000
 FoFCou: FMM=F IPFlag=           0 FMFlag=      100000 FMFlg1=           0
         NFxFlg=           0 DoJE=T BraDBF=F KetDBF=T FulRan=T
         wScrn=  0.000000 ICntrl=       500 IOpCl=  0 I1Cent=   200000004 NGrid=           0
         NMat0=    1 NMatS0=      1 NMatT0=    0 NMatD0=    1 NMtDS0=    0 NMtDT0=    0
 Petite list used in FoFCou.
 Requested convergence on RMS density matrix=1.00D-08 within 128 cycles.
 Requested convergence on MAX density matrix=1.00D-06.
 Requested convergence on             energy=1.00D-06.
 No special actions if energy rises.
 SCF Done:  E(RB3LYP) =  -1637.81321395     A.U. after   18 cycles
            NFock= 18  Conv=0.18D-08     -V/T= 2.0077
 DoSCS=F DFT=T ScalE2(SS,OS)=  1.000000  1.000000
 ExpMin= 3.31D-02 ExpMax= 1.61D+04 ExpMxC= 2.43D+03 IAcc=3 IRadAn=         5 AccDes= 0.00D+00
 HarFok:  IExCor=  205 AccDes= 0.00D+00 IRadAn=         5 IDoV=-2 UseB2=F ITyADJ=14
 ICtDFT= 12500011 ScaDFX=  1.000000  1.000000  1.000000  1.000000
 GSVD:  LWork=       -1428 too small for GESVD, short by        6290 words or        6290 for optimal perf.
 Range of M.O.s used for correlation:    35   635
 NBasis=   637 NAE=   103 NBE=   103 NFC=    34 NFV=     0
 NROrb=    601 NOA=    69 NOB=    69 NVA=   532 NVB=   532

 **** Warning!!: The largest alpha MO coefficient is  0.13060377D+03

 Orbital symmetries:
       Occupied  (A) (A) (A) (A) (A) (A) (A) (A) (A) (A) (A) (A)
                 (A) (A) (A) (A) (A) (A) (A) (A) (A) (A) (A) (A)
                 (A) (A) (A) (A) (A) (A) (A) (A) (A) (A) (A) (A)
                 (A) (A) (A) (A) (A) (A) (A) (A) (A) (A) (A) (A)
                 (A) (A) (A) (A) (A) (A) (A) (A) (A) (A) (A) (A)
                 (A) (A) (A) (A) (A) (A) (A) (A) (A) (A) (A) (A)
                 (A) (A) (A) (A) (A) (A) (A) (A) (A) (A) (A) (A)
                 (A) (A) (A) (A) (A) (A) (A) (A) (A) (A) (A) (A)
                 (A) (A) (A) (A) (A) (A) (A)
       Virtual   (A) (A) (A) (A) (A) (A) (A) (A) (A) (A) (A) (A)
                 (A) (A) (A) (A) (A) (A) (A) (A) (A) (A) (A) (A)
                 (A) (A) (A) (A) (A) (A) (A) (A) (A) (A) (A) (A)
                 (A) (A) (A) (A) (A) (A) (A) (A) (A) (A) (A) (A)
                 (A) (A) (A) (A) (A) (A) (A) (A) (A) (A) (A) (A)
                 (A) (A) (A) (A) (A) (A) (A) (A) (A) (A) (A) (A)
                 (A) (A) (A) (A) (A) (A) (A) (A) (A) (A) (A) (A)
                 (A) (A) (A) (A) (A) (A) (A) (A) (A) (A) (A) (A)
                 (A) (A) (A) (A) (A) (A) (A) (A) (A) (A) (A) (A)
                 (A) (A) (A) (A) (A) (A) (A) (A) (A) (A) (A) (A)
                 (A) (A) (A) (A) (A) (A) (A) (A) (A) (A) (A) (A)
                 (A) (A) (A) (A) (A) (A) (A) (A) (A) (A) (A) (A)
                 (A) (A) (A) (A) (A) (A) (A) (A) (A) (A) (A) (A)
                 (A) (A) (A) (A) (A) (A) (A) (A) (A) (A) (A) (A)
                 (A) (A) (A) (A) (A) (A) (A) (A) (A) (A) (A) (A)
                 (A) (A) (A) (A) (A) (A) (A) (A) (A) (A) (A) (A)
                 (A) (A) (A) (A) (A) (A) (A) (A) (A) (A) (A) (A)
                 (A) (A) (A) (A) (A) (A) (A) (A) (A) (A) (A) (A)
                 (A) (A) (A) (A) (A) (A) (A) (A) (A) (A) (A) (A)
                 (A) (A) (A) (A) (A) (A) (A) (A) (A) (A) (A) (A)
                 (A) (A) (A) (A) (A) (A) (A) (A) (A) (A) (A) (A)
                 (A) (A) (A) (A) (A) (A) (A) (A) (A) (A) (A) (A)
                 (A) (A) (A) (A) (A) (A) (A) (A) (A) (A) (A) (A)
                 (A) (A) (A) (A) (A) (A) (A) (A) (A) (A) (A) (A)
                 (A) (A) (A) (A) (A) (A) (A) (A) (A) (A) (A) (A)
                 (A) (A) (A) (A) (A) (A) (A) (A) (A) (A) (A) (A)
                 (A) (A) (A) (A) (A) (A) (A) (A) (A) (A) (A) (A)
                 (A) (A) (A) (A) (A) (A) (A) (A) (A) (A) (A) (A)
                 (A) (A) (A) (A) (A) (A) (A) (A) (A) (A) (A) (A)
                 (A) (A) (A) (A) (A) (A) (A) (A) (A) (A) (A) (A)
                 (A) (A) (A) (A) (A) (A) (A) (A) (A) (A) (A) (A)
                 (A) (A) (A) (A) (A) (A) (A) (A) (A) (A) (A) (A)
                 (A) (A) (A) (A) (A) (A) (A) (A) (A) (A) (A) (A)
                 (A) (A) (A) (A) (A) (A) (A) (A) (A) (A) (A) (A)
                 (A) (A) (A) (A) (A) (A) (A) (A) (A) (A) (A) (A)
                 (A) (A) (A) (A) (A) (A) (A) (A) (A) (A) (A) (A)
                 (A) (A) (A) (A) (A) (A) (A) (A) (A) (A) (A) (A)
                 (A) (A) (A) (A) (A) (A) (A) (A) (A) (A) (A) (A)
                 (A) (A) (A) (A) (A) (A) (A) (A) (A) (A) (A) (A)
                 (A) (A) (A) (A) (A) (A) (A) (A) (A) (A) (A) (A)
                 (A) (A) (A) (A) (A) (A) (A) (A) (A) (A) (A) (A)
                 (A) (A) (A) (A) (A) (A) (A) (A) (A) (A) (A) (A)
                 (A) (A) (A) (A) (A) (A) (A) (A) (A) (A) (A) (A)
                 (A) (A) (A) (A) (A) (A) (A) (A) (A) (A) (A) (A)
                 (A) (A) (A) (A)
    24 initial guesses have been made.
 Convergence on wavefunction:    0.001000000000000
 Iteration     1 Dimension    24 NMult     0 NNew     24
 CISAX will form    24 AO SS matrices at one time.
 New state      1 was old state      4
 New state      2 was old state      6
 New state      3 was old state      2
 New state      4 was old state      1
 New state      5 was old state     10
 New state      6 was old state     20
 New state      7 was old state      9
 New state      9 was old state      7
 New state     10 was old state     17
 New state     11 was old state     16
 New state     12 was old state     11
 Vector   5 SDiff=4.52D+01 TDiff=8.03D+00 assumed to be triplet.
 Vector   6 SDiff=1.04D+00 TDiff=1.29D+01 assumed to be singlet.
 Vector  11 SDiff=4.50D+01 TDiff=3.84D+00 assumed to be triplet.
 Vector  12 SDiff=1.05D+00 TDiff=1.25D+01 assumed to be singlet.
 Iteration     2 Dimension    36 NMult    24 NNew     12
 New state      1 was old state      2
 New state      2 was old state      1
 New state      5 was old state      7
 New state      6 was old state      9
 Iteration     3 Dimension    48 NMult    36 NNew     12
 Iteration     4 Dimension    60 NMult    48 NNew     12
 Iteration     5 Dimension    72 NMult    60 NNew     12
 Iteration     6 Dimension    84 NMult    72 NNew     12
 Iteration     7 Dimension    90 NMult    84 NNew      6
 Iteration     8 Dimension    94 NMult    90 NNew      4
 ***********************************************************************
 Excited states from <AA,BB:AA,BB> singles matrix:
 ***********************************************************************
 
 Ground to excited state transition densities written to RWF  633
 Ground to excited state transition electric dipole moments (Au):
       state          X           Y           Z        Dip. S.      Osc.
         1         0.0000     -0.0000      0.0000      0.0000      0.0000
         2         0.0000      0.0000     -0.0000      0.0000      0.0000
         3        -0.0000      0.0000     -0.0000      0.0000      0.0000
         4         0.1775      0.3875      0.0652      0.1859      0.0172
         5         0.1135     -0.5119     -0.6290      0.6705      0.0706
         6        -0.3461     -0.6730      0.0904      0.5808      0.0625
 Ground to excited state transition velocity dipole moments (Au):
       state          X           Y           Z        Dip. S.      Osc.
         1        -0.0000      0.0000     -0.0000      0.0000      0.0000
         2         0.0000     -0.0000     -0.0000      0.0000      0.0000
         3        -0.0000     -0.0000     -0.0000      0.0000      0.0000
         4        -0.0225     -0.0525     -0.0114      0.0034      0.0162
         5        -0.0206      0.0785      0.1009      0.0168      0.0708
         6         0.0511      0.1053     -0.0133      0.0139      0.0574
 Ground to excited state transition magnetic dipole moments (Au):
       state          X           Y           Z
         1         0.0000      0.0000      0.0000
         2         0.0000     -0.0000     -0.0000
         3        -0.0000      0.0000      0.0000
         4        -0.0899      0.0067      0.0600
         5         0.2874      0.7574     -0.5474
         6        -0.0830     -0.2031      0.2188
 Ground to excited state transition velocity quadrupole moments (Au):
       state          XX          YY          ZZ          XY          XZ          YZ
         1         0.0000      0.0000      0.0000      0.0000     -0.0000     -0.0000
         2         0.0000      0.0000     -0.0000     -0.0000      0.0000      0.0000
         3         0.0000      0.0000     -0.0000      0.0000     -0.0000     -0.0000
         4         0.2827     -0.1526     -0.0249      0.0750      0.0298     -0.0532
         5         0.9458     -0.8542      0.2794     -0.3451     -0.9705     -0.5328
         6        -0.7926      0.7278     -0.0829      0.1108      0.2216      0.2779
 <0|del|b> * <b|rxdel|0> + <0|del|b> * <b|delr+rdel|0>
 Rotatory Strengths (R) in cgs (10**-40 erg-esu-cm/Gauss)
       state          XX          YY          ZZ    R(velocity)    E-M Angle
         1         0.0000      0.0000     -0.0000     -0.0000       90.00
         2         0.0000      0.0000     -0.0000      0.0000       90.00
         3        -0.0000      0.0000     -0.0000     -0.0000       90.00
         4        -0.8240      8.6059     -2.7639      1.6727       80.99
         5       102.2065    -34.3291    -75.3557     -2.4928       90.76
         6      -107.6180     18.7020    -36.1736    -41.6965      141.42
 1/2[<0|r|b>*<b|rxdel|0> + (<0|rxdel|b>*<b|r|0>)*]
 Rotatory Strengths (R) in cgs (10**-40 erg-esu-cm/Gauss)
       state          XX          YY          ZZ     R(length)
         1        -0.0000      0.0000     -0.0000     -0.0000
         2        -0.0000      0.0000     -0.0000      0.0000
         3        -0.0000     -0.0000      0.0000     -0.0000
         4        11.2827     -1.8381     -2.7691      2.2252
         5       -23.0728    274.1625   -243.4883      2.5338
         6       -20.3071    -96.6319    -13.9821    -43.6404
  1/2[<0|del|b>*<b|r|0> + (<0|r|b>*<b|del|0>)*] (Au)
       state          X           Y           Z        Dip. S.   Osc.(frdel)
         1        -0.0000     -0.0000     -0.0000      0.0000      0.0000
         2         0.0000     -0.0000      0.0000     -0.0000     -0.0000
         3         0.0000     -0.0000      0.0000     -0.0000     -0.0000
         4        -0.0040     -0.0203     -0.0007      0.0251      0.0167
         5        -0.0023     -0.0402     -0.0634      0.1060      0.0707
         6        -0.0177     -0.0709     -0.0012      0.0898      0.0598

 Excitation energies and oscillator strengths:
 
 Excited State   1:      Triplet-A      2.6145 eV  474.21 nm  f=0.0000  <S**2>=2.000
     102 ->104         0.11570
     103 ->104        -0.21862
     103 ->105         0.62415
     103 ->106        -0.11547
     103 <-105         0.10620
 This state for optimization and/or second-order correction.
 Total Energy, E(TD-HF/TD-DFT) =  -1637.71713164    
 Copying the excited state density for this state as the 1-particle RhoCI density.
 
 Excited State   2:      Triplet-A      2.6527 eV  467.39 nm  f=0.0000  <S**2>=2.000
     102 ->104         0.66871
     102 ->105         0.12896
     103 ->105        -0.12548
 
 Excited State   3:      Triplet-A      3.6458 eV  340.07 nm  f=0.0000  <S**2>=2.000
      97 ->104        -0.10608
      97 ->105         0.14535
      99 ->104         0.20470
      99 ->105        -0.18929
      99 ->106        -0.12861
     100 ->104        -0.17606
     100 ->105         0.16055
     100 ->106         0.10156
     103 ->104         0.39022
     103 ->105         0.14285
     103 ->106        -0.23396
 
 Excited State   4:      Singlet-A      3.7848 eV  327.58 nm  f=0.0172  <S**2>=0.000
     103 ->104         0.70214
 
 Excited State   5:      Singlet-A      4.2984 eV  288.44 nm  f=0.0706  <S**2>=0.000
     102 ->104         0.68492
 
 Excited State   6:      Singlet-A      4.3900 eV  282.42 nm  f=0.0625  <S**2>=0.000
      98 ->104         0.11910
      99 ->105        -0.11297
     100 ->104         0.43021
     100 ->105        -0.35442
     101 ->104         0.11302
     102 ->104        -0.11466
     103 ->105         0.33402
 SavETr:  write IOETrn=   770 NScale= 10 NData=  16 NLR=1 NState=    6 LETran=     118.

 **********************************************************************

            Population analysis using the SCF Density.

 **********************************************************************

 Orbital symmetries:
       Occupied  (A) (A) (A) (A) (A) (A) (A) (A) (A) (A) (A) (A)
                 (A) (A) (A) (A) (A) (A) (A) (A) (A) (A) (A) (A)
                 (A) (A) (A) (A) (A) (A) (A) (A) (A) (A) (A) (A)
                 (A) (A) (A) (A) (A) (A) (A) (A) (A) (A) (A) (A)
                 (A) (A) (A) (A) (A) (A) (A) (A) (A) (A) (A) (A)
                 (A) (A) (A) (A) (A) (A) (A) (A) (A) (A) (A) (A)
                 (A) (A) (A) (A) (A) (A) (A) (A) (A) (A) (A) (A)
                 (A) (A) (A) (A) (A) (A) (A) (A) (A) (A) (A) (A)
                 (A) (A) (A) (A) (A) (A) (A)
       Virtual   (A) (A) (A) (A) (A) (A) (A) (A) (A) (A) (A) (A)
                 (A) (A) (A) (A) (A) (A) (A) (A) (A) (A) (A) (A)
                 (A) (A) (A) (A) (A) (A) (A) (A) (A) (A) (A) (A)
                 (A) (A) (A) (A) (A) (A) (A) (A) (A) (A) (A) (A)
                 (A) (A) (A) (A) (A) (A) (A) (A) (A) (A) (A) (A)
                 (A) (A) (A) (A) (A) (A) (A) (A) (A) (A) (A) (A)
                 (A) (A) (A) (A) (A) (A) (A) (A) (A) (A) (A) (A)
                 (A) (A) (A) (A) (A) (A) (A) (A) (A) (A) (A) (A)
                 (A) (A) (A) (A) (A) (A) (A) (A) (A) (A) (A) (A)
                 (A) (A) (A) (A) (A) (A) (A) (A) (A) (A) (A) (A)
                 (A) (A) (A) (A) (A) (A) (A) (A) (A) (A) (A) (A)
                 (A) (A) (A) (A) (A) (A) (A) (A) (A) (A) (A) (A)
                 (A) (A) (A) (A) (A) (A) (A) (A) (A) (A) (A) (A)
                 (A) (A) (A) (A) (A) (A) (A) (A) (A) (A) (A) (A)
                 (A) (A) (A) (A) (A) (A) (A) (A) (A) (A) (A) (A)
                 (A) (A) (A) (A) (A) (A) (A) (A) (A) (A) (A) (A)
                 (A) (A) (A) (A) (A) (A) (A) (A) (A) (A) (A) (A)
                 (A) (A) (A) (A) (A) (A) (A) (A) (A) (A) (A) (A)
                 (A) (A) (A) (A) (A) (A) (A) (A) (A) (A) (A) (A)
                 (A) (A) (A) (A) (A) (A) (A) (A) (A) (A) (A) (A)
                 (A) (A) (A) (A) (A) (A) (A) (A) (A) (A) (A) (A)
                 (A) (A) (A) (A) (A) (A) (A) (A) (A) (A) (A) (A)
                 (A) (A) (A) (A) (A) (A) (A) (A) (A) (A) (A) (A)
                 (A) (A) (A) (A) (A) (A) (A) (A) (A) (A) (A) (A)
                 (A) (A) (A) (A) (A) (A) (A) (A) (A) (A) (A) (A)
                 (A) (A) (A) (A) (A) (A) (A) (A) (A) (A) (A) (A)
                 (A) (A) (A) (A) (A) (A) (A) (A) (A) (A) (A) (A)
                 (A) (A) (A) (A) (A) (A) (A) (A) (A) (A) (A) (A)
                 (A) (A) (A) (A) (A) (A) (A) (A) (A) (A) (A) (A)
                 (A) (A) (A) (A) (A) (A) (A) (A) (A) (A) (A) (A)
                 (A) (A) (A) (A) (A) (A) (A) (A) (A) (A) (A) (A)
                 (A) (A) (A) (A) (A) (A) (A) (A) (A) (A) (A) (A)
                 (A) (A) (A) (A) (A) (A) (A) (A) (A) (A) (A) (A)
                 (A) (A) (A) (A) (A) (A) (A) (A) (A) (A) (A) (A)
                 (A) (A) (A) (A) (A) (A) (A) (A) (A) (A) (A) (A)
                 (A) (A) (A) (A) (A) (A) (A) (A) (A) (A) (A) (A)
                 (A) (A) (A) (A) (A) (A) (A) (A) (A) (A) (A) (A)
                 (A) (A) (A) (A) (A) (A) (A) (A) (A) (A) (A) (A)
                 (A) (A) (A) (A) (A) (A) (A) (A) (A) (A) (A) (A)
                 (A) (A) (A) (A) (A) (A) (A) (A) (A) (A) (A) (A)
                 (A) (A) (A) (A) (A) (A) (A) (A) (A) (A) (A) (A)
                 (A) (A) (A) (A) (A) (A) (A) (A) (A) (A) (A) (A)
                 (A) (A) (A) (A) (A) (A) (A) (A) (A) (A) (A) (A)
                 (A) (A) (A) (A) (A) (A) (A) (A) (A) (A) (A) (A)
                 (A) (A) (A) (A)
 The electronic state is 1-A.
 Alpha  occ. eigenvalues --  -66.14511 -66.13704 -19.24515 -19.16337 -19.15380
 Alpha  occ. eigenvalues --  -14.36491 -10.34016 -10.29831 -10.28177 -10.26832
 Alpha  occ. eigenvalues --  -10.25660 -10.24337 -10.23694 -10.23381 -10.23380
 Alpha  occ. eigenvalues --  -10.23267 -10.23215 -10.22492 -10.20341 -10.19811
 Alpha  occ. eigenvalues --  -10.18092 -10.17562 -10.17455 -10.17092 -10.17020
 Alpha  occ. eigenvalues --  -10.16984  -5.28825  -5.28056  -3.64808  -3.64678
 Alpha  occ. eigenvalues --   -3.64639  -3.63986  -3.63918  -3.63903  -1.13962
 Alpha  occ. eigenvalues --   -1.04977  -1.03695  -0.93553  -0.89137  -0.85325
 Alpha  occ. eigenvalues --   -0.81854  -0.79650  -0.75716  -0.73840  -0.72817
 Alpha  occ. eigenvalues --   -0.71670  -0.70518  -0.69333  -0.68752  -0.68707
 Alpha  occ. eigenvalues --   -0.68506  -0.65802  -0.64140  -0.63910  -0.58964
 Alpha  occ. eigenvalues --   -0.57477  -0.55603  -0.53899  -0.52041  -0.51039
 Alpha  occ. eigenvalues --   -0.49956  -0.49304  -0.48826  -0.48533  -0.47721
 Alpha  occ. eigenvalues --   -0.47490  -0.46699  -0.45457  -0.45400  -0.43964
 Alpha  occ. eigenvalues --   -0.42409  -0.42206  -0.41876  -0.41717  -0.41464
 Alpha  occ. eigenvalues --   -0.41289  -0.40447  -0.40249  -0.40059  -0.39977
 Alpha  occ. eigenvalues --   -0.39619  -0.39206  -0.38994  -0.38836  -0.38612
 Alpha  occ. eigenvalues --   -0.38595  -0.36451  -0.36192  -0.35423  -0.35295
 Alpha  occ. eigenvalues --   -0.34358  -0.34016  -0.32547  -0.32051  -0.31331
 Alpha  occ. eigenvalues --   -0.30826  -0.30332  -0.29824  -0.29273  -0.27356
 Alpha  occ. eigenvalues --   -0.26665  -0.26112  -0.24664
 Alpha virt. eigenvalues --   -0.08925  -0.07015  -0.03068  -0.02482  -0.01660
 Alpha virt. eigenvalues --   -0.01111  -0.00822  -0.00244   0.00102   0.00352
 Alpha virt. eigenvalues --    0.01050   0.01263   0.01561   0.01725   0.01897
 Alpha virt. eigenvalues --    0.02445   0.02634   0.02915   0.03361   0.03836
 Alpha virt. eigenvalues --    0.04372   0.04433   0.04811   0.05030   0.05206
 Alpha virt. eigenvalues --    0.05550   0.05699   0.06068   0.06161   0.06535
 Alpha virt. eigenvalues --    0.06770   0.06971   0.07259   0.07442   0.07602
 Alpha virt. eigenvalues --    0.07850   0.07961   0.08130   0.08504   0.08699
 Alpha virt. eigenvalues --    0.08837   0.09107   0.09191   0.09530   0.09933
 Alpha virt. eigenvalues --    0.09974   0.10153   0.10308   0.10474   0.10876
 Alpha virt. eigenvalues --    0.10917   0.11211   0.11587   0.11889   0.12144
 Alpha virt. eigenvalues --    0.12304   0.12533   0.12890   0.12961   0.13189
 Alpha virt. eigenvalues --    0.13615   0.13691   0.13982   0.14173   0.14700
 Alpha virt. eigenvalues --    0.14998   0.15154   0.15459   0.15567   0.15939
 Alpha virt. eigenvalues --    0.16236   0.16372   0.16553   0.16893   0.17028
 Alpha virt. eigenvalues --    0.17179   0.17275   0.17623   0.17668   0.18085
 Alpha virt. eigenvalues --    0.18323   0.18615   0.18703   0.18848   0.19229
 Alpha virt. eigenvalues --    0.19653   0.19731   0.19915   0.20425   0.20546
 Alpha virt. eigenvalues --    0.20686   0.21007   0.21254   0.21613   0.21889
 Alpha virt. eigenvalues --    0.22210   0.22559   0.22870   0.22987   0.23081
 Alpha virt. eigenvalues --    0.23238   0.23891   0.24110   0.24207   0.24683
 Alpha virt. eigenvalues --    0.25004   0.25152   0.25331   0.25702   0.25865
 Alpha virt. eigenvalues --    0.26160   0.26596   0.26859   0.26987   0.27242
 Alpha virt. eigenvalues --    0.27536   0.27683   0.28104   0.28135   0.28741
 Alpha virt. eigenvalues --    0.28978   0.29233   0.29962   0.30037   0.30244
 Alpha virt. eigenvalues --    0.30413   0.31137   0.31245   0.31404   0.31725
 Alpha virt. eigenvalues --    0.31996   0.32489   0.32871   0.33606   0.33856
 Alpha virt. eigenvalues --    0.34035   0.34303   0.34678   0.34762   0.35377
 Alpha virt. eigenvalues --    0.35912   0.36506   0.36804   0.36965   0.37279
 Alpha virt. eigenvalues --    0.37661   0.38363   0.38488   0.39507   0.40786
 Alpha virt. eigenvalues --    0.40916   0.41394   0.41691   0.42472   0.42917
 Alpha virt. eigenvalues --    0.43124   0.43896   0.45015   0.46126   0.46701
 Alpha virt. eigenvalues --    0.47440   0.48240   0.48641   0.49368   0.50723
 Alpha virt. eigenvalues --    0.52552   0.53159   0.55334   0.55541   0.55834
 Alpha virt. eigenvalues --    0.56598   0.60206   0.60793   0.62057   0.63293
 Alpha virt. eigenvalues --    0.64843   0.65387   0.65906   0.66740   0.67974
 Alpha virt. eigenvalues --    0.69437   0.70490   0.70977   0.71529   0.71888
 Alpha virt. eigenvalues --    0.72286   0.72967   0.73072   0.73867   0.73958
 Alpha virt. eigenvalues --    0.74143   0.74459   0.75175   0.76533   0.77188
 Alpha virt. eigenvalues --    0.77748   0.77942   0.78596   0.79092   0.79484
 Alpha virt. eigenvalues --    0.80226   0.80508   0.80624   0.80942   0.81276
 Alpha virt. eigenvalues --    0.82157   0.82644   0.83219   0.83693   0.84126
 Alpha virt. eigenvalues --    0.84454   0.84828   0.85133   0.86245   0.86770
 Alpha virt. eigenvalues --    0.87073   0.87412   0.87632   0.87860   0.88029
 Alpha virt. eigenvalues --    0.89107   0.89512   0.90005   0.90356   0.90807
 Alpha virt. eigenvalues --    0.91019   0.91116   0.91526   0.92789   0.93268
 Alpha virt. eigenvalues --    0.93523   0.94378   0.95096   0.95625   0.96103
 Alpha virt. eigenvalues --    0.97041   0.97366   0.97933   0.98081   0.98966
 Alpha virt. eigenvalues --    0.99522   0.99845   1.00551   1.01050   1.01748
 Alpha virt. eigenvalues --    1.02278   1.02669   1.03725   1.04088   1.04770
 Alpha virt. eigenvalues --    1.05393   1.05783   1.06102   1.06662   1.06841
 Alpha virt. eigenvalues --    1.08007   1.08260   1.09212   1.10189   1.10323
 Alpha virt. eigenvalues --    1.12685   1.12903   1.13240   1.15177   1.15754
 Alpha virt. eigenvalues --    1.16637   1.17529   1.18073   1.18344   1.19212
 Alpha virt. eigenvalues --    1.19888   1.20898   1.21087   1.21498   1.22468
 Alpha virt. eigenvalues --    1.22637   1.23431   1.24931   1.25880   1.26961
 Alpha virt. eigenvalues --    1.27238   1.28278   1.29159   1.29770   1.30470
 Alpha virt. eigenvalues --    1.31137   1.32417   1.33500   1.34202   1.34667
 Alpha virt. eigenvalues --    1.35621   1.36100   1.36474   1.36658   1.36935
 Alpha virt. eigenvalues --    1.38114   1.38376   1.38990   1.41664   1.42054
 Alpha virt. eigenvalues --    1.43757   1.44270   1.45367   1.45763   1.46299
 Alpha virt. eigenvalues --    1.46636   1.47658   1.48314   1.49252   1.50985
 Alpha virt. eigenvalues --    1.51669   1.52851   1.53651   1.53985   1.55705
 Alpha virt. eigenvalues --    1.55919   1.56520   1.56947   1.58157   1.59371
 Alpha virt. eigenvalues --    1.60929   1.61722   1.62843   1.64702   1.65945
 Alpha virt. eigenvalues --    1.66130   1.67792   1.69202   1.69658   1.71338
 Alpha virt. eigenvalues --    1.71687   1.73391   1.74025   1.75630   1.77076
 Alpha virt. eigenvalues --    1.78290   1.79059   1.79228   1.80581   1.81311
 Alpha virt. eigenvalues --    1.82666   1.84459   1.85276   1.85764   1.86744
 Alpha virt. eigenvalues --    1.90130   1.90666   1.91927   1.92611   1.93512
 Alpha virt. eigenvalues --    1.94147   1.95141   1.96015   1.97162   1.97465
 Alpha virt. eigenvalues --    1.98418   1.98482   1.99049   2.01054   2.01704
 Alpha virt. eigenvalues --    2.02531   2.03102   2.03882   2.04242   2.04446
 Alpha virt. eigenvalues --    2.04664   2.05109   2.05696   2.05836   2.07237
 Alpha virt. eigenvalues --    2.07397   2.07706   2.09923   2.10808   2.11054
 Alpha virt. eigenvalues --    2.11422   2.11580   2.12285   2.12416   2.12779
 Alpha virt. eigenvalues --    2.13162   2.13606   2.13671   2.14171   2.14440
 Alpha virt. eigenvalues --    2.14657   2.15692   2.16028   2.16263   2.16909
 Alpha virt. eigenvalues --    2.17874   2.20178   2.20726   2.21166   2.21648
 Alpha virt. eigenvalues --    2.25643   2.26537   2.27427   2.28258   2.28741
 Alpha virt. eigenvalues --    2.30375   2.31334   2.32158   2.32540   2.33890
 Alpha virt. eigenvalues --    2.34057   2.34211   2.35307   2.36469   2.36992
 Alpha virt. eigenvalues --    2.37159   2.37304   2.37758   2.39893   2.40216
 Alpha virt. eigenvalues --    2.41157   2.41568   2.43984   2.45686   2.48023
 Alpha virt. eigenvalues --    2.48517   2.49994   2.52017   2.53679   2.54846
 Alpha virt. eigenvalues --    2.55948   2.56203   2.56803   2.56908   2.58713
 Alpha virt. eigenvalues --    2.60523   2.61206   2.62429   2.63766   2.64282
 Alpha virt. eigenvalues --    2.64463   2.65729   2.65977   2.66522   2.67279
 Alpha virt. eigenvalues --    2.67525   2.69077   2.69465   2.69874   2.71719
 Alpha virt. eigenvalues --    2.72857   2.74237   2.75611   2.77156   2.79784
 Alpha virt. eigenvalues --    2.80450   2.80855   2.81647   2.82875   2.83287
 Alpha virt. eigenvalues --    2.83514   2.83851   2.84477   2.84583   2.85010
 Alpha virt. eigenvalues --    2.85281   2.85734   2.85933   2.86534   2.87965
 Alpha virt. eigenvalues --    2.89824   2.91525   2.93514   2.96216   2.98072
 Alpha virt. eigenvalues --    3.00571   3.02754   3.05644   3.09392   3.13644
 Alpha virt. eigenvalues --    3.15048   3.19196   3.22195   3.23390   3.23667
 Alpha virt. eigenvalues --    3.23937   3.24180   3.24459   3.25121   3.25537
 Alpha virt. eigenvalues --    3.26995   3.28983   3.31623   3.34780   3.40610
 Alpha virt. eigenvalues --    3.40919   3.42977   3.44290   3.44663   3.44741
 Alpha virt. eigenvalues --    3.44900   3.45310   3.45512   3.45900   3.46205
 Alpha virt. eigenvalues --    3.46303   3.46943   3.47558   3.48262   3.48569
 Alpha virt. eigenvalues --    3.49713   3.57566   3.74735   4.23441   4.28229
 Alpha virt. eigenvalues --    4.29734   4.31764   4.33935   4.36727   4.39612
 Alpha virt. eigenvalues --    4.41434   4.44211   4.45394   4.46353   4.49370
 Alpha virt. eigenvalues --    4.49556   4.51111   4.51332   4.53109   4.53737
 Alpha virt. eigenvalues --    4.55579   4.59051   4.61080   4.68423   4.77352
 Alpha virt. eigenvalues --    4.81809   4.88443
          Condensed to atoms (all electrons):
 Mulliken charges:
               1
     1  C   -0.174413
     2  O   -0.300694
     3  C   -0.516960
     4  Si   1.375671
     5  C   -0.695480
     6  C   -0.688957
     7  C   -0.778693
     8  C    0.436856
     9  C   -0.159898
    10  C   -0.885176
    11  Si   1.191925
    12  C   -0.635725
    13  C   -0.707360
    14  C   -0.691972
    15  C   -0.087728
    16  C   -0.181739
    17  C    0.558101
    18  C   -0.432086
    19  N   -0.349851
    20  C   -0.193476
    21  C    0.078336
    22  C    0.040815
    23  O   -0.312561
    24  C    0.240588
    25  O   -0.466870
    26  C    0.146741
    27  H    0.144004
    28  H    0.123773
    29  H    0.125949
    30  H    0.133593
    31  H    0.129919
    32  H    0.171469
    33  H    0.162478
    34  H    0.164720
    35  H    0.184379
    36  H    0.165543
    37  H    0.159332
    38  H    0.152352
    39  H    0.164340
    40  H    0.150765
    41  H    0.165577
    42  H    0.160933
    43  H    0.165832
    44  H    0.163469
    45  H    0.162804
    46  H    0.180174
    47  H    0.162710
    48  H    0.133116
    49  H    0.141388
    50  H    0.170080
    51  H    0.151320
    52  H    0.158356
    53  H    0.142231
 Sum of Mulliken charges =  -0.00000
 Mulliken charges with hydrogens summed into heavy atoms:
               1
     1  C    0.219312
     2  O   -0.300694
     3  C   -0.253448
     4  Si   1.375671
     5  C   -0.196813
     6  C   -0.179703
     7  C   -0.778693
     8  C    0.436856
     9  C   -0.159898
    10  C   -0.732825
    11  Si   1.191925
    12  C   -0.155042
    13  C   -0.217126
    14  C   -0.186284
    15  C    0.045389
    16  C   -0.040351
    17  C    0.728181
    18  C   -0.432086
    19  N   -0.349851
    20  C   -0.193476
    21  C    0.229656
    22  C    0.199172
    23  O   -0.312561
    24  C    0.240588
    25  O   -0.466870
    26  C    0.288972
 Electronic spatial extent (au):  <R**2>=          16559.8501
 Charge=             -0.0000 electrons
 Dipole moment (field-independent basis, Debye):
    X=              3.5108    Y=              2.4486    Z=              0.4288  Tot=              4.3017
 Quadrupole moment (field-independent basis, Debye-Ang):
   XX=           -174.8133   YY=           -197.3301   ZZ=           -167.6450
   XY=             -8.2237   XZ=            -16.4186   YZ=              5.0263
 Traceless Quadrupole moment (field-independent basis, Debye-Ang):
   XX=              5.1162   YY=            -17.4007   ZZ=             12.2845
   XY=             -8.2237   XZ=            -16.4186   YZ=              5.0263
 Octapole moment (field-independent basis, Debye-Ang**2):
  XXX=            224.6684  YYY=            140.2949  ZZZ=             11.7360  XYY=            156.5142
  XXY=            -31.1267  XXZ=             54.6529  XZZ=            -16.9794  YZZ=            -20.2477
  YYZ=             17.7208  XYZ=             -7.3614
 Hexadecapole moment (field-independent basis, Debye-Ang**3):
 XXXX=         -13290.1959 YYYY=          -8545.9734 ZZZZ=          -1200.5033 XXXY=            236.0946
 XXXZ=           -560.5418 YYYX=           -586.5047 YYYZ=             -3.3501 ZZZX=            -70.2837
 ZZZY=             -9.9764 XXYY=          -4068.5800 XXZZ=          -2442.0303 YYZZ=          -1532.8573
 XXYZ=             90.8470 YYXZ=            -56.8402 ZZXY=            126.8000
 N-N= 2.403274041053D+03 E-N=-8.641933637710D+03  KE= 1.625319648285D+03
 Unable to Open any file for archive entry.
 1\1\GINC-N2\SP\RB3LYP TD-FC\6-31+G(d,p)\C20H27N1O3Si2\HPCMGAC13\26-Aug
 -2025\0\\# td=(50-50,nstates=3) b3lyp/6-31+g(d,p) geom=connectivity\\T
 itle Card Required\\0,1\C,0,7.148958,0.369736,0.241352\O,0,5.936182,-0
 .316064,0.498487\C,0,5.552117,-1.192256,-0.556359\Si,0,3.890392,-2.027
 34,-0.127846\C,0,3.52796,-3.323478,-1.453489\C,0,3.970776,-2.790078,1.
 591578\C,0,2.560311,-0.753062,-0.169893\C,0,1.683827,0.10019,-0.178918
 \C,0,0.626973,1.069868,-0.214262\C,0,0.794943,2.310164,0.316674\Si,0,-
 0.257577,3.888252,0.291621\C,0,-1.44643,3.933631,1.767796\C,0,0.993066
 ,5.296588,0.485939\C,0,-1.202708,4.120473,-1.328556\C,0,-0.605966,0.57
 233,-0.879476\C,0,-1.830682,0.613355,-0.343182\C,0,-3.056607,0.027645,
 -1.032138\C,0,-4.08166,1.070996,-1.22871\N,0,-4.876749,1.906607,-1.364
 679\C,0,-3.624453,-1.153788,-0.243052\C,0,-4.349126,-0.929142,0.977694
 \C,0,-4.787949,-2.006028,1.668885\O,0,-4.576816,-3.274481,1.270904\C,0
 ,-3.877844,-3.579644,0.080373\O,0,-3.73666,-4.746685,-0.201487\C,0,-3.
 408447,-2.42993,-0.668981\H,0,7.349862,1.007189,1.105916\H,0,7.985955,
 -0.333519,0.108594\H,0,7.069796,0.996928,-0.659994\H,0,5.463098,-0.639
 056,-1.507697\H,0,6.324987,-1.967544,-0.712402\H,0,2.562003,-3.806496,
 -1.270638\H,0,4.297096,-4.104584,-1.457797\H,0,3.49306,-2.876306,-2.45
 2917\H,0,4.216581,-2.026379,2.335635\H,0,3.013947,-3.245919,1.867306\H
 ,0,4.743677,-3.566317,1.634012\H,0,1.769634,2.452572,0.789622\H,0,-1.9
 20867,4.919729,1.839595\H,0,-2.246673,3.191482,1.678398\H,0,-0.918262,
 3.747954,2.709774\H,0,0.485592,6.267982,0.507216\H,0,1.708711,5.313333
 ,-0.344089\H,0,1.564363,5.200399,1.416699\H,0,-0.536908,4.011861,-2.19
 2088\H,0,-2.029362,3.414905,-1.446242\H,0,-1.626836,5.131286,-1.361796
 \H,0,-0.458709,0.07776,-1.840233\H,0,-1.989925,1.042897,0.642315\H,0,-
 2.763775,-0.330243,-2.025366\H,0,-4.565074,0.068511,1.339948\H,0,-5.34
 7806,-1.959545,2.595959\H,0,-2.870346,-2.655482,-1.582702\\Version=ES6
 4L-G16RevC.02\State=1-A\HF=-1637.813214\RMSD=1.818e-09\PG=C01 [X(C20H2
 7N1O3Si2)]\\@
 The archive entry for this job was punched.


 We're simply so accustomed to the marvels of everyday thought
 that we never wonder about it.
 -- Marvin Minsky in "Why people think computers are smart"
 Job cpu time:       0 days  2 hours 50 minutes 17.2 seconds.
 Elapsed time:       0 days  0 hours 10 minutes 57.3 seconds.
 File lengths (MBytes):  RWF=   2117 Int=      0 D2E=      0 Chk=    103 Scr=      2
 Normal termination of Gaussian 16 at Tue Aug 26 09:13:50 2025.
