 Entering Gaussian System, Link 0=g16
 Input=M679E.gjf
 Output=M679E.log
 Initial command:
 /hpc/softwares/Gaussian/g16/l1.exe "/hpc/home/hpcmgac13/pbs.13483.admin1.x8z/Gau-3336449.inp" -scrdir="/hpc/home/hpcmgac13/pbs.13483.admin1.x8z/"
 Default linda workers: n2
 Default is to use  16 SMP processors on each worker.
 Entering Link 1 = /hpc/softwares/Gaussian/g16/l1.exe PID=   3336450.
  
 Copyright (c) 1988-2021, Gaussian, Inc.  All Rights Reserved.
  
 This is part of the Gaussian(R) 16 program.  It is based on
 the Gaussian(R) 09 system (copyright 2009, Gaussian, Inc.),
 the Gaussian(R) 03 system (copyright 2003, Gaussian, Inc.),
 the Gaussian(R) 98 system (copyright 1998, Gaussian, Inc.),
 the Gaussian(R) 94 system (copyright 1995, Gaussian, Inc.),
 the Gaussian 92(TM) system (copyright 1992, Gaussian, Inc.),
 the Gaussian 90(TM) system (copyright 1990, Gaussian, Inc.),
 the Gaussian 88(TM) system (copyright 1988, Gaussian, Inc.),
 the Gaussian 86(TM) system (copyright 1986, Carnegie Mellon
 University), and the Gaussian 82(TM) system (copyright 1983,
 Carnegie Mellon University). Gaussian is a federally registered
 trademark of Gaussian, Inc.
  
 This software contains proprietary and confidential information,
 including trade secrets, belonging to Gaussian, Inc.
  
 This software is provided under written license and may be
 used, copied, transmitted, or stored only in accord with that
 written license.
  
 The following legend is applicable only to US Government
 contracts under FAR:
  
                    RESTRICTED RIGHTS LEGEND
  
 Use, reproduction and disclosure by the US Government is
 subject to restrictions as set forth in subparagraphs (a)
 and (c) of the Commercial Computer Software - Restricted
 Rights clause in FAR 52.227-19.
  
 Gaussian, Inc.
 340 Quinnipiac St., Bldg. 40, Wallingford CT 06492
  
  
 ---------------------------------------------------------------
 Warning -- This program may not be used in any manner that
 competes with the business of Gaussian, Inc. or will provide
 assistance to any competitor of Gaussian, Inc.  The licensee
 of this program is prohibited from giving any competitor of
 Gaussian, Inc. access to this program.  By using this program,
 the user acknowledges that Gaussian, Inc. is engaged in the
 business of creating and licensing software in the field of
 computational chemistry and represents and warrants to the
 licensee that it is not a competitor of Gaussian, Inc. and that
 it will not use this program in any manner prohibited above.
 ---------------------------------------------------------------
  

 Cite this work as:
 Gaussian 16, Revision C.02,
 M. J. Frisch, G. W. Trucks, H. B. Schlegel, G. E. Scuseria, 
 M. A. Robb, J. R. Cheeseman, G. Scalmani, V. Barone, 
 G. A. Petersson, H. Nakatsuji, X. Li, M. Caricato, A. V. Marenich, 
 J. Bloino, B. G. Janesko, R. Gomperts, B. Mennucci, H. P. Hratchian, 
 J. V. Ortiz, A. F. Izmaylov, J. L. Sonnenberg, D. Williams-Young, 
 F. Ding, F. Lipparini, F. Egidi, J. Goings, B. Peng, A. Petrone, 
 T. Henderson, D. Ranasinghe, V. G. Zakrzewski, J. Gao, N. Rega, 
 G. Zheng, W. Liang, M. Hada, M. Ehara, K. Toyota, R. Fukuda, 
 J. Hasegawa, M. Ishida, T. Nakajima, Y. Honda, O. Kitao, H. Nakai, 
 T. Vreven, K. Throssell, J. A. Montgomery, Jr., J. E. Peralta, 
 F. Ogliaro, M. J. Bearpark, J. J. Heyd, E. N. Brothers, K. N. Kudin, 
 V. N. Staroverov, T. A. Keith, R. Kobayashi, J. Normand, 
 K. Raghavachari, A. P. Rendell, J. C. Burant, S. S. Iyengar, 
 J. Tomasi, M. Cossi, J. M. Millam, M. Klene, C. Adamo, R. Cammi, 
 J. W. Ochterski, R. L. Martin, K. Morokuma, O. Farkas, 
 J. B. Foresman, and D. J. Fox, Gaussian, Inc., Wallingford CT, 2019.
 
 ******************************************
 Gaussian 16:  ES64L-G16RevC.02  7-Dec-2021
                26-Aug-2025 
 ******************************************
 SetLPE:    new flags="-opt 'Tsnet.Node.lindarsharg: ssh'  -nodelist 'n2.head.cm.mguif.local' -env GAUSS_MDEF=4294967296 -env GAUSS_EXEDIR="/hpc/softwares/Gaussian/g16/bsd:/hpc/softwares/Gaussian/g16""
 Will use up to    1 processors via Linda.
 ----------------------------------------------------------
 # td=(50-50,nstates=3) b3lyp/6-31+g(d,p) geom=connectivity
 ----------------------------------------------------------
 1/38=1,57=2,172=1/1;
 2/12=2,17=6,18=5,40=1/2;
 3/5=1,6=6,7=111,11=9,25=1,30=1,74=-5/1,2,3,8;
 4//1;
 5/5=2,38=5/2;
 8/6=1,10=2,108=3/1;
 9/41=3,42=1,48=2,70=2/14;
 6/7=2,8=2,9=2,10=2/1;
 99/5=1,9=1/99;
 -------------------
 Title Card Required
 -------------------
 Symbolic Z-matrix:
 Charge =  0 Multiplicity = 1
 C                     0.37157   3.56459  -0.30381 
 C                    -0.07725   2.31084  -0.16447 
 C                    -1.46295   1.76627  -0.11296 
 C                    -2.81228   2.08264  -0.15216 
 C                    -3.70251   1.00485  -0.03028 
 C                    -3.23591  -0.31931   0.12789 
 C                    -4.19488  -1.3801    0.25118 
 N                    -4.9687   -2.24492   0.34933 
 C                    -1.85453  -0.63105   0.16971 
 C                    -0.99409   0.44552   0.03885 
 C                     0.42563   0.87943  -0.00611 
 C                     1.54533   0.12761   0.10768 
 C                     3.00624   0.5291    0.12555 
 C                     3.30226   1.95854  -0.33731 
 C                     3.60765   0.27732   1.52749 
 O                     1.28344  -1.20457   0.37096 
 C                     2.01437  -2.25463  -0.31353 
 C                     1.57625  -3.55351   0.35156 
 C                     1.72942  -2.22867  -1.81415 
 H                     1.41876   3.82938  -0.33061 
 H                    -0.34312   4.37668  -0.4001 
 H                    -3.18458   3.09583  -0.26784 
 H                    -4.7732    1.17899  -0.05336 
 H                    -1.51746  -1.6513    0.30389 
 H                     3.52436  -0.13853  -0.57646 
 H                     4.3834    2.08696  -0.45322 
 H                     2.83059   2.18445  -1.29772 
 H                     2.96535   2.68929   0.40268 
 H                     4.68629   0.46798   1.51525 
 H                     3.44355  -0.74981   1.86363 
 H                     3.15035   0.94744   2.26349 
 H                     3.08929  -2.11717  -0.13906 
 H                     2.12506  -4.39878  -0.07576 
 H                     1.76999  -3.52088   1.42744 
 H                     0.50583  -3.72493   0.19874 
 H                     2.29296  -3.02167  -2.31729 
 H                     2.01678  -1.27254  -2.26275 
 H                     0.66308  -2.38712  -2.00468 
 
                          Input orientation:                          
 ---------------------------------------------------------------------
 Center     Atomic      Atomic             Coordinates (Angstroms)
 Number     Number       Type             X           Y           Z
 ---------------------------------------------------------------------
      1          6           0        0.371574    3.564587   -0.303810
      2          6           0       -0.077245    2.310844   -0.164472
      3          6           0       -1.462951    1.766270   -0.112955
      4          6           0       -2.812280    2.082645   -0.152164
      5          6           0       -3.702512    1.004848   -0.030279
      6          6           0       -3.235907   -0.319305    0.127887
      7          6           0       -4.194877   -1.380101    0.251181
      8          7           0       -4.968695   -2.244921    0.349327
      9          6           0       -1.854528   -0.631048    0.169705
     10          6           0       -0.994085    0.445520    0.038854
     11          6           0        0.425629    0.879428   -0.006114
     12          6           0        1.545334    0.127607    0.107683
     13          6           0        3.006242    0.529103    0.125553
     14          6           0        3.302261    1.958543   -0.337306
     15          6           0        3.607645    0.277324    1.527487
     16          8           0        1.283442   -1.204569    0.370958
     17          6           0        2.014370   -2.254632   -0.313529
     18          6           0        1.576250   -3.553514    0.351560
     19          6           0        1.729423   -2.228665   -1.814153
     20          1           0        1.418755    3.829375   -0.330612
     21          1           0       -0.343119    4.376680   -0.400099
     22          1           0       -3.184584    3.095830   -0.267838
     23          1           0       -4.773204    1.178985   -0.053360
     24          1           0       -1.517464   -1.651298    0.303891
     25          1           0        3.524355   -0.138531   -0.576460
     26          1           0        4.383401    2.086962   -0.453220
     27          1           0        2.830589    2.184445   -1.297719
     28          1           0        2.965352    2.689286    0.402683
     29          1           0        4.686288    0.467977    1.515248
     30          1           0        3.443545   -0.749806    1.863626
     31          1           0        3.150354    0.947437    2.263492
     32          1           0        3.089288   -2.117170   -0.139059
     33          1           0        2.125062   -4.398777   -0.075760
     34          1           0        1.769992   -3.520877    1.427437
     35          1           0        0.505833   -3.724931    0.198739
     36          1           0        2.292963   -3.021671   -2.317288
     37          1           0        2.016784   -1.272539   -2.262752
     38          1           0        0.663080   -2.387115   -2.004684
 ---------------------------------------------------------------------
                    Distance matrix (angstroms):
                    1          2          3          4          5
     1  C    0.000000
     2  C    1.338927   0.000000
     3  C    2.576015   1.489764   0.000000
     4  C    3.515121   2.744566   1.386477   0.000000
     5  C    4.819259   3.855670   2.366904   1.403216   0.000000
     6  C    5.318355   4.120716   2.747908   2.455046   1.412840
     7  C    6.753549   5.545335   4.182782   3.750316   2.451454
     8  N    7.918045   6.704123   5.347298   4.861013   3.508321
     9  C    4.773165   3.453279   2.445478   2.895690   2.476125
    10  C    3.422137   2.088389   1.409703   2.454078   2.766442
    11  C    2.702152   1.525422   2.089172   3.457328   4.130116
    12  C    3.655116   2.733744   3.432736   4.783147   5.322450
    13  C    4.042275   3.573039   4.643399   6.028749   6.727406
    14  C    3.342069   3.402212   4.774364   6.118602   7.076061
    15  C    4.963054   4.536115   5.533440   6.877198   7.509615
    16  O    4.902210   3.807398   4.074645   5.277724   5.468295
    17  C    6.046667   5.024007   5.319741   6.491114   6.586895
    18  C    7.249008   6.114820   6.144316   7.160951   6.984969
    19  C    6.138946   5.156805   5.389326   6.478940   6.568389
    20  H    1.080472   2.138119   3.550775   4.580891   5.856238
    21  H    1.086072   2.096160   2.854946   3.379471   4.774049
    22  H    3.587100   3.206625   2.180766   1.085603   2.167231
    23  H    5.676492   4.831716   3.362474   2.161385   1.085006
    24  H    5.580611   4.241717   3.443327   3.978299   3.455606
    25  H    4.871083   4.375008   5.358762   6.728045   7.337114
    26  H    4.277903   4.475585   5.865020   7.201977   8.168956
    27  H    2.989883   3.123415   4.473592   5.758874   6.758643
    28  H    2.827184   3.118057   4.552769   5.835829   6.890950
    29  H    5.613798   5.376696   6.492284   7.849582   8.546862
    30  H    5.722654   5.086917   5.857577   7.156922   7.598146
    31  H    4.600232   4.262779   5.253625   6.532771   7.226787
    32  H    6.300434   5.443793   5.983700   7.243419   7.475786
    33  H    8.157321   7.062368   7.133234   8.148130   7.947443
    34  H    7.426748   6.321031   6.385816   7.408901   7.249512
    35  H    7.308054   6.074741   5.841794   6.697831   6.335095
    36  H    7.150149   6.219985   6.472276   7.536930   7.575552
    37  H    5.471924   4.650631   5.095541   6.247536   6.548341
    38  H    6.196830   5.099537   5.034804   5.957240   5.870441
                    6          7          8          9         10
     6  C    0.000000
     7  C    1.435309   0.000000
     8  N    2.599921   1.164620   0.000000
     9  C    1.416736   2.458648   3.512106   0.000000
    10  C    2.370369   3.690941   4.809614   1.384371   0.000000
    11  C    3.855096   5.149830   6.243927   2.740724   1.485223
    12  C    4.802125   5.936649   6.936848   3.484030   2.560167
    13  C    6.299542   7.450970   8.446591   4.997498   4.002139
    14  C    6.939210   8.227997   9.303187   5.792712   4.570484
    15  C    7.010638   8.078079   9.016839   5.701232   4.839446
    16  O    4.611647   5.482439   6.338140   3.196292   2.831999
    17  C    5.612998   6.295907   7.014461   4.223495   4.057807
    18  C    5.802326   6.167634   6.674483   4.510445   4.764103
    19  C    5.663186   6.331113   7.038870   4.396905   4.242923
    20  H    6.252011   7.680494   8.840753   5.555184   4.172383
    21  H    5.540692   6.957064   8.111917   5.261784   4.008797
    22  H    3.438369   4.617795   5.664589   3.981220   3.452027
    23  H    2.154299   2.641236   3.453043   3.441605   3.850742
    24  H    2.181337   2.691629   3.502206   1.082833   2.177341
    25  H    6.799259   7.862126   8.799196   5.452680   4.597393
    26  H    8.011346   9.279200  10.337843   6.832816   5.643919
    27  H    6.715913   8.028839   9.119258   5.659563   4.408902
    28  H    6.898025   8.237217   9.343358   5.857486   4.565523
    29  H    8.081198   9.159058  10.096429   6.767615   5.869147
    30  H    6.914709   7.832161   8.677226   5.563546   4.944811
    31  H    6.851990   7.963620   8.931637   5.650168   4.730466
    32  H    6.581160   7.331754   8.073780   5.171577   4.824206
    33  H    6.739700   7.011485   7.425711   5.485724   5.762762
    34  H    6.082591   6.445631   6.942643   4.803139   5.029969
    35  H    5.060032   5.253347   5.673056   3.891563   4.434859
    36  H    6.621938   7.168253   7.774693   5.394617   5.327054
    37  H    5.849322   6.701952   7.520997   4.616862   4.161063
    38  H    4.901612   5.450023   6.105610   3.761660   3.866014
                   11         12         13         14         15
    11  C    0.000000
    12  C    1.353486   0.000000
    13  C    2.607609   1.515180   0.000000
    14  C    3.090176   2.576264   1.531393   0.000000
    15  C    3.583251   2.508263   1.546123   2.529271   0.000000
    16  O    2.284966   1.382966   2.456396   3.818710   2.989228
    17  C    3.527171   2.464240   2.987605   4.405686   3.512644
    18  C    4.593782   3.689320   4.331711   5.816908   4.492737
    19  C    3.824804   3.046204   3.605275   4.710372   4.579766
    20  H    3.129502   3.729774   3.690528   2.654741   4.567367
    21  H    3.602356   4.677469   5.128194   4.374943   6.010727
    22  H    4.244358   5.596739   6.713358   6.586153   7.569778
    23  H    5.207670   6.407437   7.808594   8.117972   8.576170
    24  H    3.205665   3.547356   5.024925   6.055727   5.611017
    25  H    3.311138   2.110783   1.098635   2.122319   2.146268
    26  H    4.161971   3.494039   2.158349   1.094893   2.792810
    27  H    3.025747   2.803144   2.190140   1.093572   3.496100
    28  H    3.145297   2.943752   2.178271   1.093196   2.737752
    29  H    4.542802   3.458711   2.181179   2.751231   1.095431
    30  H    3.906168   2.730640   2.201758   3.492738   1.093121
    31  H    3.546810   2.809933   2.183244   2.794559   1.095386
    32  H    4.011528   2.735635   2.660766   4.086086   2.963051
    33  H    5.545482   4.567044   5.010090   6.470682   5.160850
    34  H    4.819239   3.886342   4.430074   5.957030   4.220582
    35  H    4.609612   3.991353   4.934998   6.356826   5.234965
    36  H    4.903778   4.044426   4.368551   5.453581   5.233933
    37  H    3.500736   2.793141   3.151022   3.974882   4.393043
    38  H    3.836791   3.400631   4.304956   5.350717   5.314690
                   16         17         18         19         20
    16  O    0.000000
    17  C    1.451003   0.000000
    18  C    2.367204   1.523610   0.000000
    19  C    2.454054   1.527659   2.543423   0.000000
    20  H    5.084398   6.113116   7.416011   6.244778   0.000000
    21  H    5.864347   7.038434   8.193714   7.065802   1.846232
    22  H    6.234160   7.460473   8.201400   7.408698   4.661841
    23  H    6.522602   7.611082   7.929443   7.549611   6.741053
    24  H    2.837100   3.635804   3.632047   3.919405   6.249940
    25  H    2.656262   2.612866   4.039609   3.020319   4.498697
    26  H    4.595997   4.947854   6.351593   5.245986   3.440954
    27  H    4.082103   4.619551   6.100628   4.577642   2.373682
    28  H    4.241690   5.085239   6.395684   5.534268   2.056572
    29  H    3.960577   4.230387   5.215256   5.205751   5.038151
    30  H    2.664754   3.007831   3.692413   4.318715   5.466567
    31  H    3.420260   4.264357   5.137300   5.360397   4.246572
    32  H    2.086633   1.097627   2.143146   2.160464   6.179706
    33  H    3.333294   2.160126   1.094654   2.808545   8.262343
    34  H    2.591942   2.166578   1.093669   3.489894   7.565732
    35  H    2.643210   2.167921   1.094774   2.790648   7.627659
    36  H    3.398185   2.163565   2.814122   1.095254   7.186651
    37  H    2.734747   2.182655   3.497362   1.094529   5.488199
    38  H    2.725241   2.168765   2.783209   1.094758   6.482153
                   21         22         23         24         25
    21  H    0.000000
    22  H    3.119614   0.000000
    23  H    5.474590   2.498802   0.000000
    24  H    6.181521   5.063733   4.328738   0.000000
    25  H    5.947738   7.454274   8.417777   5.336986   0.000000
    26  H    5.252202   7.637184   9.210197   7.026237   2.388717
    27  H    3.960308   6.170380   7.770267   6.015284   2.529376
    28  H    3.799702   6.199725   7.897736   6.240679   3.044299
    29  H    6.651425   8.487381   9.614991   6.666727   2.468437
    30  H    6.763441   7.953876   8.655058   5.277980   2.516785
    31  H    5.573040   7.152249   8.258583   5.690517   3.063418
    32  H    7.349806   8.158028   8.525888   4.651387   2.072587
    33  H    9.121719   9.186858   8.871190   4.578294   4.512030
    34  H    8.377143   8.438163   8.191146   3.945256   4.305073
    35  H    8.167951   7.769147   7.209728   2.899093   4.751281
    36  H    8.084562   8.463308   8.526523   4.823677   3.585987
    37  H    6.399398   7.079305   7.549524   4.384293   2.530282
    38  H    7.023963   6.919815   6.788072   3.259711   3.909328
                   26         27         28         29         30
    26  H    0.000000
    27  H    1.770284   0.000000
    28  H    1.762449   1.778874   0.000000
    29  H    2.566655   3.781886   3.022190   0.000000
    30  H    3.781317   4.356564   3.767012   1.774478   0.000000
    31  H    3.193657   3.783472   2.555557   1.774498   1.768188
    32  H    4.410006   4.462433   4.838477   3.459787   2.450700
    33  H    6.878036   6.732738   7.153715   5.725075   4.337581
    34  H    6.466424   6.411087   6.406647   4.942009   3.266477
    35  H    7.017028   6.524155   6.872627   6.065466   4.500374
    36  H    5.826046   5.332186   6.361240   5.709114   4.895432
    37  H    4.490159   3.680259   4.868304   4.942563   4.397260
    38  H    6.022059   5.108528   6.071715   6.060336   5.037419
                   31         32         33         34         35
    31  H    0.000000
    32  H    3.894586   0.000000
    33  H    5.924975   2.477795   0.000000
    34  H    4.750812   2.482911   1.776622   0.000000
    35  H    5.752193   3.061575   1.775196   1.774665   0.000000
    36  H    6.121477   2.489365   2.636107   3.813879   3.165249
    37  H    5.167220   2.524626   3.816808   4.328213   3.788949
    38  H    5.960125   3.072444   3.147209   3.780228   2.582547
                   36         37         38
    36  H    0.000000
    37  H    1.771641   0.000000
    38  H    1.776767   1.772398   0.000000
 Stoichiometry    C17H19NO
 Framework group  C1[X(C17H19NO)]
 Deg. of freedom   108
 Full point group                 C1      NOp   1
 Largest Abelian subgroup         C1      NOp   1
 Largest concise Abelian subgroup C1      NOp   1
                         Standard orientation:                         
 ---------------------------------------------------------------------
 Center     Atomic      Atomic             Coordinates (Angstroms)
 Number     Number       Type             X           Y           Z
 ---------------------------------------------------------------------
      1          6           0        0.371574   -3.564587    0.303810
      2          6           0       -0.077245   -2.310844    0.164472
      3          6           0       -1.462951   -1.766270    0.112955
      4          6           0       -2.812280   -2.082645    0.152164
      5          6           0       -3.702512   -1.004848    0.030279
      6          6           0       -3.235907    0.319305   -0.127887
      7          6           0       -4.194877    1.380101   -0.251181
      8          7           0       -4.968695    2.244921   -0.349327
      9          6           0       -1.854528    0.631048   -0.169705
     10          6           0       -0.994085   -0.445520   -0.038854
     11          6           0        0.425629   -0.879428    0.006114
     12          6           0        1.545334   -0.127607   -0.107683
     13          6           0        3.006242   -0.529103   -0.125553
     14          6           0        3.302261   -1.958543    0.337306
     15          6           0        3.607645   -0.277324   -1.527487
     16          8           0        1.283442    1.204569   -0.370958
     17          6           0        2.014370    2.254632    0.313529
     18          6           0        1.576250    3.553514   -0.351560
     19          6           0        1.729423    2.228665    1.814153
     20          1           0        1.418755   -3.829375    0.330612
     21          1           0       -0.343119   -4.376680    0.400099
     22          1           0       -3.184584   -3.095830    0.267838
     23          1           0       -4.773204   -1.178985    0.053360
     24          1           0       -1.517464    1.651298   -0.303891
     25          1           0        3.524355    0.138531    0.576460
     26          1           0        4.383401   -2.086962    0.453220
     27          1           0        2.830589   -2.184445    1.297719
     28          1           0        2.965352   -2.689286   -0.402683
     29          1           0        4.686288   -0.467977   -1.515248
     30          1           0        3.443545    0.749806   -1.863626
     31          1           0        3.150354   -0.947437   -2.263492
     32          1           0        3.089288    2.117170    0.139059
     33          1           0        2.125062    4.398777    0.075760
     34          1           0        1.769992    3.520877   -1.427437
     35          1           0        0.505833    3.724931   -0.198739
     36          1           0        2.292963    3.021671    2.317288
     37          1           0        2.016784    1.272539    2.262752
     38          1           0        0.663080    2.387115    2.004684
 ---------------------------------------------------------------------
 Rotational constants (GHZ):           0.4967864           0.2725684           0.1905281
 Standard basis: 6-31+G(d,p) (6D, 7F)
 There are   456 symmetry adapted cartesian basis functions of A   symmetry.
 There are   456 symmetry adapted basis functions of A   symmetry.
   456 basis functions,   741 primitive gaussians,   456 cartesian basis functions
    68 alpha electrons       68 beta electrons
       nuclear repulsion energy      1358.7919443086 Hartrees.
 NAtoms=   38 NActive=   38 NUniq=   38 SFac= 1.00D+00 NAtFMM=   60 NAOKFM=F Big=F
 Integral buffers will be    131072 words long.
 Regular integral format.
 Two-electron integral symmetry is turned on.
 One-electron integrals computed using PRISM.
 NBasis=   456 RedAO= T EigKep=  1.40D-06  NBF=   456
 NBsUse=   452 1.00D-06 EigRej=  6.85D-07 NBFU=   452
 ExpMin= 4.38D-02 ExpMax= 5.48D+03 ExpMxC= 8.25D+02 IAcc=3 IRadAn=         5 AccDes= 0.00D+00
 Harris functional with IExCor=  402 and IRadAn=       5 diagonalized for initial guess.
 HarFok:  IExCor=  402 AccDes= 0.00D+00 IRadAn=         5 IDoV= 1 UseB2=F ITyADJ=14
 ICtDFT=  3500011 ScaDFX=  1.000000  1.000000  1.000000  1.000000
 FoFCou: FMM=F IPFlag=           0 FMFlag=      100000 FMFlg1=           0
         NFxFlg=           0 DoJE=T BraDBF=F KetDBF=T FulRan=T
         wScrn=  0.000000 ICntrl=       500 IOpCl=  0 I1Cent=   200000004 NGrid=           0
         NMat0=    1 NMatS0=      1 NMatT0=    0 NMatD0=    1 NMtDS0=    0 NMtDT0=    0
 Petite list used in FoFCou.
 Requested convergence on RMS density matrix=1.00D-08 within 128 cycles.
 Requested convergence on MAX density matrix=1.00D-06.
 Requested convergence on             energy=1.00D-06.
 No special actions if energy rises.
 SCF Done:  E(RB3LYP) =  -789.193444686     A.U. after   16 cycles
            NFock= 16  Conv=0.34D-08     -V/T= 2.0097
 DoSCS=F DFT=T ScalE2(SS,OS)=  1.000000  1.000000
 ExpMin= 4.38D-02 ExpMax= 5.48D+03 ExpMxC= 8.25D+02 IAcc=3 IRadAn=         5 AccDes= 0.00D+00
 HarFok:  IExCor=  205 AccDes= 0.00D+00 IRadAn=         5 IDoV=-2 UseB2=F ITyADJ=14
 ICtDFT= 12500011 ScaDFX=  1.000000  1.000000  1.000000  1.000000
 Range of M.O.s used for correlation:    20   452
 NBasis=   456 NAE=    68 NBE=    68 NFC=    19 NFV=     0
 NROrb=    433 NOA=    49 NOB=    49 NVA=   384 NVB=   384

 **** Warning!!: The largest alpha MO coefficient is  0.16116403D+03

 Orbital symmetries:
       Occupied  (A) (A) (A) (A) (A) (A) (A) (A) (A) (A) (A) (A)
                 (A) (A) (A) (A) (A) (A) (A) (A) (A) (A) (A) (A)
                 (A) (A) (A) (A) (A) (A) (A) (A) (A) (A) (A) (A)
                 (A) (A) (A) (A) (A) (A) (A) (A) (A) (A) (A) (A)
                 (A) (A) (A) (A) (A) (A) (A) (A) (A) (A) (A) (A)
                 (A) (A) (A) (A) (A) (A) (A) (A)
       Virtual   (A) (A) (A) (A) (A) (A) (A) (A) (A) (A) (A) (A)
                 (A) (A) (A) (A) (A) (A) (A) (A) (A) (A) (A) (A)
                 (A) (A) (A) (A) (A) (A) (A) (A) (A) (A) (A) (A)
                 (A) (A) (A) (A) (A) (A) (A) (A) (A) (A) (A) (A)
                 (A) (A) (A) (A) (A) (A) (A) (A) (A) (A) (A) (A)
                 (A) (A) (A) (A) (A) (A) (A) (A) (A) (A) (A) (A)
                 (A) (A) (A) (A) (A) (A) (A) (A) (A) (A) (A) (A)
                 (A) (A) (A) (A) (A) (A) (A) (A) (A) (A) (A) (A)
                 (A) (A) (A) (A) (A) (A) (A) (A) (A) (A) (A) (A)
                 (A) (A) (A) (A) (A) (A) (A) (A) (A) (A) (A) (A)
                 (A) (A) (A) (A) (A) (A) (A) (A) (A) (A) (A) (A)
                 (A) (A) (A) (A) (A) (A) (A) (A) (A) (A) (A) (A)
                 (A) (A) (A) (A) (A) (A) (A) (A) (A) (A) (A) (A)
                 (A) (A) (A) (A) (A) (A) (A) (A) (A) (A) (A) (A)
                 (A) (A) (A) (A) (A) (A) (A) (A) (A) (A) (A) (A)
                 (A) (A) (A) (A) (A) (A) (A) (A) (A) (A) (A) (A)
                 (A) (A) (A) (A) (A) (A) (A) (A) (A) (A) (A) (A)
                 (A) (A) (A) (A) (A) (A) (A) (A) (A) (A) (A) (A)
                 (A) (A) (A) (A) (A) (A) (A) (A) (A) (A) (A) (A)
                 (A) (A) (A) (A) (A) (A) (A) (A) (A) (A) (A) (A)
                 (A) (A) (A) (A) (A) (A) (A) (A) (A) (A) (A) (A)
                 (A) (A) (A) (A) (A) (A) (A) (A) (A) (A) (A) (A)
                 (A) (A) (A) (A) (A) (A) (A) (A) (A) (A) (A) (A)
                 (A) (A) (A) (A) (A) (A) (A) (A) (A) (A) (A) (A)
                 (A) (A) (A) (A) (A) (A) (A) (A) (A) (A) (A) (A)
                 (A) (A) (A) (A) (A) (A) (A) (A) (A) (A) (A) (A)
                 (A) (A) (A) (A) (A) (A) (A) (A) (A) (A) (A) (A)
                 (A) (A) (A) (A) (A) (A) (A) (A) (A) (A) (A) (A)
                 (A) (A) (A) (A) (A) (A) (A) (A) (A) (A) (A) (A)
                 (A) (A) (A) (A) (A) (A) (A) (A) (A) (A) (A) (A)
                 (A) (A) (A) (A) (A) (A) (A) (A) (A) (A) (A) (A)
                 (A) (A) (A) (A) (A) (A) (A) (A) (A) (A) (A) (A)
    24 initial guesses have been made.
 Convergence on wavefunction:    0.001000000000000
 Iteration     1 Dimension    24 NMult     0 NNew     24
 CISAX will form    24 AO SS matrices at one time.
 New state      1 was old state      2
 New state      2 was old state      4
 New state      3 was old state      6
 New state      4 was old state      1
 New state      5 was old state      8
 New state      6 was old state     10
 New state      8 was old state     22
 New state      9 was old state      5
 New state     10 was old state     11
 New state     11 was old state     12
 New state     12 was old state      3
 Vector   5 SDiff=1.04D+01 TDiff=5.30D+01 assumed to be singlet.
 Vector   6 SDiff=1.09D+00 TDiff=1.86D+01 assumed to be singlet.
 Vector  11 SDiff=9.71D+00 TDiff=3.05D+01 assumed to be singlet.
 Vector  12 SDiff=1.22D+00 TDiff=1.22D+01 assumed to be singlet.
 Iteration     2 Dimension    36 NMult    24 NNew     12
 New state      5 was old state      7
 New state      6 was old state      9
 Iteration     3 Dimension    48 NMult    36 NNew     12
 Iteration     4 Dimension    60 NMult    48 NNew     12
 Iteration     5 Dimension    72 NMult    60 NNew     12
 Iteration     6 Dimension    78 NMult    72 NNew      6
 Iteration     7 Dimension    80 NMult    78 NNew      2
 Iteration     8 Dimension    82 NMult    80 NNew      2
 ***********************************************************************
 Excited states from <AA,BB:AA,BB> singles matrix:
 ***********************************************************************
 
 Ground to excited state transition densities written to RWF  633
 Ground to excited state transition electric dipole moments (Au):
       state          X           Y           Z        Dip. S.      Osc.
         1         0.0000      0.0000     -0.0000      0.0000      0.0000
         2         0.0000      0.0000      0.0000      0.0000      0.0000
         3        -0.0000      0.0000     -0.0000      0.0000      0.0000
         4         0.6008      0.0018      0.0182      0.3613      0.0307
         5        -0.5980     -1.1940      0.1118      1.7957      0.1901
         6        -1.6668      0.1358     -0.0191      2.7969      0.3070
 Ground to excited state transition velocity dipole moments (Au):
       state          X           Y           Z        Dip. S.      Osc.
         1        -0.0000     -0.0000     -0.0000      0.0000      0.0000
         2        -0.0000     -0.0000      0.0000      0.0000      0.0000
         3         0.0000     -0.0000      0.0000      0.0000      0.0000
         4        -0.0745     -0.0000     -0.0026      0.0056      0.0290
         5         0.0925      0.1841     -0.0179      0.0428      0.1795
         6         0.2700     -0.0227      0.0026      0.0734      0.2974
 Ground to excited state transition magnetic dipole moments (Au):
       state          X           Y           Z
         1         0.0000      0.0000      0.0000
         2        -0.0000      0.0000     -0.0000
         3        -0.0000      0.0000      0.0000
         4        -0.0185     -0.0730     -0.8800
         5         0.0668      0.0250      0.0300
         6         0.0154     -0.0008      0.2476
 Ground to excited state transition velocity quadrupole moments (Au):
       state          XX          YY          ZZ          XY          XZ          YZ
         1        -0.0000     -0.0000     -0.0000      0.0000     -0.0000      0.0000
         2         0.0000      0.0000      0.0000      0.0000     -0.0000     -0.0000
         3        -0.0000      0.0000      0.0000      0.0000     -0.0000     -0.0000
         4         0.0506      0.1156     -0.0380     -0.3214      0.0609     -0.0463
         5         0.7232     -0.7481      0.0744      0.0201     -0.0520      0.1279
         6        -0.9124      0.6100      0.0914     -0.3068     -0.0407     -0.0070
 <0|del|b> * <b|rxdel|0> + <0|del|b> * <b|delr+rdel|0>
 Rotatory Strengths (R) in cgs (10**-40 erg-esu-cm/Gauss)
       state          XX          YY          ZZ    R(velocity)    E-M Angle
         1        -0.0000     -0.0000     -0.0000     -0.0000       90.00
         2        -0.0000     -0.0000     -0.0000     -0.0000       90.00
         3         0.0000     -0.0000      0.0000     -0.0000       90.00
         4         8.7617     17.4530     -5.7523      6.8208       86.79
         5        29.5669     39.7330    -23.6782     15.2073       50.22
         6        -2.2798      7.9793     15.0060      6.9018       85.89
 1/2[<0|r|b>*<b|rxdel|0> + (<0|rxdel|b>*<b|r|0>)*]
 Rotatory Strengths (R) in cgs (10**-40 erg-esu-cm/Gauss)
       state          XX          YY          ZZ     R(length)
         1        -0.0000     -0.0000      0.0000     -0.0000
         2         0.0000     -0.0000      0.0000     -0.0000
         3        -0.0000     -0.0000      0.0000     -0.0000
         4         7.8477      0.0941     11.3357      6.4258
         5        28.2690     21.0847     -2.3730     15.6602
         6        18.1340      0.0765      3.3387      7.1831
  1/2[<0|del|b>*<b|r|0> + (<0|r|b>*<b|del|0>)*] (Au)
       state          X           Y           Z        Dip. S.   Osc.(frdel)
         1        -0.0000     -0.0000      0.0000      0.0000      0.0000
         2        -0.0000     -0.0000      0.0000      0.0000      0.0000
         3        -0.0000     -0.0000     -0.0000      0.0000      0.0000
         4        -0.0447     -0.0000     -0.0000      0.0448      0.0299
         5        -0.0553     -0.2198     -0.0020      0.2771      0.1847
         6        -0.4501     -0.0031     -0.0000      0.4532      0.3022

 Excitation energies and oscillator strengths:
 
 Excited State   1:      Triplet-A      2.5424 eV  487.66 nm  f=0.0000  <S**2>=2.000
      67 -> 69         0.43182
      68 -> 69        -0.30504
      68 -> 70         0.43125
 This state for optimization and/or second-order correction.
 Total Energy, E(TD-HF/TD-DFT) =  -789.100011672    
 Copying the excited state density for this state as the 1-particle RhoCI density.
 
 Excited State   2:      Triplet-A      2.8750 eV  431.25 nm  f=0.0000  <S**2>=2.000
      67 -> 69         0.41236
      67 -> 70         0.12905
      68 -> 69         0.54259
 
 Excited State   3:      Triplet-A      3.1839 eV  389.41 nm  f=0.0000  <S**2>=2.000
      67 -> 69        -0.32231
      68 -> 69         0.28452
      68 -> 70         0.51369
 
 Excited State   4:      Singlet-A      3.4697 eV  357.33 nm  f=0.0307  <S**2>=0.000
      67 -> 70        -0.10929
      68 -> 69         0.68320
      68 -> 70         0.12429
 
 Excited State   5:      Singlet-A      4.3208 eV  286.95 nm  f=0.1901  <S**2>=0.000
      67 -> 69         0.45834
      67 -> 70        -0.16739
      68 -> 69        -0.14081
      68 -> 70         0.47815
 
 Excited State   6:      Singlet-A      4.4803 eV  276.73 nm  f=0.3070  <S**2>=0.000
      66 -> 69         0.18689
      67 -> 69        -0.32849
      67 -> 70         0.37559
      68 -> 70         0.43952
 SavETr:  write IOETrn=   770 NScale= 10 NData=  16 NLR=1 NState=    6 LETran=     118.

 **********************************************************************

            Population analysis using the SCF Density.

 **********************************************************************

 Orbital symmetries:
       Occupied  (A) (A) (A) (A) (A) (A) (A) (A) (A) (A) (A) (A)
                 (A) (A) (A) (A) (A) (A) (A) (A) (A) (A) (A) (A)
                 (A) (A) (A) (A) (A) (A) (A) (A) (A) (A) (A) (A)
                 (A) (A) (A) (A) (A) (A) (A) (A) (A) (A) (A) (A)
                 (A) (A) (A) (A) (A) (A) (A) (A) (A) (A) (A) (A)
                 (A) (A) (A) (A) (A) (A) (A) (A)
       Virtual   (A) (A) (A) (A) (A) (A) (A) (A) (A) (A) (A) (A)
                 (A) (A) (A) (A) (A) (A) (A) (A) (A) (A) (A) (A)
                 (A) (A) (A) (A) (A) (A) (A) (A) (A) (A) (A) (A)
                 (A) (A) (A) (A) (A) (A) (A) (A) (A) (A) (A) (A)
                 (A) (A) (A) (A) (A) (A) (A) (A) (A) (A) (A) (A)
                 (A) (A) (A) (A) (A) (A) (A) (A) (A) (A) (A) (A)
                 (A) (A) (A) (A) (A) (A) (A) (A) (A) (A) (A) (A)
                 (A) (A) (A) (A) (A) (A) (A) (A) (A) (A) (A) (A)
                 (A) (A) (A) (A) (A) (A) (A) (A) (A) (A) (A) (A)
                 (A) (A) (A) (A) (A) (A) (A) (A) (A) (A) (A) (A)
                 (A) (A) (A) (A) (A) (A) (A) (A) (A) (A) (A) (A)
                 (A) (A) (A) (A) (A) (A) (A) (A) (A) (A) (A) (A)
                 (A) (A) (A) (A) (A) (A) (A) (A) (A) (A) (A) (A)
                 (A) (A) (A) (A) (A) (A) (A) (A) (A) (A) (A) (A)
                 (A) (A) (A) (A) (A) (A) (A) (A) (A) (A) (A) (A)
                 (A) (A) (A) (A) (A) (A) (A) (A) (A) (A) (A) (A)
                 (A) (A) (A) (A) (A) (A) (A) (A) (A) (A) (A) (A)
                 (A) (A) (A) (A) (A) (A) (A) (A) (A) (A) (A) (A)
                 (A) (A) (A) (A) (A) (A) (A) (A) (A) (A) (A) (A)
                 (A) (A) (A) (A) (A) (A) (A) (A) (A) (A) (A) (A)
                 (A) (A) (A) (A) (A) (A) (A) (A) (A) (A) (A) (A)
                 (A) (A) (A) (A) (A) (A) (A) (A) (A) (A) (A) (A)
                 (A) (A) (A) (A) (A) (A) (A) (A) (A) (A) (A) (A)
                 (A) (A) (A) (A) (A) (A) (A) (A) (A) (A) (A) (A)
                 (A) (A) (A) (A) (A) (A) (A) (A) (A) (A) (A) (A)
                 (A) (A) (A) (A) (A) (A) (A) (A) (A) (A) (A) (A)
                 (A) (A) (A) (A) (A) (A) (A) (A) (A) (A) (A) (A)
                 (A) (A) (A) (A) (A) (A) (A) (A) (A) (A) (A) (A)
                 (A) (A) (A) (A) (A) (A) (A) (A) (A) (A) (A) (A)
                 (A) (A) (A) (A) (A) (A) (A) (A) (A) (A) (A) (A)
                 (A) (A) (A) (A) (A) (A) (A) (A) (A) (A) (A) (A)
                 (A) (A) (A) (A) (A) (A) (A) (A) (A) (A) (A) (A)
 The electronic state is 1-A.
 Alpha  occ. eigenvalues --  -19.18491 -14.33971 -10.26463 -10.26254 -10.24364
 Alpha  occ. eigenvalues --  -10.23186 -10.22978 -10.22207 -10.22007 -10.21841
 Alpha  occ. eigenvalues --  -10.21761 -10.21473 -10.21430 -10.21371 -10.19942
 Alpha  occ. eigenvalues --  -10.19438 -10.19418 -10.19358 -10.19266  -1.06601
 Alpha  occ. eigenvalues --   -0.91489  -0.90360  -0.84773  -0.82659  -0.80154
 Alpha  occ. eigenvalues --   -0.77833  -0.75442  -0.73000  -0.70778  -0.70232
 Alpha  occ. eigenvalues --   -0.68827  -0.64313  -0.62378  -0.60400  -0.57075
 Alpha  occ. eigenvalues --   -0.55116  -0.53947  -0.50789  -0.50235  -0.48289
 Alpha  occ. eigenvalues --   -0.47505  -0.46975  -0.46247  -0.45150  -0.44932
 Alpha  occ. eigenvalues --   -0.43432  -0.42500  -0.41895  -0.40714  -0.40479
 Alpha  occ. eigenvalues --   -0.40004  -0.39904  -0.38616  -0.37913  -0.37405
 Alpha  occ. eigenvalues --   -0.37209  -0.36626  -0.36278  -0.35926  -0.35581
 Alpha  occ. eigenvalues --   -0.34599  -0.34075  -0.33019  -0.31921  -0.30264
 Alpha  occ. eigenvalues --   -0.28465  -0.24499  -0.22468
 Alpha virt. eigenvalues --   -0.07351  -0.05170  -0.01018   0.00282   0.00480
 Alpha virt. eigenvalues --    0.00750   0.01278   0.01689   0.02093   0.02688
 Alpha virt. eigenvalues --    0.03072   0.03200   0.03663   0.04159   0.04298
 Alpha virt. eigenvalues --    0.04806   0.05220   0.05730   0.05869   0.06405
 Alpha virt. eigenvalues --    0.06750   0.06804   0.07104   0.07733   0.08180
 Alpha virt. eigenvalues --    0.08617   0.09003   0.09242   0.09472   0.09832
 Alpha virt. eigenvalues --    0.10110   0.10632   0.11084   0.11454   0.11579
 Alpha virt. eigenvalues --    0.12072   0.12295   0.12769   0.12993   0.13472
 Alpha virt. eigenvalues --    0.14204   0.14578   0.14909   0.15140   0.15370
 Alpha virt. eigenvalues --    0.15648   0.15866   0.16472   0.17117   0.17338
 Alpha virt. eigenvalues --    0.17434   0.18126   0.18462   0.18504   0.18881
 Alpha virt. eigenvalues --    0.19374   0.19598   0.19911   0.20229   0.20740
 Alpha virt. eigenvalues --    0.21185   0.21518   0.21971   0.22105   0.22602
 Alpha virt. eigenvalues --    0.22969   0.23428   0.23614   0.24106   0.24277
 Alpha virt. eigenvalues --    0.24578   0.25100   0.25205   0.25739   0.26118
 Alpha virt. eigenvalues --    0.26255   0.26383   0.26810   0.27410   0.27481
 Alpha virt. eigenvalues --    0.27654   0.28043   0.28877   0.28938   0.29074
 Alpha virt. eigenvalues --    0.29506   0.30059   0.30388   0.30851   0.31475
 Alpha virt. eigenvalues --    0.32075   0.32473   0.33369   0.34028   0.34414
 Alpha virt. eigenvalues --    0.34756   0.35216   0.35332   0.35829   0.36301
 Alpha virt. eigenvalues --    0.36883   0.37669   0.38933   0.39880   0.41197
 Alpha virt. eigenvalues --    0.42320   0.43216   0.43973   0.44171   0.45487
 Alpha virt. eigenvalues --    0.46528   0.47625   0.49858   0.51355   0.53126
 Alpha virt. eigenvalues --    0.57854   0.60248   0.62265   0.62840   0.65249
 Alpha virt. eigenvalues --    0.65560   0.66142   0.66642   0.67477   0.68094
 Alpha virt. eigenvalues --    0.68794   0.69135   0.70187   0.71179   0.71442
 Alpha virt. eigenvalues --    0.72237   0.73276   0.73755   0.74275   0.75012
 Alpha virt. eigenvalues --    0.75551   0.75777   0.76479   0.77256   0.77827
 Alpha virt. eigenvalues --    0.79110   0.79616   0.80238   0.80419   0.81436
 Alpha virt. eigenvalues --    0.82473   0.82927   0.83719   0.84490   0.85971
 Alpha virt. eigenvalues --    0.87162   0.88205   0.88662   0.89531   0.89813
 Alpha virt. eigenvalues --    0.91105   0.92258   0.93163   0.94406   0.94793
 Alpha virt. eigenvalues --    0.95144   0.95740   0.96776   0.97496   0.98908
 Alpha virt. eigenvalues --    0.99451   1.00254   1.00719   1.01244   1.01505
 Alpha virt. eigenvalues --    1.02207   1.02504   1.03246   1.04594   1.05587
 Alpha virt. eigenvalues --    1.06212   1.07387   1.09643   1.10046   1.10878
 Alpha virt. eigenvalues --    1.13098   1.14038   1.14272   1.15608   1.16071
 Alpha virt. eigenvalues --    1.16509   1.17697   1.19317   1.20493   1.20778
 Alpha virt. eigenvalues --    1.21598   1.22158   1.23334   1.23966   1.25400
 Alpha virt. eigenvalues --    1.26459   1.27845   1.29465   1.29880   1.31891
 Alpha virt. eigenvalues --    1.32875   1.33110   1.34365   1.35458   1.37186
 Alpha virt. eigenvalues --    1.38321   1.39834   1.41172   1.41974   1.43354
 Alpha virt. eigenvalues --    1.43666   1.45828   1.47952   1.49559   1.50878
 Alpha virt. eigenvalues --    1.51985   1.52235   1.53435   1.55218   1.55681
 Alpha virt. eigenvalues --    1.57990   1.59850   1.62012   1.64037   1.66568
 Alpha virt. eigenvalues --    1.66831   1.69391   1.70597   1.73501   1.74285
 Alpha virt. eigenvalues --    1.76875   1.77128   1.77927   1.79456   1.81854
 Alpha virt. eigenvalues --    1.83712   1.84975   1.85885   1.86584   1.87688
 Alpha virt. eigenvalues --    1.88167   1.89188   1.90599   1.90961   1.91355
 Alpha virt. eigenvalues --    1.92436   1.93155   1.94635   1.95275   1.96761
 Alpha virt. eigenvalues --    1.97291   1.99483   2.00825   2.02235   2.02829
 Alpha virt. eigenvalues --    2.03288   2.03782   2.04090   2.04819   2.05100
 Alpha virt. eigenvalues --    2.06126   2.06367   2.07584   2.07894   2.09542
 Alpha virt. eigenvalues --    2.09956   2.11286   2.11690   2.12427   2.13308
 Alpha virt. eigenvalues --    2.14073   2.15630   2.16110   2.16481   2.17294
 Alpha virt. eigenvalues --    2.19722   2.20911   2.21797   2.23948   2.24187
 Alpha virt. eigenvalues --    2.26574   2.27046   2.28299   2.30846   2.31851
 Alpha virt. eigenvalues --    2.32362   2.33752   2.35147   2.35885   2.38192
 Alpha virt. eigenvalues --    2.40506   2.42261   2.42646   2.42727   2.44627
 Alpha virt. eigenvalues --    2.47049   2.49017   2.50238   2.51109   2.52935
 Alpha virt. eigenvalues --    2.53487   2.54626   2.54758   2.57062   2.57118
 Alpha virt. eigenvalues --    2.59105   2.60129   2.61947   2.62808   2.65293
 Alpha virt. eigenvalues --    2.66142   2.68984   2.70113   2.70470   2.70919
 Alpha virt. eigenvalues --    2.72138   2.72975   2.74130   2.75959   2.76517
 Alpha virt. eigenvalues --    2.77930   2.78995   2.80306   2.82186   2.83642
 Alpha virt. eigenvalues --    2.83863   2.85272   2.87075   2.88295   2.89102
 Alpha virt. eigenvalues --    2.89550   2.90177   2.90845   2.94707   2.96175
 Alpha virt. eigenvalues --    2.96521   2.99062   3.05344   3.07423   3.08688
 Alpha virt. eigenvalues --    3.11797   3.13685   3.23271   3.26354   3.26691
 Alpha virt. eigenvalues --    3.27616   3.27816   3.28651   3.30711   3.35291
 Alpha virt. eigenvalues --    3.35898   3.37453   3.37855   3.44138   3.44932
 Alpha virt. eigenvalues --    3.46456   3.48857   3.49130   3.49847   3.50496
 Alpha virt. eigenvalues --    3.52278   3.53302   3.56166   3.64386   3.79819
 Alpha virt. eigenvalues --    4.18519   4.26087   4.30474   4.34421   4.38844
 Alpha virt. eigenvalues --    4.39527   4.42050   4.43883   4.44918   4.51010
 Alpha virt. eigenvalues --    4.56407   4.58217   4.59925   4.62219   4.64958
 Alpha virt. eigenvalues --    4.71899   4.76814   4.83017   5.06344
          Condensed to atoms (all electrons):
               1          2          3          4          5          6
     1  C   10.366386  -2.598368   0.024668   0.022599  -0.114130  -0.074378
     2  C   -2.598368  11.525246   0.586743  -0.081144   0.125790  -0.250080
     3  C    0.024668   0.586743  16.684628  -5.506405  -0.147618   0.963372
     4  C    0.022599  -0.081144  -5.506405  10.106247   0.256906  -0.611162
     5  C   -0.114130   0.125790  -0.147618   0.256906   8.331187  -0.661468
     6  C   -0.074378  -0.250080   0.963372  -0.611162  -0.661468  10.493641
     7  C    0.103649   0.120898  -0.032804  -0.002458   0.231353  -3.444341
     8  N   -0.001086  -0.001998   0.060666  -0.039993  -0.127508   0.735261
     9  C    0.254080  -0.233585  -2.251188   0.694392  -1.149177   0.024926
    10  C   -1.669371  -2.651660   0.065576  -0.709636  -0.455842  -0.327098
    11  C   -1.012410  -0.999450  -3.159600   0.387450  -0.629634  -0.227611
    12  C    0.000505   0.171049  -1.124856   1.183319   0.072736  -0.725527
    13  C    0.040063   0.286648   0.300676   0.119910   0.054842  -0.255568
    14  C   -0.224004  -0.058685  -0.174826   0.016191  -0.010989   0.027118
    15  C    0.074410   0.052618   0.024987   0.001734   0.001998  -0.018653
    16  O   -0.005412   0.011480  -0.035019   0.001499   0.010576   0.021308
    17  C    0.009015   0.037594  -0.112884   0.050751   0.008984  -0.012706
    18  C    0.012647  -0.000273   0.016747   0.002124   0.004623  -0.025251
    19  C   -0.014840   0.035640   0.059623  -0.005718  -0.007104   0.001048
    20  H    0.470795  -0.142155   0.023420  -0.023984  -0.003647   0.000455
    21  H    0.644090  -0.255262   0.015641   0.000256   0.006730   0.000632
    22  H    0.020216  -0.049977   0.106420   0.239426   0.000534  -0.023089
    23  H    0.000375  -0.010199  -0.069783  -0.011032   0.241672   0.077282
    24  H    0.000144  -0.007373   0.066001  -0.024286   0.041737   0.019550
    25  H   -0.005738  -0.015434  -0.003783   0.000324  -0.000050   0.000100
    26  H    0.015303  -0.013715  -0.000914   0.000259  -0.000018  -0.000000
    27  H   -0.012558   0.006943  -0.008068  -0.000853  -0.000414   0.000793
    28  H   -0.045063   0.012978  -0.006638   0.000850  -0.000028   0.000077
    29  H    0.000887  -0.004448  -0.000727  -0.000030   0.000002  -0.000063
    30  H   -0.000059   0.006000   0.001908  -0.000108   0.000051   0.000010
    31  H   -0.000034   0.005631   0.002361   0.001457  -0.000019  -0.000364
    32  H    0.000107   0.006645   0.004240   0.000244   0.000160  -0.001705
    33  H    0.000021  -0.000161   0.000302  -0.000046   0.000014   0.000074
    34  H   -0.000117  -0.001305  -0.002089   0.000112   0.000003   0.003004
    35  H    0.000061  -0.000227   0.001390  -0.000121   0.000663  -0.005181
    36  H   -0.000009  -0.000417   0.000085  -0.000092  -0.000026   0.000657
    37  H    0.002542   0.012543   0.008319  -0.000250  -0.000210  -0.000357
    38  H   -0.000400   0.003761  -0.002720   0.002364   0.000780  -0.007407
               7          8          9         10         11         12
     1  C    0.103649  -0.001086   0.254080  -1.669371  -1.012410   0.000505
     2  C    0.120898  -0.001998  -0.233585  -2.651660  -0.999450   0.171049
     3  C   -0.032804   0.060666  -2.251188   0.065576  -3.159600  -1.124856
     4  C   -0.002458  -0.039993   0.694392  -0.709636   0.387450   1.183319
     5  C    0.231353  -0.127508  -1.149177  -0.455842  -0.629634   0.072736
     6  C   -3.444341   0.735261   0.024926  -0.327098  -0.227611  -0.725527
     7  C   12.677696  -0.651271  -1.810797  -0.683838   0.039933  -0.294664
     8  N   -0.651271   7.373559   0.166782   0.042664  -0.015728   0.003021
     9  C   -1.810797   0.166782   8.483596  -0.365913   0.494457   0.850369
    10  C   -0.683838   0.042664  -0.365913  16.390592   1.637167  -2.449643
    11  C    0.039933  -0.015728   0.494457   1.637167  10.773489   0.148861
    12  C   -0.294664   0.003021   0.850369  -2.449643   0.148861   9.628325
    13  C   -0.046957   0.000157   0.193602  -1.923460  -1.642464  -1.645144
    14  C    0.001018   0.000005  -0.026285   0.259480   0.535379   0.328089
    15  C   -0.000498  -0.000004   0.018942  -0.164167  -0.156102  -0.304091
    16  O   -0.001293  -0.000001   0.179290  -0.393629  -0.065794   0.267668
    17  C    0.008701  -0.000324   0.173804  -0.674976  -0.026725   0.021490
    18  C   -0.009723   0.000081   0.002439   0.083784  -0.031635   0.227423
    19  C   -0.002637   0.000106  -0.040149   0.031928   0.000518  -0.170635
    20  H   -0.000043   0.000000   0.005671   0.034602   0.012957  -0.014852
    21  H    0.000190   0.000000   0.003297  -0.037237  -0.027081  -0.000129
    22  H   -0.003994   0.000047   0.000825   0.030877  -0.015528  -0.001354
    23  H   -0.069216   0.000390   0.059704   0.076401   0.011284   0.001901
    24  H   -0.018134   0.000355   0.302677  -0.022725  -0.062170   0.005433
    25  H   -0.000011  -0.000000   0.004220   0.002656   0.026237   0.026977
    26  H    0.000002  -0.000000   0.000144  -0.003104   0.002712   0.037576
    27  H    0.000017  -0.000000   0.001087   0.010361   0.006018   0.003315
    28  H   -0.000016   0.000000  -0.000049   0.011530   0.051146   0.012619
    29  H   -0.000001  -0.000000  -0.000431   0.001021   0.006977  -0.007331
    30  H   -0.000006   0.000000   0.000176  -0.007022  -0.006746  -0.076243
    31  H   -0.000011   0.000000   0.001872  -0.018065  -0.003458   0.059883
    32  H   -0.000082  -0.000000  -0.002275  -0.022218   0.007504  -0.056823
    33  H   -0.000003   0.000000  -0.002234   0.008191  -0.003800   0.009644
    34  H    0.000003   0.000001   0.012614  -0.014732   0.002887   0.021540
    35  H   -0.001654  -0.000011  -0.005670   0.006916  -0.009901   0.009283
    36  H    0.000031   0.000000  -0.000579   0.007314  -0.001893  -0.005677
    37  H    0.000326  -0.000000  -0.013905   0.028319  -0.001462   0.002285
    38  H   -0.001901   0.000003   0.014511  -0.070487   0.024500   0.004006
              13         14         15         16         17         18
     1  C    0.040063  -0.224004   0.074410  -0.005412   0.009015   0.012647
     2  C    0.286648  -0.058685   0.052618   0.011480   0.037594  -0.000273
     3  C    0.300676  -0.174826   0.024987  -0.035019  -0.112884   0.016747
     4  C    0.119910   0.016191   0.001734   0.001499   0.050751   0.002124
     5  C    0.054842  -0.010989   0.001998   0.010576   0.008984   0.004623
     6  C   -0.255568   0.027118  -0.018653   0.021308  -0.012706  -0.025251
     7  C   -0.046957   0.001018  -0.000498  -0.001293   0.008701  -0.009723
     8  N    0.000157   0.000005  -0.000004  -0.000001  -0.000324   0.000081
     9  C    0.193602  -0.026285   0.018942   0.179290   0.173804   0.002439
    10  C   -1.923460   0.259480  -0.164167  -0.393629  -0.674976   0.083784
    11  C   -1.642464   0.535379  -0.156102  -0.065794  -0.026725  -0.031635
    12  C   -1.645144   0.328089  -0.304091   0.267668   0.021490   0.227423
    13  C   11.000952  -1.269145   0.370728   0.067724   0.243003  -0.263023
    14  C   -1.269145   6.425984  -0.478132  -0.010239  -0.256041   0.019396
    15  C    0.370728  -0.478132   5.786280  -0.006269   0.208686   0.026820
    16  O    0.067724  -0.010239  -0.006269   8.374262  -0.021326  -0.054439
    17  C    0.243003  -0.256041   0.208686  -0.021326   7.278131  -0.476110
    18  C   -0.263023   0.019396   0.026820  -0.054439  -0.476110   5.938832
    19  C    0.127000   0.083402  -0.146893  -0.011601  -0.388364  -0.322428
    20  H    0.005548  -0.016714   0.002084   0.000042  -0.000099  -0.000002
    21  H   -0.001243   0.002216   0.000130   0.000013  -0.000003   0.000007
    22  H    0.000459  -0.000099   0.000001   0.000002  -0.000033   0.000001
    23  H    0.000084  -0.000001  -0.000000   0.000004   0.000006  -0.000004
    24  H    0.004801  -0.000266   0.000134  -0.001250  -0.009541   0.001847
    25  H    0.253434   0.036185  -0.059864  -0.012819   0.005790   0.003782
    26  H   -0.116691   0.445032  -0.007985  -0.000629   0.002409   0.000435
    27  H   -0.117124   0.481938  -0.005112   0.000357  -0.006422  -0.000180
    28  H   -0.184687   0.496713  -0.005066  -0.000424  -0.001069   0.000435
    29  H   -0.068947  -0.022354   0.446107  -0.001511   0.006624   0.000848
    30  H   -0.025943   0.002196   0.452847   0.010279   0.005730  -0.011365
    31  H   -0.109558  -0.031512   0.430844  -0.002474   0.011032   0.001743
    32  H    0.068121   0.010563  -0.019848  -0.033429   0.243045   0.031469
    33  H   -0.001777   0.000429  -0.001262   0.007467  -0.089484   0.433354
    34  H   -0.017856  -0.000469   0.002446  -0.007274  -0.094300   0.463731
    35  H    0.007347   0.000519  -0.000406   0.001409  -0.150336   0.497072
    36  H    0.000324   0.001078  -0.001282   0.010766  -0.102615  -0.015109
    37  H   -0.034169  -0.010287  -0.000578  -0.007991  -0.040099   0.000906
    38  H    0.034732   0.002517  -0.002034   0.005637  -0.120758  -0.019800
              19         20         21         22         23         24
     1  C   -0.014840   0.470795   0.644090   0.020216   0.000375   0.000144
     2  C    0.035640  -0.142155  -0.255262  -0.049977  -0.010199  -0.007373
     3  C    0.059623   0.023420   0.015641   0.106420  -0.069783   0.066001
     4  C   -0.005718  -0.023984   0.000256   0.239426  -0.011032  -0.024286
     5  C   -0.007104  -0.003647   0.006730   0.000534   0.241672   0.041737
     6  C    0.001048   0.000455   0.000632  -0.023089   0.077282   0.019550
     7  C   -0.002637  -0.000043   0.000190  -0.003994  -0.069216  -0.018134
     8  N    0.000106   0.000000   0.000000   0.000047   0.000390   0.000355
     9  C   -0.040149   0.005671   0.003297   0.000825   0.059704   0.302677
    10  C    0.031928   0.034602  -0.037237   0.030877   0.076401  -0.022725
    11  C    0.000518   0.012957  -0.027081  -0.015528   0.011284  -0.062170
    12  C   -0.170635  -0.014852  -0.000129  -0.001354   0.001901   0.005433
    13  C    0.127000   0.005548  -0.001243   0.000459   0.000084   0.004801
    14  C    0.083402  -0.016714   0.002216  -0.000099  -0.000001  -0.000266
    15  C   -0.146893   0.002084   0.000130   0.000001  -0.000000   0.000134
    16  O   -0.011601   0.000042   0.000013   0.000002   0.000004  -0.001250
    17  C   -0.388364  -0.000099  -0.000003  -0.000033   0.000006  -0.009541
    18  C   -0.322428  -0.000002   0.000007   0.000001  -0.000004   0.001847
    19  C    5.920317  -0.000016   0.000011   0.000014  -0.000002   0.003971
    20  H   -0.000016   0.547059  -0.037073  -0.000022  -0.000000  -0.000000
    21  H    0.000011  -0.037073   0.545319   0.000279   0.000000   0.000000
    22  H    0.000014  -0.000022   0.000279   0.559401  -0.004140   0.000017
    23  H   -0.000002  -0.000000   0.000000  -0.004140   0.547043  -0.000123
    24  H    0.003971  -0.000000   0.000000   0.000017  -0.000123   0.543619
    25  H   -0.010760   0.000004   0.000000   0.000000  -0.000000   0.000001
    26  H   -0.001504   0.000068  -0.000004  -0.000000   0.000000  -0.000000
    27  H    0.001212   0.000652   0.000065   0.000000   0.000000  -0.000000
    28  H   -0.000556   0.002920   0.000121   0.000000   0.000000  -0.000000
    29  H   -0.002725   0.000001  -0.000000  -0.000000   0.000000  -0.000000
    30  H    0.002299  -0.000000  -0.000000   0.000000   0.000000   0.000001
    31  H   -0.002330  -0.000006   0.000000   0.000000  -0.000000   0.000000
    32  H   -0.003692  -0.000000   0.000000   0.000000   0.000000   0.000014
    33  H   -0.003475   0.000000  -0.000000   0.000000  -0.000000   0.000001
    34  H   -0.004185  -0.000000   0.000000  -0.000000   0.000000  -0.000008
    35  H   -0.001998  -0.000000   0.000000   0.000000  -0.000000   0.000750
    36  H    0.461050   0.000000  -0.000000  -0.000000  -0.000000   0.000002
    37  H    0.411045   0.000000   0.000000   0.000000  -0.000000   0.000005
    38  H    0.481985  -0.000000   0.000000   0.000000  -0.000000   0.000187
              25         26         27         28         29         30
     1  C   -0.005738   0.015303  -0.012558  -0.045063   0.000887  -0.000059
     2  C   -0.015434  -0.013715   0.006943   0.012978  -0.004448   0.006000
     3  C   -0.003783  -0.000914  -0.008068  -0.006638  -0.000727   0.001908
     4  C    0.000324   0.000259  -0.000853   0.000850  -0.000030  -0.000108
     5  C   -0.000050  -0.000018  -0.000414  -0.000028   0.000002   0.000051
     6  C    0.000100  -0.000000   0.000793   0.000077  -0.000063   0.000010
     7  C   -0.000011   0.000002   0.000017  -0.000016  -0.000001  -0.000006
     8  N   -0.000000  -0.000000  -0.000000   0.000000  -0.000000   0.000000
     9  C    0.004220   0.000144   0.001087  -0.000049  -0.000431   0.000176
    10  C    0.002656  -0.003104   0.010361   0.011530   0.001021  -0.007022
    11  C    0.026237   0.002712   0.006018   0.051146   0.006977  -0.006746
    12  C    0.026977   0.037576   0.003315   0.012619  -0.007331  -0.076243
    13  C    0.253434  -0.116691  -0.117124  -0.184687  -0.068947  -0.025943
    14  C    0.036185   0.445032   0.481938   0.496713  -0.022354   0.002196
    15  C   -0.059864  -0.007985  -0.005112  -0.005066   0.446107   0.452847
    16  O   -0.012819  -0.000629   0.000357  -0.000424  -0.001511   0.010279
    17  C    0.005790   0.002409  -0.006422  -0.001069   0.006624   0.005730
    18  C    0.003782   0.000435  -0.000180   0.000435   0.000848  -0.011365
    19  C   -0.010760  -0.001504   0.001212  -0.000556  -0.002725   0.002299
    20  H    0.000004   0.000068   0.000652   0.002920   0.000001  -0.000000
    21  H    0.000000  -0.000004   0.000065   0.000121  -0.000000  -0.000000
    22  H    0.000000  -0.000000   0.000000   0.000000  -0.000000   0.000000
    23  H   -0.000000   0.000000   0.000000   0.000000   0.000000   0.000000
    24  H    0.000001  -0.000000  -0.000000  -0.000000  -0.000000   0.000001
    25  H    0.618457  -0.006724  -0.003779   0.005361  -0.004268  -0.003266
    26  H   -0.006724   0.552953  -0.027256  -0.029906   0.002563   0.000050
    27  H   -0.003779  -0.027256   0.542010  -0.030510   0.000080  -0.000151
    28  H    0.005361  -0.029906  -0.030510   0.557243  -0.000428   0.000099
    29  H   -0.004268   0.002563   0.000080  -0.000428   0.556797  -0.027010
    30  H   -0.003266   0.000050  -0.000151   0.000099  -0.027010   0.545600
    31  H    0.005364  -0.000166   0.000021   0.003908  -0.028663  -0.024899
    32  H   -0.000275   0.000023  -0.000005  -0.000008  -0.000012   0.001490
    33  H    0.000004   0.000000  -0.000000  -0.000000   0.000000  -0.000005
    34  H    0.000005  -0.000000  -0.000000   0.000000  -0.000000   0.000247
    35  H   -0.000003   0.000000   0.000000  -0.000000  -0.000000   0.000007
    36  H   -0.000023   0.000000   0.000000  -0.000000  -0.000000   0.000001
    37  H    0.000778  -0.000007   0.000048   0.000002   0.000000  -0.000006
    38  H    0.000036   0.000000  -0.000000   0.000000   0.000000   0.000001
              31         32         33         34         35         36
     1  C   -0.000034   0.000107   0.000021  -0.000117   0.000061  -0.000009
     2  C    0.005631   0.006645  -0.000161  -0.001305  -0.000227  -0.000417
     3  C    0.002361   0.004240   0.000302  -0.002089   0.001390   0.000085
     4  C    0.001457   0.000244  -0.000046   0.000112  -0.000121  -0.000092
     5  C   -0.000019   0.000160   0.000014   0.000003   0.000663  -0.000026
     6  C   -0.000364  -0.001705   0.000074   0.003004  -0.005181   0.000657
     7  C   -0.000011  -0.000082  -0.000003   0.000003  -0.001654   0.000031
     8  N    0.000000  -0.000000   0.000000   0.000001  -0.000011   0.000000
     9  C    0.001872  -0.002275  -0.002234   0.012614  -0.005670  -0.000579
    10  C   -0.018065  -0.022218   0.008191  -0.014732   0.006916   0.007314
    11  C   -0.003458   0.007504  -0.003800   0.002887  -0.009901  -0.001893
    12  C    0.059883  -0.056823   0.009644   0.021540   0.009283  -0.005677
    13  C   -0.109558   0.068121  -0.001777  -0.017856   0.007347   0.000324
    14  C   -0.031512   0.010563   0.000429  -0.000469   0.000519   0.001078
    15  C    0.430844  -0.019848  -0.001262   0.002446  -0.000406  -0.001282
    16  O   -0.002474  -0.033429   0.007467  -0.007274   0.001409   0.010766
    17  C    0.011032   0.243045  -0.089484  -0.094300  -0.150336  -0.102615
    18  C    0.001743   0.031469   0.433354   0.463731   0.497072  -0.015109
    19  C   -0.002330  -0.003692  -0.003475  -0.004185  -0.001998   0.461050
    20  H   -0.000006  -0.000000   0.000000  -0.000000  -0.000000   0.000000
    21  H    0.000000   0.000000  -0.000000   0.000000   0.000000  -0.000000
    22  H    0.000000   0.000000   0.000000  -0.000000   0.000000  -0.000000
    23  H   -0.000000   0.000000  -0.000000   0.000000  -0.000000  -0.000000
    24  H    0.000000   0.000014   0.000001  -0.000008   0.000750   0.000002
    25  H    0.005364  -0.000275   0.000004   0.000005  -0.000003  -0.000023
    26  H   -0.000166   0.000023   0.000000  -0.000000   0.000000   0.000000
    27  H    0.000021  -0.000005  -0.000000  -0.000000   0.000000   0.000000
    28  H    0.003908  -0.000008  -0.000000   0.000000  -0.000000  -0.000000
    29  H   -0.028663  -0.000012   0.000000  -0.000000  -0.000000  -0.000000
    30  H   -0.024899   0.001490  -0.000005   0.000247   0.000007   0.000001
    31  H    0.539759  -0.000027   0.000000  -0.000000  -0.000000   0.000000
    32  H   -0.000027   0.649334  -0.002671  -0.005516   0.005448  -0.001138
    33  H    0.000000  -0.002671   0.549917  -0.025552  -0.028067   0.000899
    34  H   -0.000000  -0.005516  -0.025552   0.536257  -0.026427   0.000064
    35  H   -0.000000   0.005448  -0.028067  -0.026427   0.539140   0.000085
    36  H    0.000000  -0.001138   0.000899   0.000064   0.000085   0.549267
    37  H   -0.000001  -0.005032   0.000056  -0.000163   0.000016  -0.025489
    38  H    0.000000   0.005502   0.000020   0.000021   0.003816  -0.027142
              37         38
     1  C    0.002542  -0.000400
     2  C    0.012543   0.003761
     3  C    0.008319  -0.002720
     4  C   -0.000250   0.002364
     5  C   -0.000210   0.000780
     6  C   -0.000357  -0.007407
     7  C    0.000326  -0.001901
     8  N   -0.000000   0.000003
     9  C   -0.013905   0.014511
    10  C    0.028319  -0.070487
    11  C   -0.001462   0.024500
    12  C    0.002285   0.004006
    13  C   -0.034169   0.034732
    14  C   -0.010287   0.002517
    15  C   -0.000578  -0.002034
    16  O   -0.007991   0.005637
    17  C   -0.040099  -0.120758
    18  C    0.000906  -0.019800
    19  C    0.411045   0.481985
    20  H    0.000000  -0.000000
    21  H    0.000000   0.000000
    22  H    0.000000   0.000000
    23  H   -0.000000  -0.000000
    24  H    0.000005   0.000187
    25  H    0.000778   0.000036
    26  H   -0.000007   0.000000
    27  H    0.000048  -0.000000
    28  H    0.000002   0.000000
    29  H    0.000000   0.000000
    30  H   -0.000006   0.000001
    31  H   -0.000001   0.000000
    32  H   -0.005032   0.005502
    33  H    0.000056   0.000020
    34  H   -0.000163   0.000021
    35  H    0.000016   0.003816
    36  H   -0.025489  -0.027142
    37  H    0.547924  -0.026785
    38  H   -0.026785   0.534230
 Mulliken charges:
               1
     1  C   -0.284588
     2  C    0.367711
     3  C   -0.377851
     4  C   -0.071102
     5  C   -0.083458
     6  C    0.302700
     7  C   -0.107461
     8  N   -0.545176
     9  C   -0.041239
    10  C   -0.064553
    11  C   -0.070282
    12  C   -0.220349
    13  C    0.543601
    14  C   -0.585403
    15  C   -0.523550
    16  O   -0.296960
    17  C    0.269422
    18  C   -0.541205
    19  C   -0.479560
    20  H    0.132335
    21  H    0.139034
    22  H    0.139716
    23  H    0.148355
    24  H    0.154630
    25  H    0.137083
    26  H    0.149093
    27  H    0.157516
    28  H    0.148449
    29  H    0.147041
    30  H    0.153840
    31  H    0.157711
    32  H    0.120845
    33  H    0.148142
    34  H    0.157059
    35  H    0.156081
    36  H    0.149868
    37  H    0.151678
    38  H    0.160826
 Sum of Mulliken charges =  -0.00000
 Mulliken charges with hydrogens summed into heavy atoms:
               1
     1  C   -0.013219
     2  C    0.367711
     3  C   -0.377851
     4  C    0.068614
     5  C    0.064897
     6  C    0.302700
     7  C   -0.107461
     8  N   -0.545176
     9  C    0.113390
    10  C   -0.064553
    11  C   -0.070282
    12  C   -0.220349
    13  C    0.680684
    14  C   -0.130344
    15  C   -0.064959
    16  O   -0.296960
    17  C    0.390266
    18  C   -0.079922
    19  C   -0.017187
 Electronic spatial extent (au):  <R**2>=           5768.3040
 Charge=             -0.0000 electrons
 Dipole moment (field-independent basis, Debye):
    X=              5.9866    Y=             -2.4455    Z=              1.1736  Tot=              6.5725
 Quadrupole moment (field-independent basis, Debye-Ang):
   XX=           -126.9243   YY=           -111.6633   ZZ=           -118.4002
   XY=             20.7886   XZ=             -1.4370   YZ=              1.8695
 Traceless Quadrupole moment (field-independent basis, Debye-Ang):
   XX=             -7.9284   YY=              7.3326   ZZ=              0.5957
   XY=             20.7886   XZ=             -1.4370   YZ=              1.8695
 Octapole moment (field-independent basis, Debye-Ang**2):
  XXX=            170.5849  YYY=            -16.0919  ZZZ=             -2.2021  XYY=             50.1043
  XXY=            -96.3595  XXZ=             15.2150  XZZ=             13.8466  YZZ=             10.4545
  YYZ=              9.0545  XYZ=             -1.8836
 Hexadecapole moment (field-independent basis, Debye-Ang**3):
 XXXX=          -5574.7275 YYYY=          -2644.0744 ZZZZ=           -487.4487 XXXY=            555.5336
 XXXZ=            -69.8627 YYYX=            202.1946 YYYZ=              0.0151 ZZZX=             -2.0781
 ZZZY=              5.1154 XXYY=          -1439.2253 XXZZ=           -933.5887 YYZZ=           -555.0188
 XXYZ=             33.8535 YYXZ=            -15.8957 ZZXY=              7.7381
 N-N= 1.358791944309D+03 E-N=-4.545751948473D+03  KE= 7.815911332038D+02
 Unable to Open any file for archive entry.
 1\1\GINC-N2\SP\RB3LYP TD-FC\6-31+G(d,p)\C17H19N1O1\HPCMGAC13\26-Aug-20
 25\0\\# td=(50-50,nstates=3) b3lyp/6-31+g(d,p) geom=connectivity\\Titl
 e Card Required\\0,1\C,0,0.371574,3.564587,-0.30381\C,0,-0.077245,2.31
 0844,-0.164472\C,0,-1.462951,1.76627,-0.112955\C,0,-2.81228,2.082645,-
 0.152164\C,0,-3.702512,1.004848,-0.030279\C,0,-3.235907,-0.319305,0.12
 7887\C,0,-4.194877,-1.380101,0.251181\N,0,-4.968695,-2.244921,0.349327
 \C,0,-1.854528,-0.631048,0.169705\C,0,-0.994085,0.44552,0.038854\C,0,0
 .425629,0.879428,-0.006114\C,0,1.545334,0.127607,0.107683\C,0,3.006242
 ,0.529103,0.125553\C,0,3.302261,1.958543,-0.337306\C,0,3.607645,0.2773
 24,1.527487\O,0,1.283442,-1.204569,0.370958\C,0,2.01437,-2.254632,-0.3
 13529\C,0,1.57625,-3.553514,0.35156\C,0,1.729423,-2.228665,-1.814153\H
 ,0,1.418755,3.829375,-0.330612\H,0,-0.343119,4.37668,-0.400099\H,0,-3.
 184584,3.09583,-0.267838\H,0,-4.773204,1.178985,-0.05336\H,0,-1.517464
 ,-1.651298,0.303891\H,0,3.524355,-0.138531,-0.57646\H,0,4.383401,2.086
 962,-0.45322\H,0,2.830589,2.184445,-1.297719\H,0,2.965352,2.689286,0.4
 02683\H,0,4.686288,0.467977,1.515248\H,0,3.443545,-0.749806,1.863626\H
 ,0,3.150354,0.947437,2.263492\H,0,3.089288,-2.11717,-0.139059\H,0,2.12
 5062,-4.398777,-0.07576\H,0,1.769992,-3.520877,1.427437\H,0,0.505833,-
 3.724931,0.198739\H,0,2.292963,-3.021671,-2.317288\H,0,2.016784,-1.272
 539,-2.262752\H,0,0.66308,-2.387115,-2.004684\\Version=ES64L-G16RevC.0
 2\State=1-A\HF=-789.1934447\RMSD=3.445e-09\PG=C01 [X(C17H19N1O1)]\\@
 The archive entry for this job was punched.


 LIFE IS A CONTINUAL STRUGGLE AGAINST THE TENDENCY TO PRODUCE ENTROPY.
 Job cpu time:       0 days  1 hours 29 minutes 56.8 seconds.
 Elapsed time:       0 days  0 hours  5 minutes 45.5 seconds.
 File lengths (MBytes):  RWF=   1154 Int=      0 D2E=      0 Chk=     54 Scr=      2
 Normal termination of Gaussian 16 at Tue Aug 26 09:06:28 2025.
