 Entering Gaussian System, Link 0=g16
 Input=M681E.gjf
 Output=M681E.log
 Initial command:
 /hpc/softwares/Gaussian/g16/l1.exe "/hpc/home/hpcmgac13/pbs.13482.admin1.x8z/Gau-3336223.inp" -scrdir="/hpc/home/hpcmgac13/pbs.13482.admin1.x8z/"
 Default linda workers: n2
 Default is to use  16 SMP processors on each worker.
 Entering Link 1 = /hpc/softwares/Gaussian/g16/l1.exe PID=   3336224.
  
 Copyright (c) 1988-2021, Gaussian, Inc.  All Rights Reserved.
  
 This is part of the Gaussian(R) 16 program.  It is based on
 the Gaussian(R) 09 system (copyright 2009, Gaussian, Inc.),
 the Gaussian(R) 03 system (copyright 2003, Gaussian, Inc.),
 the Gaussian(R) 98 system (copyright 1998, Gaussian, Inc.),
 the Gaussian(R) 94 system (copyright 1995, Gaussian, Inc.),
 the Gaussian 92(TM) system (copyright 1992, Gaussian, Inc.),
 the Gaussian 90(TM) system (copyright 1990, Gaussian, Inc.),
 the Gaussian 88(TM) system (copyright 1988, Gaussian, Inc.),
 the Gaussian 86(TM) system (copyright 1986, Carnegie Mellon
 University), and the Gaussian 82(TM) system (copyright 1983,
 Carnegie Mellon University). Gaussian is a federally registered
 trademark of Gaussian, Inc.
  
 This software contains proprietary and confidential information,
 including trade secrets, belonging to Gaussian, Inc.
  
 This software is provided under written license and may be
 used, copied, transmitted, or stored only in accord with that
 written license.
  
 The following legend is applicable only to US Government
 contracts under FAR:
  
                    RESTRICTED RIGHTS LEGEND
  
 Use, reproduction and disclosure by the US Government is
 subject to restrictions as set forth in subparagraphs (a)
 and (c) of the Commercial Computer Software - Restricted
 Rights clause in FAR 52.227-19.
  
 Gaussian, Inc.
 340 Quinnipiac St., Bldg. 40, Wallingford CT 06492
  
  
 ---------------------------------------------------------------
 Warning -- This program may not be used in any manner that
 competes with the business of Gaussian, Inc. or will provide
 assistance to any competitor of Gaussian, Inc.  The licensee
 of this program is prohibited from giving any competitor of
 Gaussian, Inc. access to this program.  By using this program,
 the user acknowledges that Gaussian, Inc. is engaged in the
 business of creating and licensing software in the field of
 computational chemistry and represents and warrants to the
 licensee that it is not a competitor of Gaussian, Inc. and that
 it will not use this program in any manner prohibited above.
 ---------------------------------------------------------------
  

 Cite this work as:
 Gaussian 16, Revision C.02,
 M. J. Frisch, G. W. Trucks, H. B. Schlegel, G. E. Scuseria, 
 M. A. Robb, J. R. Cheeseman, G. Scalmani, V. Barone, 
 G. A. Petersson, H. Nakatsuji, X. Li, M. Caricato, A. V. Marenich, 
 J. Bloino, B. G. Janesko, R. Gomperts, B. Mennucci, H. P. Hratchian, 
 J. V. Ortiz, A. F. Izmaylov, J. L. Sonnenberg, D. Williams-Young, 
 F. Ding, F. Lipparini, F. Egidi, J. Goings, B. Peng, A. Petrone, 
 T. Henderson, D. Ranasinghe, V. G. Zakrzewski, J. Gao, N. Rega, 
 G. Zheng, W. Liang, M. Hada, M. Ehara, K. Toyota, R. Fukuda, 
 J. Hasegawa, M. Ishida, T. Nakajima, Y. Honda, O. Kitao, H. Nakai, 
 T. Vreven, K. Throssell, J. A. Montgomery, Jr., J. E. Peralta, 
 F. Ogliaro, M. J. Bearpark, J. J. Heyd, E. N. Brothers, K. N. Kudin, 
 V. N. Staroverov, T. A. Keith, R. Kobayashi, J. Normand, 
 K. Raghavachari, A. P. Rendell, J. C. Burant, S. S. Iyengar, 
 J. Tomasi, M. Cossi, J. M. Millam, M. Klene, C. Adamo, R. Cammi, 
 J. W. Ochterski, R. L. Martin, K. Morokuma, O. Farkas, 
 J. B. Foresman, and D. J. Fox, Gaussian, Inc., Wallingford CT, 2019.
 
 ******************************************
 Gaussian 16:  ES64L-G16RevC.02  7-Dec-2021
                26-Aug-2025 
 ******************************************
 SetLPE:    new flags="-opt 'Tsnet.Node.lindarsharg: ssh'  -nodelist 'n2.head.cm.mguif.local' -env GAUSS_MDEF=4294967296 -env GAUSS_EXEDIR="/hpc/softwares/Gaussian/g16/bsd:/hpc/softwares/Gaussian/g16""
 Will use up to    1 processors via Linda.
 ----------------------------------------------------------
 # td=(50-50,nstates=3) b3lyp/6-31+g(d,p) geom=connectivity
 ----------------------------------------------------------
 1/38=1,57=2,172=1/1;
 2/12=2,17=6,18=5,40=1/2;
 3/5=1,6=6,7=111,11=9,25=1,30=1,74=-5/1,2,3,8;
 4//1;
 5/5=2,38=5/2;
 8/6=1,10=2,108=3/1;
 9/41=3,42=1,48=2,70=2/14;
 6/7=2,8=2,9=2,10=2/1;
 99/5=1,9=1/99;
 -------------------
 Title Card Required
 -------------------
 Symbolic Z-matrix:
 Charge =  0 Multiplicity = 1
 C                    -3.94505  -0.02003   2.24989 
 C                    -3.66197  -0.22529   0.95061 
 C                    -4.75429  -0.38192   0.01825 
 N                    -5.61773  -0.51119  -0.75218 
 C                    -2.27887  -0.32531   0.40219 
 C                    -1.48599  -1.44447   0.44565 
 C                    -1.77252  -2.82435   1.00765 
 C                    -1.55902  -2.87338   2.5379 
 C                    -3.14058  -3.41353   0.61729 
 C                    -0.16089  -1.10099  -0.14114 
 C                     0.96401  -2.05356  -0.3372 
 C                     0.82194  -3.074    -1.29751 
 C                     1.83013  -4.00506  -1.55843 
 C                     1.65901  -5.07389  -2.6133 
 C                     3.01554  -3.90835  -0.81352 
 C                     3.17042  -2.90989   0.14387 
 C                     2.16264  -1.96604   0.40135 
 C                     2.3928   -0.91119   1.46463 
 C                     3.14697   0.3437    1.02848 
 C                     3.39054   1.3539    1.97411 
 C                     4.07893   2.51641   1.63094 
 C                     4.55587   2.71917   0.32531 
 C                     5.33046   3.9658   -0.03627 
 C                     4.30849   1.71444  -0.61634 
 C                     3.61826   0.54573  -0.27283 
 C                    -0.17752   0.20503  -0.50685 
 C                    -1.49835   0.7802   -0.21795 
 C                    -1.83787   2.06227  -0.5309 
 C                    -3.21503   2.69573  -0.41557 
 C                    -3.17414   4.09395   0.23519 
 C                    -3.90724   2.7567   -1.79791 
 C                    -0.77346   2.96535  -1.13756 
 C                     0.27598   3.54165  -0.2107 
 O                    -0.81271   3.24471  -2.3247 
 H                    -3.14496   0.10922   2.97093 
 H                    -4.96868   0.02672   2.60857 
 H                    -1.01358  -3.48451   0.57353 
 H                    -1.63543  -3.90623   2.89628 
 H                    -0.57074  -2.49285   2.81592 
 H                    -2.3138   -2.2778    3.06093 
 H                    -3.1828   -4.46819   0.91157 
 H                    -3.30789  -3.35781  -0.46282 
 H                    -3.9704   -2.90343   1.113 
 H                    -0.10445  -3.12439  -1.86496 
 H                     0.63719  -5.09043  -3.00279 
 H                     2.33497  -4.90607  -3.46051 
 H                     1.88365  -6.06886  -2.21273 
 H                     3.81943  -4.62118  -0.98201 
 H                     4.09601  -2.8562    0.71254 
 H                     1.42983  -0.60138   1.88594 
 H                     2.95313  -1.36945   2.29056 
 H                     3.03494   1.22689   2.99484 
 H                     4.25005   3.27846   2.3883 
 H                     4.89141   4.85853   0.42193 
 H                     6.36936   3.9011    0.31114 
 H                     5.35539   4.11973  -1.11914 
 H                     4.6582    1.84121  -1.63829 
 H                     3.44926  -0.21253  -1.03108 
 H                     0.62996   0.72864  -1.00044 
 H                    -3.82023   2.05864   0.22981 
 H                    -4.19461   4.47295   0.35039 
 H                    -2.71351   4.06713   1.22876 
 H                    -2.62645   4.81488  -0.38202 
 H                    -4.91621   3.16621  -1.67801 
 H                    -3.99653   1.76066  -2.23879 
 H                    -3.34956   3.39033  -2.49205 
 H                     0.86343   2.74527   0.2571 
 H                     0.93322   4.20844  -0.77214 
 H                    -0.209     4.09411   0.60248 
 
 Stoichiometry    C32H35NO
 Framework group  C1[X(C32H35NO)]
 Deg. of freedom   201
 Full point group                 C1      NOp   1
 Largest Abelian subgroup         C1      NOp   1
 Largest concise Abelian subgroup C1      NOp   1
                         Standard orientation:                         
 ---------------------------------------------------------------------
 Center     Atomic      Atomic             Coordinates (Angstroms)
 Number     Number       Type             X           Y           Z
 ---------------------------------------------------------------------
      1          6           0        3.945049    0.020032    2.249887
      2          6           0        3.661968    0.225288    0.950605
      3          6           0        4.754292    0.381914    0.018254
      4          7           0        5.617731    0.511192   -0.752179
      5          6           0        2.278869    0.325309    0.402188
      6          6           0        1.485992    1.444474    0.445651
      7          6           0        1.772516    2.824353    1.007654
      8          6           0        1.559016    2.873375    2.537900
      9          6           0        3.140584    3.413527    0.617287
     10          6           0        0.160893    1.100988   -0.141135
     11          6           0       -0.964010    2.053562   -0.337203
     12          6           0       -0.821943    3.074002   -1.297506
     13          6           0       -1.830126    4.005061   -1.558425
     14          6           0       -1.659010    5.073894   -2.613301
     15          6           0       -3.015536    3.908345   -0.813518
     16          6           0       -3.170423    2.909890    0.143868
     17          6           0       -2.162641    1.966039    0.401354
     18          6           0       -2.392803    0.911187    1.464628
     19          6           0       -3.146967   -0.343704    1.028480
     20          6           0       -3.390535   -1.353902    1.974108
     21          6           0       -4.078933   -2.516412    1.630942
     22          6           0       -4.555867   -2.719167    0.325311
     23          6           0       -5.330461   -3.965800   -0.036271
     24          6           0       -4.308491   -1.714442   -0.616337
     25          6           0       -3.618258   -0.545728   -0.272829
     26          6           0        0.177522   -0.205032   -0.506847
     27          6           0        1.498349   -0.780195   -0.217948
     28          6           0        1.837872   -2.062267   -0.530899
     29          6           0        3.215025   -2.695734   -0.415565
     30          6           0        3.174137   -4.093946    0.235190
     31          6           0        3.907240   -2.756704   -1.797909
     32          6           0        0.773460   -2.965354   -1.137563
     33          6           0       -0.275978   -3.541653   -0.210696
     34          8           0        0.812705   -3.244714   -2.324703
     35          1           0        3.144957   -0.109221    2.970927
     36          1           0        4.968683   -0.026725    2.608565
     37          1           0        1.013582    3.484509    0.573526
     38          1           0        1.635429    3.906229    2.896276
     39          1           0        0.570738    2.492847    2.815924
     40          1           0        2.313800    2.277797    3.060931
     41          1           0        3.182804    4.468186    0.911572
     42          1           0        3.307890    3.357807   -0.462818
     43          1           0        3.970402    2.903429    1.112998
     44          1           0        0.104448    3.124388   -1.864963
     45          1           0       -0.637188    5.090431   -3.002790
     46          1           0       -2.334967    4.906071   -3.460506
     47          1           0       -1.883647    6.068863   -2.212725
     48          1           0       -3.819424    4.621183   -0.982007
     49          1           0       -4.096009    2.856200    0.712539
     50          1           0       -1.429826    0.601378    1.885942
     51          1           0       -2.953126    1.369451    2.290558
     52          1           0       -3.034941   -1.226892    2.994844
     53          1           0       -4.250054   -3.278459    2.388295
     54          1           0       -4.891413   -4.858529    0.421934
     55          1           0       -6.369357   -3.901098    0.311139
     56          1           0       -5.355386   -4.119726   -1.119139
     57          1           0       -4.658195   -1.841211   -1.638289
     58          1           0       -3.449255    0.212528   -1.031078
     59          1           0       -0.629964   -0.728638   -1.000438
     60          1           0        3.820227   -2.058639    0.229810
     61          1           0        4.194611   -4.472953    0.350388
     62          1           0        2.713511   -4.067127    1.228755
     63          1           0        2.626453   -4.814878   -0.382018
     64          1           0        4.916213   -3.166208   -1.678006
     65          1           0        3.996528   -1.760665   -2.238786
     66          1           0        3.349560   -3.390330   -2.492046
     67          1           0       -0.863429   -2.745274    0.257101
     68          1           0       -0.933223   -4.208436   -0.772137
     69          1           0        0.208997   -4.094113    0.602479
 ---------------------------------------------------------------------
 Rotational constants (GHZ):           0.1330941           0.1046187           0.0702697
 Standard basis: 6-31+G(d,p) (6D, 7F)
 There are   821 symmetry adapted cartesian basis functions of A   symmetry.
 There are   821 symmetry adapted basis functions of A   symmetry.
   821 basis functions,  1333 primitive gaussians,   821 cartesian basis functions
   121 alpha electrons      121 beta electrons
       nuclear repulsion energy      3465.5768040908 Hartrees.
 NAtoms=   69 NActive=   69 NUniq=   69 SFac= 1.00D+00 NAtFMM=   60 NAOKFM=T Big=T
 Integral buffers will be    131072 words long.
 Regular integral format.
 Two-electron integral symmetry is turned on.
 One-electron integrals computed using PRISM.
 NBasis=   821 RedAO= T EigKep=  1.05D-06  NBF=   821
 NBsUse=   812 1.00D-06 EigRej=  8.76D-07 NBFU=   812
 ExpMin= 4.38D-02 ExpMax= 5.48D+03 ExpMxC= 8.25D+02 IAcc=3 IRadAn=         5 AccDes= 0.00D+00
 Harris functional with IExCor=  402 and IRadAn=       5 diagonalized for initial guess.
 HarFok:  IExCor=  402 AccDes= 0.00D+00 IRadAn=         5 IDoV= 1 UseB2=F ITyADJ=14
 ICtDFT=  3500011 ScaDFX=  1.000000  1.000000  1.000000  1.000000
 FoFCou: FMM=F IPFlag=           0 FMFlag=      100000 FMFlg1=        2001
         NFxFlg=           0 DoJE=T BraDBF=F KetDBF=T FulRan=T
         wScrn=  0.000000 ICntrl=       500 IOpCl=  0 I1Cent=   200000004 NGrid=           0
         NMat0=    1 NMatS0=      1 NMatT0=    0 NMatD0=    1 NMtDS0=    0 NMtDT0=    0
 Petite list used in FoFCou.
 Requested convergence on RMS density matrix=1.00D-08 within 128 cycles.
 Requested convergence on MAX density matrix=1.00D-06.
 Requested convergence on             energy=1.00D-06.
 No special actions if energy rises.
 SCF Done:  E(RB3LYP) =  -1370.49856102     A.U. after   16 cycles
            NFock= 16  Conv=0.99D-08     -V/T= 2.0098
 DoSCS=F DFT=T ScalE2(SS,OS)=  1.000000  1.000000
 ExpMin= 4.38D-02 ExpMax= 5.48D+03 ExpMxC= 8.25D+02 IAcc=3 IRadAn=         5 AccDes= 0.00D+00
 HarFok:  IExCor=  205 AccDes= 0.00D+00 IRadAn=         5 IDoV=-2 UseB2=F ITyADJ=14
 ICtDFT= 12500011 ScaDFX=  1.000000  1.000000  1.000000  1.000000
 GSVD:  LWork=       -1428 too small for GESVD, short by        6290 words or        6290 for optimal perf.
 Range of M.O.s used for correlation:    35   812
 NBasis=   821 NAE=   121 NBE=   121 NFC=    34 NFV=     0
 NROrb=    778 NOA=    87 NOB=    87 NVA=   691 NVB=   691

 **** Warning!!: The largest alpha MO coefficient is  0.14202607D+03

 Orbital symmetries:
       Occupied  (A) (A) (A) (A) (A) (A) (A) (A) (A) (A) (A) (A)
                 (A) (A) (A) (A) (A) (A) (A) (A) (A) (A) (A) (A)
                 (A) (A) (A) (A) (A) (A) (A) (A) (A) (A) (A) (A)
                 (A) (A) (A) (A) (A) (A) (A) (A) (A) (A) (A) (A)
                 (A) (A) (A) (A) (A) (A) (A) (A) (A) (A) (A) (A)
                 (A) (A) (A) (A) (A) (A) (A) (A) (A) (A) (A) (A)
                 (A) (A) (A) (A) (A) (A) (A) (A) (A) (A) (A) (A)
                 (A) (A) (A) (A) (A) (A) (A) (A) (A) (A) (A) (A)
                 (A) (A) (A) (A) (A) (A) (A) (A) (A) (A) (A) (A)
                 (A) (A) (A) (A) (A) (A) (A) (A) (A) (A) (A) (A)
                 (A)
       Virtual   (A) (A) (A) (A) (A) (A) (A) (A) (A) (A) (A) (A)
                 (A) (A) (A) (A) (A) (A) (A) (A) (A) (A) (A) (A)
                 (A) (A) (A) (A) (A) (A) (A) (A) (A) (A) (A) (A)
                 (A) (A) (A) (A) (A) (A) (A) (A) (A) (A) (A) (A)
                 (A) (A) (A) (A) (A) (A) (A) (A) (A) (A) (A) (A)
                 (A) (A) (A) (A) (A) (A) (A) (A) (A) (A) (A) (A)
                 (A) (A) (A) (A) (A) (A) (A) (A) (A) (A) (A) (A)
                 (A) (A) (A) (A) (A) (A) (A) (A) (A) (A) (A) (A)
                 (A) (A) (A) (A) (A) (A) (A) (A) (A) (A) (A) (A)
                 (A) (A) (A) (A) (A) (A) (A) (A) (A) (A) (A) (A)
                 (A) (A) (A) (A) (A) (A) (A) (A) (A) (A) (A) (A)
                 (A) (A) (A) (A) (A) (A) (A) (A) (A) (A) (A) (A)
                 (A) (A) (A) (A) (A) (A) (A) (A) (A) (A) (A) (A)
                 (A) (A) (A) (A) (A) (A) (A) (A) (A) (A) (A) (A)
                 (A) (A) (A) (A) (A) (A) (A) (A) (A) (A) (A) (A)
                 (A) (A) (A) (A) (A) (A) (A) (A) (A) (A) (A) (A)
                 (A) (A) (A) (A) (A) (A) (A) (A) (A) (A) (A) (A)
                 (A) (A) (A) (A) (A) (A) (A) (A) (A) (A) (A) (A)
                 (A) (A) (A) (A) (A) (A) (A) (A) (A) (A) (A) (A)
                 (A) (A) (A) (A) (A) (A) (A) (A) (A) (A) (A) (A)
                 (A) (A) (A) (A) (A) (A) (A) (A) (A) (A) (A) (A)
                 (A) (A) (A) (A) (A) (A) (A) (A) (A) (A) (A) (A)
                 (A) (A) (A) (A) (A) (A) (A) (A) (A) (A) (A) (A)
                 (A) (A) (A) (A) (A) (A) (A) (A) (A) (A) (A) (A)
                 (A) (A) (A) (A) (A) (A) (A) (A) (A) (A) (A) (A)
                 (A) (A) (A) (A) (A) (A) (A) (A) (A) (A) (A) (A)
                 (A) (A) (A) (A) (A) (A) (A) (A) (A) (A) (A) (A)
                 (A) (A) (A) (A) (A) (A) (A) (A) (A) (A) (A) (A)
                 (A) (A) (A) (A) (A) (A) (A) (A) (A) (A) (A) (A)
                 (A) (A) (A) (A) (A) (A) (A) (A) (A) (A) (A) (A)
                 (A) (A) (A) (A) (A) (A) (A) (A) (A) (A) (A) (A)
                 (A) (A) (A) (A) (A) (A) (A) (A) (A) (A) (A) (A)
                 (A) (A) (A) (A) (A) (A) (A) (A) (A) (A) (A) (A)
                 (A) (A) (A) (A) (A) (A) (A) (A) (A) (A) (A) (A)
                 (A) (A) (A) (A) (A) (A) (A) (A) (A) (A) (A) (A)
                 (A) (A) (A) (A) (A) (A) (A) (A) (A) (A) (A) (A)
                 (A) (A) (A) (A) (A) (A) (A) (A) (A) (A) (A) (A)
                 (A) (A) (A) (A) (A) (A) (A) (A) (A) (A) (A) (A)
                 (A) (A) (A) (A) (A) (A) (A) (A) (A) (A) (A) (A)
                 (A) (A) (A) (A) (A) (A) (A) (A) (A) (A) (A) (A)
                 (A) (A) (A) (A) (A) (A) (A) (A) (A) (A) (A) (A)
                 (A) (A) (A) (A) (A) (A) (A) (A) (A) (A) (A) (A)
                 (A) (A) (A) (A) (A) (A) (A) (A) (A) (A) (A) (A)
                 (A) (A) (A) (A) (A) (A) (A) (A) (A) (A) (A) (A)
                 (A) (A) (A) (A) (A) (A) (A) (A) (A) (A) (A) (A)
                 (A) (A) (A) (A) (A) (A) (A) (A) (A) (A) (A) (A)
                 (A) (A) (A) (A) (A) (A) (A) (A) (A) (A) (A) (A)
                 (A) (A) (A) (A) (A) (A) (A) (A) (A) (A) (A) (A)
                 (A) (A) (A) (A) (A) (A) (A) (A) (A) (A) (A) (A)
                 (A) (A) (A) (A) (A) (A) (A) (A) (A) (A) (A) (A)
                 (A) (A) (A) (A) (A) (A) (A) (A) (A) (A) (A) (A)
                 (A) (A) (A) (A) (A) (A) (A) (A) (A) (A) (A) (A)
                 (A) (A) (A) (A) (A) (A) (A) (A) (A) (A) (A) (A)
                 (A) (A) (A) (A) (A) (A) (A) (A) (A) (A) (A) (A)
                 (A) (A) (A) (A) (A) (A) (A) (A) (A) (A) (A) (A)
                 (A) (A) (A) (A) (A) (A) (A) (A) (A) (A) (A) (A)
                 (A) (A) (A) (A) (A) (A) (A) (A) (A) (A) (A) (A)
                 (A) (A) (A) (A) (A) (A) (A)
    24 initial guesses have been made.
 Convergence on wavefunction:    0.001000000000000
 Iteration     1 Dimension    24 NMult     0 NNew     24
 CISAX will form    24 AO SS matrices at one time.
 New state      1 was old state      2
 New state      2 was old state     10
 New state      3 was old state      8
 New state      4 was old state      1
 New state      5 was old state      7
 New state      6 was old state     12
 New state      7 was old state      4
 New state      8 was old state      3
 New state      9 was old state      6
 New state     10 was old state      5
 New state     12 was old state     20
 Vector   6 SDiff=5.55D-01 TDiff=8.81D+00 assumed to be singlet.
 Vector  12 SDiff=5.66D-01 TDiff=8.51D+00 assumed to be singlet.
 Iteration     2 Dimension    36 NMult    24 NNew     12
 New state      3 was old state      4
 New state      4 was old state      3
 New state      6 was old state      8
 Iteration     3 Dimension    48 NMult    36 NNew     12
 Iteration     4 Dimension    60 NMult    48 NNew     12
 Iteration     5 Dimension    72 NMult    60 NNew     12
 Iteration     6 Dimension    82 NMult    72 NNew     10
 Iteration     7 Dimension    86 NMult    82 NNew      4
 Iteration     8 Dimension    90 NMult    86 NNew      4
 Iteration     9 Dimension    94 NMult    90 NNew      4
 Iteration    10 Dimension    98 NMult    94 NNew      4
 ***********************************************************************
 Excited states from <AA,BB:AA,BB> singles matrix:
 ***********************************************************************
 
 Ground to excited state transition densities written to RWF  633
 Ground to excited state transition electric dipole moments (Au):
       state          X           Y           Z        Dip. S.      Osc.
         1         0.0000     -0.0000     -0.0000      0.0000      0.0000
         2         0.0000      0.0000      0.0000      0.0000      0.0000
         3        -0.2398     -0.1954     -0.0678      0.1003      0.0076
         4        -0.0000      0.0000     -0.0000      0.0000      0.0000
         5         0.1064      0.0397      0.0890      0.0208      0.0018
         6         0.1150     -0.3193     -0.1364      0.1338      0.0121
 Ground to excited state transition velocity dipole moments (Au):
       state          X           Y           Z        Dip. S.      Osc.
         1        -0.0000      0.0000     -0.0000      0.0000      0.0000
         2         0.0000     -0.0000     -0.0000      0.0000      0.0000
         3         0.0279      0.0230      0.0066      0.0014      0.0079
         4         0.0000     -0.0000      0.0000      0.0000      0.0000
         5        -0.0132     -0.0009     -0.0091      0.0003      0.0013
         6        -0.0150      0.0390      0.0189      0.0021      0.0103
 Ground to excited state transition magnetic dipole moments (Au):
       state          X           Y           Z
         1         0.0000      0.0000     -0.0000
         2         0.0000     -0.0000     -0.0000
         3         0.2391      0.1441     -0.6396
         4         0.0000      0.0000      0.0000
         5         0.0796      0.0403      0.0140
         6        -0.0874     -0.0516     -0.3125
 Ground to excited state transition velocity quadrupole moments (Au):
       state          XX          YY          ZZ          XY          XZ          YZ
         1         0.0000     -0.0000     -0.0000     -0.0000      0.0000      0.0000
         2        -0.0000     -0.0000      0.0000      0.0000      0.0000      0.0000
         3         0.3387     -0.0664      0.0031     -0.1156      0.0737     -0.1192
         4         0.0000      0.0000      0.0000     -0.0000     -0.0000      0.0000
         5        -0.0940      0.0236     -0.0352     -0.0136     -0.0586     -0.0067
         6         0.1494     -0.0968     -0.0671      0.0956      0.0072     -0.1170
 <0|del|b> * <b|rxdel|0> + <0|del|b> * <b|delr+rdel|0>
 Rotatory Strengths (R) in cgs (10**-40 erg-esu-cm/Gauss)
       state          XX          YY          ZZ    R(velocity)    E-M Angle
         1         0.0000      0.0000     -0.0000      0.0000       90.00
         2         0.0000      0.0000      0.0000      0.0000       90.00
         3       -10.4776     -0.3569     46.7893     11.9849       77.01
         4        -0.0000      0.0000      0.0000     -0.0000       90.00
         5        -0.2517     -3.3442     -3.0999     -2.2319      146.91
         6       -16.6184    -12.0804     -5.6516    -11.4501      116.01
 1/2[<0|r|b>*<b|rxdel|0> + (<0|rxdel|b>*<b|r|0>)*]
 Rotatory Strengths (R) in cgs (10**-40 erg-esu-cm/Gauss)
       state          XX          YY          ZZ     R(length)
         1        -0.0000      0.0000     -0.0000     -0.0000
         2        -0.0000      0.0000      0.0000      0.0000
         3        40.5500     19.9151    -30.6728      9.9308
         4         0.0000     -0.0000      0.0000     -0.0000
         5        -5.9864     -1.1309     -0.8830     -2.6668
         6         7.1011    -11.6417    -30.1287    -11.5564
  1/2[<0|del|b>*<b|r|0> + (<0|r|b>*<b|del|0>)*] (Au)
       state          X           Y           Z        Dip. S.   Osc.(frdel)
         1        -0.0000     -0.0000      0.0000     -0.0000     -0.0000
         2         0.0000     -0.0000     -0.0000      0.0000      0.0000
         3        -0.0067     -0.0045     -0.0004      0.0116      0.0078
         4        -0.0000     -0.0000     -0.0000      0.0000      0.0000
         5        -0.0014     -0.0000     -0.0008      0.0023      0.0015
         6        -0.0017     -0.0125     -0.0026      0.0168      0.0112

 Excitation energies and oscillator strengths:
 
 Excited State   1:      Triplet-A      2.0109 eV  616.56 nm  f=0.0000  <S**2>=2.000
     119 ->122        -0.11071
     121 ->122         0.68260
 This state for optimization and/or second-order correction.
 Total Energy, E(TD-HF/TD-DFT) =  -1370.42466173    
 Copying the excited state density for this state as the 1-particle RhoCI density.
 
 Excited State   2:      Triplet-A      2.4237 eV  511.54 nm  f=0.0000  <S**2>=2.000
     115 ->122        -0.29005
     117 ->122        -0.10103
     118 ->122         0.48485
     119 ->122        -0.37438
 
 Excited State   3:      Singlet-A      3.0850 eV  401.89 nm  f=0.0076  <S**2>=0.000
     121 ->122         0.70362
 
 Excited State   4:      Triplet-A      3.1869 eV  389.05 nm  f=0.0000  <S**2>=2.000
     114 ->123         0.58686
     115 ->123        -0.21570
     116 ->123         0.13458
     121 ->123        -0.20194
     114 <-123         0.11047
 
 Excited State   5:      Singlet-A      3.4972 eV  354.52 nm  f=0.0018  <S**2>=0.000
     119 ->123        -0.10576
     121 ->123         0.69383
 
 Excited State   6:      Singlet-A      3.7034 eV  334.78 nm  f=0.0121  <S**2>=0.000
     115 ->122        -0.24471
     116 ->122         0.37327
     116 ->124         0.10953
     117 ->122         0.40309
     117 ->124         0.11664
     118 ->122        -0.25942
     120 ->122         0.12631
 SavETr:  write IOETrn=   770 NScale= 10 NData=  16 NLR=1 NState=    6 LETran=     118.

 **********************************************************************

            Population analysis using the SCF Density.

 **********************************************************************

 Orbital symmetries:
       Occupied  (A) (A) (A) (A) (A) (A) (A) (A) (A) (A) (A) (A)
                 (A) (A) (A) (A) (A) (A) (A) (A) (A) (A) (A) (A)
                 (A) (A) (A) (A) (A) (A) (A) (A) (A) (A) (A) (A)
                 (A) (A) (A) (A) (A) (A) (A) (A) (A) (A) (A) (A)
                 (A) (A) (A) (A) (A) (A) (A) (A) (A) (A) (A) (A)
                 (A) (A) (A) (A) (A) (A) (A) (A) (A) (A) (A) (A)
                 (A) (A) (A) (A) (A) (A) (A) (A) (A) (A) (A) (A)
                 (A) (A) (A) (A) (A) (A) (A) (A) (A) (A) (A) (A)
                 (A) (A) (A) (A) (A) (A) (A) (A) (A) (A) (A) (A)
                 (A) (A) (A) (A) (A) (A) (A) (A) (A) (A) (A) (A)
                 (A)
       Virtual   (A) (A) (A) (A) (A) (A) (A) (A) (A) (A) (A) (A)
                 (A) (A) (A) (A) (A) (A) (A) (A) (A) (A) (A) (A)
                 (A) (A) (A) (A) (A) (A) (A) (A) (A) (A) (A) (A)
                 (A) (A) (A) (A) (A) (A) (A) (A) (A) (A) (A) (A)
                 (A) (A) (A) (A) (A) (A) (A) (A) (A) (A) (A) (A)
                 (A) (A) (A) (A) (A) (A) (A) (A) (A) (A) (A) (A)
                 (A) (A) (A) (A) (A) (A) (A) (A) (A) (A) (A) (A)
                 (A) (A) (A) (A) (A) (A) (A) (A) (A) (A) (A) (A)
                 (A) (A) (A) (A) (A) (A) (A) (A) (A) (A) (A) (A)
                 (A) (A) (A) (A) (A) (A) (A) (A) (A) (A) (A) (A)
                 (A) (A) (A) (A) (A) (A) (A) (A) (A) (A) (A) (A)
                 (A) (A) (A) (A) (A) (A) (A) (A) (A) (A) (A) (A)
                 (A) (A) (A) (A) (A) (A) (A) (A) (A) (A) (A) (A)
                 (A) (A) (A) (A) (A) (A) (A) (A) (A) (A) (A) (A)
                 (A) (A) (A) (A) (A) (A) (A) (A) (A) (A) (A) (A)
                 (A) (A) (A) (A) (A) (A) (A) (A) (A) (A) (A) (A)
                 (A) (A) (A) (A) (A) (A) (A) (A) (A) (A) (A) (A)
                 (A) (A) (A) (A) (A) (A) (A) (A) (A) (A) (A) (A)
                 (A) (A) (A) (A) (A) (A) (A) (A) (A) (A) (A) (A)
                 (A) (A) (A) (A) (A) (A) (A) (A) (A) (A) (A) (A)
                 (A) (A) (A) (A) (A) (A) (A) (A) (A) (A) (A) (A)
                 (A) (A) (A) (A) (A) (A) (A) (A) (A) (A) (A) (A)
                 (A) (A) (A) (A) (A) (A) (A) (A) (A) (A) (A) (A)
                 (A) (A) (A) (A) (A) (A) (A) (A) (A) (A) (A) (A)
                 (A) (A) (A) (A) (A) (A) (A) (A) (A) (A) (A) (A)
                 (A) (A) (A) (A) (A) (A) (A) (A) (A) (A) (A) (A)
                 (A) (A) (A) (A) (A) (A) (A) (A) (A) (A) (A) (A)
                 (A) (A) (A) (A) (A) (A) (A) (A) (A) (A) (A) (A)
                 (A) (A) (A) (A) (A) (A) (A) (A) (A) (A) (A) (A)
                 (A) (A) (A) (A) (A) (A) (A) (A) (A) (A) (A) (A)
                 (A) (A) (A) (A) (A) (A) (A) (A) (A) (A) (A) (A)
                 (A) (A) (A) (A) (A) (A) (A) (A) (A) (A) (A) (A)
                 (A) (A) (A) (A) (A) (A) (A) (A) (A) (A) (A) (A)
                 (A) (A) (A) (A) (A) (A) (A) (A) (A) (A) (A) (A)
                 (A) (A) (A) (A) (A) (A) (A) (A) (A) (A) (A) (A)
                 (A) (A) (A) (A) (A) (A) (A) (A) (A) (A) (A) (A)
                 (A) (A) (A) (A) (A) (A) (A) (A) (A) (A) (A) (A)
                 (A) (A) (A) (A) (A) (A) (A) (A) (A) (A) (A) (A)
                 (A) (A) (A) (A) (A) (A) (A) (A) (A) (A) (A) (A)
                 (A) (A) (A) (A) (A) (A) (A) (A) (A) (A) (A) (A)
                 (A) (A) (A) (A) (A) (A) (A) (A) (A) (A) (A) (A)
                 (A) (A) (A) (A) (A) (A) (A) (A) (A) (A) (A) (A)
                 (A) (A) (A) (A) (A) (A) (A) (A) (A) (A) (A) (A)
                 (A) (A) (A) (A) (A) (A) (A) (A) (A) (A) (A) (A)
                 (A) (A) (A) (A) (A) (A) (A) (A) (A) (A) (A) (A)
                 (A) (A) (A) (A) (A) (A) (A) (A) (A) (A) (A) (A)
                 (A) (A) (A) (A) (A) (A) (A) (A) (A) (A) (A) (A)
                 (A) (A) (A) (A) (A) (A) (A) (A) (A) (A) (A) (A)
                 (A) (A) (A) (A) (A) (A) (A) (A) (A) (A) (A) (A)
                 (A) (A) (A) (A) (A) (A) (A) (A) (A) (A) (A) (A)
                 (A) (A) (A) (A) (A) (A) (A) (A) (A) (A) (A) (A)
                 (A) (A) (A) (A) (A) (A) (A) (A) (A) (A) (A) (A)
                 (A) (A) (A) (A) (A) (A) (A) (A) (A) (A) (A) (A)
                 (A) (A) (A) (A) (A) (A) (A) (A) (A) (A) (A) (A)
                 (A) (A) (A) (A) (A) (A) (A) (A) (A) (A) (A) (A)
                 (A) (A) (A) (A) (A) (A) (A) (A) (A) (A) (A) (A)
                 (A) (A) (A) (A) (A) (A) (A) (A) (A) (A) (A) (A)
                 (A) (A) (A) (A) (A) (A) (A)
 The electronic state is 1-A.
 Alpha  occ. eigenvalues --  -19.16141 -14.34844 -10.29589 -10.25762 -10.23939
 Alpha  occ. eigenvalues --  -10.23237 -10.22692 -10.21868 -10.21365 -10.21169
 Alpha  occ. eigenvalues --  -10.21015 -10.20930 -10.20746 -10.20631 -10.20590
 Alpha  occ. eigenvalues --  -10.20518 -10.20452 -10.20402 -10.20127 -10.19810
 Alpha  occ. eigenvalues --  -10.19756 -10.19698 -10.19648 -10.19641 -10.19615
 Alpha  occ. eigenvalues --  -10.19482 -10.19332 -10.19219 -10.19217 -10.19154
 Alpha  occ. eigenvalues --  -10.19094 -10.18633 -10.18012 -10.17716  -1.05799
 Alpha  occ. eigenvalues --   -0.91717  -0.89328  -0.87191  -0.86218  -0.83584
 Alpha  occ. eigenvalues --   -0.82781  -0.80747  -0.80193  -0.78042  -0.77034
 Alpha  occ. eigenvalues --   -0.76155  -0.74950  -0.73591  -0.73108  -0.71441
 Alpha  occ. eigenvalues --   -0.69165  -0.69078  -0.69020  -0.66898  -0.65788
 Alpha  occ. eigenvalues --   -0.65013  -0.61855  -0.61338  -0.60470  -0.59819
 Alpha  occ. eigenvalues --   -0.59130  -0.57673  -0.56660  -0.53513  -0.52300
 Alpha  occ. eigenvalues --   -0.50872  -0.50356  -0.49637  -0.48911  -0.48532
 Alpha  occ. eigenvalues --   -0.47056  -0.46728  -0.45962  -0.45665  -0.45415
 Alpha  occ. eigenvalues --   -0.45347  -0.45129  -0.44314  -0.43650  -0.43277
 Alpha  occ. eigenvalues --   -0.42741  -0.42637  -0.42254  -0.42184  -0.41887
 Alpha  occ. eigenvalues --   -0.41825  -0.41582  -0.41096  -0.40707  -0.40524
 Alpha  occ. eigenvalues --   -0.40209  -0.40051  -0.39273  -0.38799  -0.38713
 Alpha  occ. eigenvalues --   -0.38593  -0.37831  -0.37654  -0.37165  -0.36585
 Alpha  occ. eigenvalues --   -0.35942  -0.35634  -0.35327  -0.35239  -0.34934
 Alpha  occ. eigenvalues --   -0.34703  -0.34570  -0.34475  -0.34197  -0.33945
 Alpha  occ. eigenvalues --   -0.33703  -0.33342  -0.33019  -0.28703  -0.26655
 Alpha  occ. eigenvalues --   -0.25957  -0.25704  -0.24967  -0.24395  -0.24131
 Alpha  occ. eigenvalues --   -0.22596
 Alpha virt. eigenvalues --   -0.08529  -0.06601  -0.03597  -0.02659  -0.01976
 Alpha virt. eigenvalues --   -0.01509  -0.01353  -0.00793   0.00026   0.00188
 Alpha virt. eigenvalues --    0.00689   0.01256   0.01552   0.01829   0.02126
 Alpha virt. eigenvalues --    0.02376   0.02405   0.02923   0.03075   0.03433
 Alpha virt. eigenvalues --    0.03792   0.04030   0.04098   0.04438   0.04882
 Alpha virt. eigenvalues --    0.04925   0.05255   0.05487   0.05791   0.05897
 Alpha virt. eigenvalues --    0.05969   0.06290   0.06516   0.06658   0.07096
 Alpha virt. eigenvalues --    0.07225   0.07445   0.07627   0.07741   0.08085
 Alpha virt. eigenvalues --    0.08293   0.08668   0.09015   0.09117   0.09472
 Alpha virt. eigenvalues --    0.09579   0.09630   0.09910   0.10344   0.10411
 Alpha virt. eigenvalues --    0.10517   0.10982   0.11162   0.11324   0.11585
 Alpha virt. eigenvalues --    0.12048   0.12156   0.12224   0.12420   0.12599
 Alpha virt. eigenvalues --    0.12805   0.13216   0.13625   0.13931   0.14009
 Alpha virt. eigenvalues --    0.14288   0.14466   0.14483   0.15042   0.15283
 Alpha virt. eigenvalues --    0.15413   0.15644   0.15736   0.16110   0.16226
 Alpha virt. eigenvalues --    0.16392   0.16702   0.16871   0.17056   0.17190
 Alpha virt. eigenvalues --    0.17351   0.17562   0.18001   0.18304   0.18447
 Alpha virt. eigenvalues --    0.18593   0.18846   0.18986   0.19270   0.19519
 Alpha virt. eigenvalues --    0.19753   0.20018   0.20140   0.20306   0.20597
 Alpha virt. eigenvalues --    0.20696   0.20818   0.20867   0.21339   0.21402
 Alpha virt. eigenvalues --    0.21648   0.21849   0.21892   0.22086   0.22221
 Alpha virt. eigenvalues --    0.22535   0.22815   0.22849   0.23012   0.23056
 Alpha virt. eigenvalues --    0.23453   0.23626   0.23677   0.23937   0.24082
 Alpha virt. eigenvalues --    0.24576   0.24845   0.24979   0.25234   0.25336
 Alpha virt. eigenvalues --    0.25556   0.25758   0.25928   0.26277   0.26336
 Alpha virt. eigenvalues --    0.26519   0.26654   0.26790   0.27179   0.27247
 Alpha virt. eigenvalues --    0.27425   0.27600   0.27756   0.27947   0.28038
 Alpha virt. eigenvalues --    0.28275   0.28578   0.28773   0.28988   0.29164
 Alpha virt. eigenvalues --    0.29339   0.29578   0.29686   0.30014   0.30285
 Alpha virt. eigenvalues --    0.30512   0.30759   0.30946   0.31153   0.31269
 Alpha virt. eigenvalues --    0.31733   0.31819   0.32252   0.32354   0.32409
 Alpha virt. eigenvalues --    0.32849   0.33131   0.33380   0.33646   0.33886
 Alpha virt. eigenvalues --    0.34229   0.34773   0.34872   0.35223   0.35362
 Alpha virt. eigenvalues --    0.35845   0.36121   0.36546   0.36704   0.36954
 Alpha virt. eigenvalues --    0.37260   0.37509   0.37995   0.38637   0.38763
 Alpha virt. eigenvalues --    0.38877   0.39199   0.39310   0.40126   0.40241
 Alpha virt. eigenvalues --    0.40713   0.40735   0.41205   0.41582   0.42149
 Alpha virt. eigenvalues --    0.42223   0.42605   0.42810   0.43609   0.43876
 Alpha virt. eigenvalues --    0.44381   0.44849   0.45625   0.45813   0.46784
 Alpha virt. eigenvalues --    0.46804   0.47414   0.47907   0.48794   0.50404
 Alpha virt. eigenvalues --    0.50834   0.51816   0.52888   0.53549   0.55044
 Alpha virt. eigenvalues --    0.56638   0.57162   0.58264   0.61420   0.61762
 Alpha virt. eigenvalues --    0.65572   0.66672   0.67163   0.67689   0.68192
 Alpha virt. eigenvalues --    0.68513   0.68854   0.69030   0.69440   0.69714
 Alpha virt. eigenvalues --    0.69867   0.70304   0.71482   0.71893   0.72097
 Alpha virt. eigenvalues --    0.72378   0.72640   0.73198   0.73652   0.74083
 Alpha virt. eigenvalues --    0.74254   0.74751   0.74976   0.75427   0.75624
 Alpha virt. eigenvalues --    0.76049   0.76496   0.77205   0.77676   0.78135
 Alpha virt. eigenvalues --    0.78243   0.78422   0.78621   0.78895   0.79355
 Alpha virt. eigenvalues --    0.80008   0.80460   0.80686   0.80801   0.81347
 Alpha virt. eigenvalues --    0.81731   0.82220   0.82337   0.82652   0.83249
 Alpha virt. eigenvalues --    0.83465   0.83949   0.84193   0.84616   0.84810
 Alpha virt. eigenvalues --    0.85460   0.85789   0.86213   0.86728   0.86972
 Alpha virt. eigenvalues --    0.87310   0.87485   0.88156   0.88349   0.88621
 Alpha virt. eigenvalues --    0.89520   0.89739   0.90170   0.90351   0.91029
 Alpha virt. eigenvalues --    0.91530   0.91802   0.92156   0.92552   0.93298
 Alpha virt. eigenvalues --    0.93462   0.94105   0.95209   0.95725   0.96636
 Alpha virt. eigenvalues --    0.96859   0.97122   0.97728   0.97955   0.98033
 Alpha virt. eigenvalues --    0.98832   0.99000   0.99249   0.99378   1.00469
 Alpha virt. eigenvalues --    1.00834   1.01169   1.01484   1.02654   1.02790
 Alpha virt. eigenvalues --    1.03113   1.03341   1.03694   1.04164   1.04429
 Alpha virt. eigenvalues --    1.05096   1.05255   1.05919   1.06768   1.07418
 Alpha virt. eigenvalues --    1.07640   1.07945   1.08411   1.08865   1.09177
 Alpha virt. eigenvalues --    1.10253   1.10429   1.11038   1.11580   1.11914
 Alpha virt. eigenvalues --    1.12946   1.13529   1.13730   1.14194   1.14391
 Alpha virt. eigenvalues --    1.15107   1.16018   1.16303   1.17311   1.17601
 Alpha virt. eigenvalues --    1.18306   1.19036   1.19539   1.20694   1.21114
 Alpha virt. eigenvalues --    1.21658   1.21749   1.23464   1.24118   1.24766
 Alpha virt. eigenvalues --    1.24987   1.25472   1.25995   1.26383   1.26758
 Alpha virt. eigenvalues --    1.27996   1.28277   1.28772   1.28921   1.30670
 Alpha virt. eigenvalues --    1.31138   1.31309   1.31692   1.32098   1.32897
 Alpha virt. eigenvalues --    1.32980   1.33580   1.34373   1.34610   1.35247
 Alpha virt. eigenvalues --    1.36697   1.37259   1.37710   1.38440   1.38660
 Alpha virt. eigenvalues --    1.39093   1.39982   1.40640   1.41202   1.41634
 Alpha virt. eigenvalues --    1.41954   1.42728   1.43162   1.43367   1.44109
 Alpha virt. eigenvalues --    1.45408   1.45981   1.46347   1.47113   1.47950
 Alpha virt. eigenvalues --    1.48305   1.48971   1.49375   1.51097   1.51364
 Alpha virt. eigenvalues --    1.52266   1.53361   1.53664   1.54030   1.57290
 Alpha virt. eigenvalues --    1.57764   1.59232   1.60001   1.60780   1.62127
 Alpha virt. eigenvalues --    1.63258   1.63390   1.65298   1.65482   1.66077
 Alpha virt. eigenvalues --    1.67883   1.69490   1.70170   1.71204   1.72525
 Alpha virt. eigenvalues --    1.72716   1.73621   1.74463   1.74790   1.76225
 Alpha virt. eigenvalues --    1.76747   1.77286   1.77651   1.78793   1.78988
 Alpha virt. eigenvalues --    1.79549   1.81059   1.81714   1.82407   1.82896
 Alpha virt. eigenvalues --    1.83473   1.84601   1.85470   1.85874   1.86329
 Alpha virt. eigenvalues --    1.86470   1.87000   1.87819   1.88316   1.88666
 Alpha virt. eigenvalues --    1.88944   1.89405   1.89836   1.90303   1.91369
 Alpha virt. eigenvalues --    1.92019   1.92700   1.93374   1.93901   1.94580
 Alpha virt. eigenvalues --    1.94907   1.95175   1.96096   1.96348   1.96894
 Alpha virt. eigenvalues --    1.97434   1.98273   1.98997   1.99355   2.00316
 Alpha virt. eigenvalues --    2.01229   2.01350   2.01772   2.02328   2.03443
 Alpha virt. eigenvalues --    2.03853   2.04007   2.04502   2.04966   2.05106
 Alpha virt. eigenvalues --    2.05250   2.05460   2.05901   2.06297   2.06634
 Alpha virt. eigenvalues --    2.06890   2.07450   2.08003   2.08561   2.09766
 Alpha virt. eigenvalues --    2.09892   2.10550   2.10774   2.11140   2.12206
 Alpha virt. eigenvalues --    2.12337   2.12498   2.12985   2.13302   2.13896
 Alpha virt. eigenvalues --    2.14456   2.14666   2.15299   2.15698   2.16200
 Alpha virt. eigenvalues --    2.16370   2.16917   2.17580   2.17859   2.18456
 Alpha virt. eigenvalues --    2.19149   2.19473   2.19659   2.21690   2.21960
 Alpha virt. eigenvalues --    2.22919   2.24370   2.25912   2.26233   2.26604
 Alpha virt. eigenvalues --    2.27583   2.28020   2.28912   2.29683   2.30903
 Alpha virt. eigenvalues --    2.31193   2.31787   2.32747   2.33918   2.34765
 Alpha virt. eigenvalues --    2.35138   2.35450   2.36571   2.37078   2.37842
 Alpha virt. eigenvalues --    2.38581   2.38667   2.39519   2.39852   2.40818
 Alpha virt. eigenvalues --    2.41179   2.41611   2.42324   2.42413   2.43554
 Alpha virt. eigenvalues --    2.44026   2.45176   2.45957   2.46716   2.46998
 Alpha virt. eigenvalues --    2.47838   2.48685   2.49467   2.50334   2.51211
 Alpha virt. eigenvalues --    2.51570   2.52580   2.52927   2.53825   2.54227
 Alpha virt. eigenvalues --    2.54906   2.55541   2.56163   2.56423   2.57149
 Alpha virt. eigenvalues --    2.57660   2.58980   2.59275   2.59850   2.60728
 Alpha virt. eigenvalues --    2.61062   2.62178   2.62881   2.63048   2.63654
 Alpha virt. eigenvalues --    2.64730   2.64937   2.65651   2.66518   2.67111
 Alpha virt. eigenvalues --    2.67649   2.67844   2.69245   2.70493   2.70832
 Alpha virt. eigenvalues --    2.71238   2.71349   2.72585   2.73183   2.73552
 Alpha virt. eigenvalues --    2.74058   2.74298   2.74922   2.75089   2.76348
 Alpha virt. eigenvalues --    2.76486   2.77680   2.78822   2.80015   2.80722
 Alpha virt. eigenvalues --    2.81345   2.82367   2.83640   2.83869   2.84164
 Alpha virt. eigenvalues --    2.85073   2.86122   2.86221   2.86593   2.87456
 Alpha virt. eigenvalues --    2.88329   2.88698   2.88996   2.89240   2.89483
 Alpha virt. eigenvalues --    2.89785   2.90427   2.91098   2.91743   2.92360
 Alpha virt. eigenvalues --    2.92633   2.94306   2.95695   2.98502   2.99451
 Alpha virt. eigenvalues --    3.01116   3.03369   3.03588   3.03990   3.04743
 Alpha virt. eigenvalues --    3.05630   3.06752   3.08697   3.09474   3.19324
 Alpha virt. eigenvalues --    3.19988   3.21412   3.23309   3.24885   3.25295
 Alpha virt. eigenvalues --    3.26179   3.28134   3.28404   3.29219   3.29408
 Alpha virt. eigenvalues --    3.29906   3.29980   3.30213   3.30558   3.31437
 Alpha virt. eigenvalues --    3.32817   3.38752   3.40095   3.40458   3.40839
 Alpha virt. eigenvalues --    3.41835   3.44548   3.44775   3.45381   3.45936
 Alpha virt. eigenvalues --    3.46957   3.47442   3.48357   3.48854   3.49600
 Alpha virt. eigenvalues --    3.51102   3.51454   3.52172   3.52572   3.53666
 Alpha virt. eigenvalues --    3.53707   3.58132   3.59272   3.60330   3.61339
 Alpha virt. eigenvalues --    3.77312   3.81989   4.30671   4.33790   4.33911
 Alpha virt. eigenvalues --    4.36140   4.36703   4.38043   4.40697   4.42878
 Alpha virt. eigenvalues --    4.43869   4.45323   4.45554   4.47750   4.50443
 Alpha virt. eigenvalues --    4.50836   4.52237   4.52787   4.54265   4.54525
 Alpha virt. eigenvalues --    4.55962   4.56408   4.57229   4.57522   4.59730
 Alpha virt. eigenvalues --    4.60522   4.62118   4.70756   4.72866   4.75086
 Alpha virt. eigenvalues --    4.76334   4.79430   4.83521   4.85278   4.86995
 Alpha virt. eigenvalues --    4.91929
          Condensed to atoms (all electrons):
 Mulliken charges:
               1
     1  C   -0.386089
     2  C    0.210686
     3  C   -0.381851
     4  N   -0.384701
     5  C   -0.064219
     6  C   -0.209667
     7  C    0.449902
     8  C   -0.719264
     9  C   -0.460139
    10  C    0.000947
    11  C   -0.481663
    12  C   -0.613489
    13  C    0.412293
    14  C   -0.614563
    15  C   -0.142639
    16  C   -0.007685
    17  C    0.561861
    18  C    0.045738
    19  C    0.337071
    20  C    0.036699
    21  C   -0.108438
    22  C    0.298226
    23  C   -0.567104
    24  C   -0.351712
    25  C   -0.677091
    26  C   -0.181116
    27  C    0.368865
    28  C   -0.172530
    29  C    0.204024
    30  C   -0.588966
    31  C   -0.595359
    32  C    0.490398
    33  C   -0.544204
    34  O   -0.313928
    35  H    0.146468
    36  H    0.158205
    37  H    0.134857
    38  H    0.145359
    39  H    0.143542
    40  H    0.142767
    41  H    0.141963
    42  H    0.154884
    43  H    0.156140
    44  H    0.115454
    45  H    0.150274
    46  H    0.165427
    47  H    0.160325
    48  H    0.121353
    49  H    0.117150
    50  H    0.157270
    51  H    0.152087
    52  H    0.114905
    53  H    0.113916
    54  H    0.152767
    55  H    0.164080
    56  H    0.150709
    57  H    0.115783
    58  H    0.125225
    59  H    0.130200
    60  H    0.134554
    61  H    0.153696
    62  H    0.146653
    63  H    0.163100
    64  H    0.145858
    65  H    0.167400
    66  H    0.176729
    67  H    0.190097
    68  H    0.172099
    69  H    0.168410
 Sum of Mulliken charges =  -0.00000
 Mulliken charges with hydrogens summed into heavy atoms:
               1
     1  C   -0.081415
     2  C    0.210686
     3  C   -0.381851
     4  N   -0.384701
     5  C   -0.064219
     6  C   -0.209667
     7  C    0.584759
     8  C   -0.287596
     9  C   -0.007152
    10  C    0.000947
    11  C   -0.481663
    12  C   -0.498035
    13  C    0.412293
    14  C   -0.138536
    15  C   -0.021286
    16  C    0.109465
    17  C    0.561861
    18  C    0.355095
    19  C    0.337071
    20  C    0.151604
    21  C    0.005478
    22  C    0.298226
    23  C   -0.099548
    24  C   -0.235929
    25  C   -0.551867
    26  C   -0.050916
    27  C    0.368865
    28  C   -0.172530
    29  C    0.338578
    30  C   -0.125518
    31  C   -0.105372
    32  C    0.490398
    33  C   -0.013597
    34  O   -0.313928
 Electronic spatial extent (au):  <R**2>=          16209.5682
 Charge=             -0.0000 electrons
 Dipole moment (field-independent basis, Debye):
    X=             -3.2646    Y=             -0.0464    Z=              4.5524  Tot=              5.6022
 Quadrupole moment (field-independent basis, Debye-Ang):
   XX=           -221.5196   YY=           -192.2352   ZZ=           -206.7107
   XY=             -4.0811   XZ=             15.9524   YZ=            -11.1559
 Traceless Quadrupole moment (field-independent basis, Debye-Ang):
   XX=            -14.6978   YY=             14.5866   ZZ=              0.1112
   XY=             -4.0811   XZ=             15.9524   YZ=            -11.1559
 Octapole moment (field-independent basis, Debye-Ang**2):
  XXX=           -166.7535  YYY=              1.2589  ZZZ=             27.3122  XYY=            -28.2983
  XXY=            -57.4678  XXZ=             58.2655  XZZ=             -7.1159  YZZ=             24.3286
  YYZ=              4.9103  XYZ=              6.1846
 Hexadecapole moment (field-independent basis, Debye-Ang**3):
 XXXX=         -12768.1941 YYYY=          -8678.1596 ZZZZ=          -2306.8857 XXXY=           -173.4523
 XXXZ=            444.2925 YYYX=            -28.3063 YYYZ=           -190.6012 ZZZX=             60.1428
 ZZZY=            -89.0861 XXYY=          -3189.4516 XXZZ=          -2273.0447 YYZZ=          -1909.9905
 XXYZ=             37.4713 YYXZ=             40.9292 ZZXY=             18.2294
 N-N= 3.465576804091D+03 E-N=-1.010363360685D+04  KE= 1.357190796054D+03
 Unable to Open any file for archive entry.
 1\1\GINC-N2\SP\RB3LYP TD-FC\6-31+G(d,p)\C32H35N1O1\HPCMGAC13\26-Aug-20
 25\0\\# td=(50-50,nstates=3) b3lyp/6-31+g(d,p) geom=connectivity\\Titl
 e Card Required\\0,1\C,0,-3.945049,-0.020033,2.249887\C,0,-3.661968,-0
 .225289,0.950605\C,0,-4.754292,-0.381915,0.018254\N,0,-5.617731,-0.511
 193,-0.752179\C,0,-2.278869,-0.325309,0.402188\C,0,-1.485992,-1.444474
 ,0.445651\C,0,-1.772516,-2.824353,1.007654\C,0,-1.559016,-2.873375,2.5
 379\C,0,-3.140583,-3.413527,0.617287\C,0,-0.160893,-1.100988,-0.141135
 \C,0,0.96401,-2.053562,-0.337203\C,0,0.821943,-3.074002,-1.297506\C,0,
 1.830127,-4.005061,-1.558425\C,0,1.659011,-5.073894,-2.613301\C,0,3.01
 5537,-3.908345,-0.813518\C,0,3.170423,-2.90989,0.143868\C,0,2.162641,-
 1.966039,0.401354\C,0,2.392803,-0.911187,1.464628\C,0,3.146967,0.34370
 4,1.02848\C,0,3.390535,1.353903,1.974108\C,0,4.078933,2.516413,1.63094
 2\C,0,4.555867,2.719168,0.325311\C,0,5.33046,3.965801,-0.036271\C,0,4.
 308491,1.714443,-0.616337\C,0,3.618258,0.545729,-0.272829\C,0,-0.17752
 2,0.205032,-0.506847\C,0,-1.498349,0.780195,-0.217948\C,0,-1.837872,2.
 062267,-0.530899\C,0,-3.215025,2.695734,-0.415565\C,0,-3.174138,4.0939
 46,0.23519\C,0,-3.90724,2.756703,-1.797909\C,0,-0.77346,2.965354,-1.13
 7563\C,0,0.275977,3.541653,-0.210696\O,0,-0.812706,3.244714,-2.324703\
 H,0,-3.144957,0.109221,2.970927\H,0,-4.968683,0.026724,2.608565\H,0,-1
 .013581,-3.484509,0.573526\H,0,-1.635428,-3.906229,2.896276\H,0,-0.570
 738,-2.492847,2.815924\H,0,-2.3138,-2.277797,3.060931\H,0,-3.182803,-4
 .468186,0.911572\H,0,-3.30789,-3.357808,-0.462818\H,0,-3.970402,-2.903
 43,1.112998\H,0,-0.104448,-3.124388,-1.864963\H,0,0.637189,-5.090431,-
 3.00279\H,0,2.334968,-4.906071,-3.460506\H,0,1.883648,-6.068863,-2.212
 725\H,0,3.819425,-4.621182,-0.982007\H,0,4.096009,-2.856199,0.712539\H
 ,0,1.429826,-0.601378,1.885942\H,0,2.953126,-1.369451,2.290558\H,0,3.0
 34941,1.226892,2.994844\H,0,4.250053,3.27846,2.388295\H,0,4.891412,4.8
 5853,0.421934\H,0,6.369356,3.901099,0.311139\H,0,5.355385,4.119727,-1.
 119139\H,0,4.658195,1.841212,-1.638289\H,0,3.449255,-0.212527,-1.03107
 8\H,0,0.629964,0.728638,-1.000438\H,0,-3.820227,2.058638,0.22981\H,0,-
 4.194612,4.472952,0.350388\H,0,-2.713512,4.067127,1.228755\H,0,-2.6264
 54,4.814878,-0.382018\H,0,-4.916214,3.166207,-1.678006\H,0,-3.996528,1
 .760664,-2.238786\H,0,-3.349561,3.390329,-2.492046\H,0,0.863429,2.7452
 74,0.257101\H,0,0.933222,4.208436,-0.772137\H,0,-0.208998,4.094113,0.6
 02479\\Version=ES64L-G16RevC.02\State=1-A\HF=-1370.498561\RMSD=9.883e-
 09\PG=C01 [X(C32H35N1O1)]\\@
 The archive entry for this job was punched.


 IBM COMPATIBILITY IS LIKE PREGNANCY. YOU ARE OR
 OR YOU ARE NOT. -- ADAM OSBORNE
 Job cpu time:       0 days  7 hours 13 minutes 29.3 seconds.
 Elapsed time:       0 days  0 hours 27 minutes 39.1 seconds.
 File lengths (MBytes):  RWF=   3378 Int=      0 D2E=      0 Chk=    169 Scr=      2
 Normal termination of Gaussian 16 at Tue Aug 26 09:28:02 2025.
