 Entering Gaussian System, Link 0=g16
 Input=M682E.gjf
 Output=M682E.log
 Initial command:
 /hpc/softwares/Gaussian/g16/l1.exe "/hpc/home/hpcmgac13/pbs.13481.admin1.x8z/Gau-3336024.inp" -scrdir="/hpc/home/hpcmgac13/pbs.13481.admin1.x8z/"
 Default linda workers: n2
 Default is to use  16 SMP processors on each worker.
 Entering Link 1 = /hpc/softwares/Gaussian/g16/l1.exe PID=   3336025.
  
 Copyright (c) 1988-2021, Gaussian, Inc.  All Rights Reserved.
  
 This is part of the Gaussian(R) 16 program.  It is based on
 the Gaussian(R) 09 system (copyright 2009, Gaussian, Inc.),
 the Gaussian(R) 03 system (copyright 2003, Gaussian, Inc.),
 the Gaussian(R) 98 system (copyright 1998, Gaussian, Inc.),
 the Gaussian(R) 94 system (copyright 1995, Gaussian, Inc.),
 the Gaussian 92(TM) system (copyright 1992, Gaussian, Inc.),
 the Gaussian 90(TM) system (copyright 1990, Gaussian, Inc.),
 the Gaussian 88(TM) system (copyright 1988, Gaussian, Inc.),
 the Gaussian 86(TM) system (copyright 1986, Carnegie Mellon
 University), and the Gaussian 82(TM) system (copyright 1983,
 Carnegie Mellon University). Gaussian is a federally registered
 trademark of Gaussian, Inc.
  
 This software contains proprietary and confidential information,
 including trade secrets, belonging to Gaussian, Inc.
  
 This software is provided under written license and may be
 used, copied, transmitted, or stored only in accord with that
 written license.
  
 The following legend is applicable only to US Government
 contracts under FAR:
  
                    RESTRICTED RIGHTS LEGEND
  
 Use, reproduction and disclosure by the US Government is
 subject to restrictions as set forth in subparagraphs (a)
 and (c) of the Commercial Computer Software - Restricted
 Rights clause in FAR 52.227-19.
  
 Gaussian, Inc.
 340 Quinnipiac St., Bldg. 40, Wallingford CT 06492
  
  
 ---------------------------------------------------------------
 Warning -- This program may not be used in any manner that
 competes with the business of Gaussian, Inc. or will provide
 assistance to any competitor of Gaussian, Inc.  The licensee
 of this program is prohibited from giving any competitor of
 Gaussian, Inc. access to this program.  By using this program,
 the user acknowledges that Gaussian, Inc. is engaged in the
 business of creating and licensing software in the field of
 computational chemistry and represents and warrants to the
 licensee that it is not a competitor of Gaussian, Inc. and that
 it will not use this program in any manner prohibited above.
 ---------------------------------------------------------------
  

 Cite this work as:
 Gaussian 16, Revision C.02,
 M. J. Frisch, G. W. Trucks, H. B. Schlegel, G. E. Scuseria, 
 M. A. Robb, J. R. Cheeseman, G. Scalmani, V. Barone, 
 G. A. Petersson, H. Nakatsuji, X. Li, M. Caricato, A. V. Marenich, 
 J. Bloino, B. G. Janesko, R. Gomperts, B. Mennucci, H. P. Hratchian, 
 J. V. Ortiz, A. F. Izmaylov, J. L. Sonnenberg, D. Williams-Young, 
 F. Ding, F. Lipparini, F. Egidi, J. Goings, B. Peng, A. Petrone, 
 T. Henderson, D. Ranasinghe, V. G. Zakrzewski, J. Gao, N. Rega, 
 G. Zheng, W. Liang, M. Hada, M. Ehara, K. Toyota, R. Fukuda, 
 J. Hasegawa, M. Ishida, T. Nakajima, Y. Honda, O. Kitao, H. Nakai, 
 T. Vreven, K. Throssell, J. A. Montgomery, Jr., J. E. Peralta, 
 F. Ogliaro, M. J. Bearpark, J. J. Heyd, E. N. Brothers, K. N. Kudin, 
 V. N. Staroverov, T. A. Keith, R. Kobayashi, J. Normand, 
 K. Raghavachari, A. P. Rendell, J. C. Burant, S. S. Iyengar, 
 J. Tomasi, M. Cossi, J. M. Millam, M. Klene, C. Adamo, R. Cammi, 
 J. W. Ochterski, R. L. Martin, K. Morokuma, O. Farkas, 
 J. B. Foresman, and D. J. Fox, Gaussian, Inc., Wallingford CT, 2019.
 
 ******************************************
 Gaussian 16:  ES64L-G16RevC.02  7-Dec-2021
                26-Aug-2025 
 ******************************************
 SetLPE:    new flags="-opt 'Tsnet.Node.lindarsharg: ssh'  -nodelist 'n2.head.cm.mguif.local' -env GAUSS_MDEF=4294967296 -env GAUSS_EXEDIR="/hpc/softwares/Gaussian/g16/bsd:/hpc/softwares/Gaussian/g16""
 Will use up to    1 processors via Linda.
 ----------------------------------------------------------
 # td=(50-50,nstates=3) b3lyp/6-31+g(d,p) geom=connectivity
 ----------------------------------------------------------
 1/38=1,57=2,172=1/1;
 2/12=2,17=6,18=5,40=1/2;
 3/5=1,6=6,7=111,11=9,25=1,30=1,74=-5/1,2,3,8;
 4//1;
 5/5=2,38=5/2;
 8/6=1,10=2,108=3/1;
 9/41=3,42=1,48=2,70=2/14;
 6/7=2,8=2,9=2,10=2/1;
 99/5=1,9=1/99;
 -------------------
 Title Card Required
 -------------------
 Symbolic Z-matrix:
 Charge =  0 Multiplicity = 1
 C                     2.28076  -2.34469   0.00108 
 C                     2.23494  -0.8019    0.00002 
 C                     2.97313  -0.31326   1.27301 
 C                     2.97165  -0.31488  -1.27453 
 C                     0.78661  -0.27038   0.00026 
 C                    -0.30272  -1.15096   0.00019 
 C                    -1.63627  -0.71879   0.00012 
 C                    -2.68336  -1.69836   0.00001 
 N                    -3.50894  -2.51758  -0.00013 
 C                    -1.92753   0.6626    0.00011 
 C                    -3.27447   1.1512    0.00001 
 N                    -4.35843   1.57245  -0.00003 
 C                    -0.86181   1.56478   0.00012 
 C                     0.46822   1.11623   0.00014 
 C                     1.45798   2.15929  -0.00015 
 N                     2.19769   3.05734  0. 
 H                     1.80988  -2.77598  -0.88869 
 H                     3.3266   -2.66486   0.00112 
 H                     1.81016  -2.77473   0.89158 
 H                     3.05048   0.77398   1.32753 
 H                     3.99163  -0.71514   1.27669 
 H                     2.46786  -0.66922   2.1772 
 H                     3.98976  -0.71772  -1.27943 
 H                     2.46464  -0.67088  -2.17772 
 H                     3.04987   0.77229  -1.32977 
 H                    -0.13181  -2.21832   0.00016 
 H                    -1.06412   2.62977   0.0001 
 
                          Input orientation:                          
 ---------------------------------------------------------------------
 Center     Atomic      Atomic             Coordinates (Angstroms)
 Number     Number       Type             X           Y           Z
 ---------------------------------------------------------------------
      1          6           0        2.280764   -2.344685    0.001075
      2          6           0        2.234938   -0.801896    0.000019
      3          6           0        2.973126   -0.313262    1.273009
      4          6           0        2.971650   -0.314880   -1.274529
      5          6           0        0.786614   -0.270379    0.000258
      6          6           0       -0.302721   -1.150959    0.000194
      7          6           0       -1.636267   -0.718792    0.000119
      8          6           0       -2.683362   -1.698356    0.000009
      9          7           0       -3.508939   -2.517582   -0.000129
     10          6           0       -1.927531    0.662603    0.000106
     11          6           0       -3.274473    1.151196    0.000009
     12          7           0       -4.358427    1.572454   -0.000026
     13          6           0       -0.861813    1.564784    0.000121
     14          6           0        0.468224    1.116231    0.000143
     15          6           0        1.457975    2.159285   -0.000145
     16          7           0        2.197691    3.057337   -0.000003
     17          1           0        1.809878   -2.775983   -0.888687
     18          1           0        3.326604   -2.664863    0.001121
     19          1           0        1.810164   -2.774730    0.891582
     20          1           0        3.050482    0.773982    1.327532
     21          1           0        3.991631   -0.715138    1.276687
     22          1           0        2.467864   -0.669216    2.177203
     23          1           0        3.989762   -0.717717   -1.279432
     24          1           0        2.464639   -0.670875   -2.177720
     25          1           0        3.049869    0.772292   -1.329767
     26          1           0       -0.131808   -2.218316    0.000158
     27          1           0       -1.064116    2.629767    0.000096
 ---------------------------------------------------------------------
                    Distance matrix (angstroms):
                    1          2          3          4          5
     1  C    0.000000
     2  C    1.543470   0.000000
     3  C    2.494767   1.550545   0.000000
     4  C    2.494914   1.550613   2.547539   0.000000
     5  C    2.556410   1.542774   2.530330   2.530108   0.000000
     6  C    2.845940   2.561554   3.612889   3.611849   1.400740
     7  C    4.241068   3.872097   4.799084   4.797997   2.464026
     8  C    5.006025   4.999331   5.961113   5.959666   3.752313
     9  N    5.792284   5.994639   6.963984   6.962329   4.847855
    10  C    5.172381   4.412585   5.156456   5.155787   2.870024
    11  C    6.563676   5.845355   6.541992   6.541244   4.302709
    12  N    7.708621   7.007853   7.676471   7.675703   5.465115
    13  C    5.015948   3.897569   4.455789   4.455705   2.466807
    14  C    3.906820   2.607775   3.152487   3.152778   1.422694
    15  C    4.578507   3.061415   3.167032   3.168084   2.520713
    16  N    5.402661   3.859413   3.685485   3.687177   3.614531
    17  H    1.095184   2.206240   3.477222   2.748748   2.848744
    18  H    1.093753   2.159255   2.696789   2.697350   3.490717
    19  H    1.095174   2.206217   2.748962   3.477348   2.848489
    20  H    3.475347   2.216031   1.091355   2.821800   2.824437
    21  H    2.685084   2.173333   1.094929   2.776557   3.478393
    22  H    2.752769   2.193625   1.095244   3.506253   2.779346
    23  H    2.684660   2.173359   2.777065   1.094922   3.478200
    24  H    2.753652   2.193736   3.506277   1.095238   2.778444
    25  H    3.475372   2.215967   2.821127   1.091381   2.824615
    26  H    2.415879   2.758212   3.858756   3.857376   2.153592
    27  H    5.994447   4.760259   5.155681   5.155873   3.440356
                    6          7          8          9         10
     6  C    0.000000
     7  C    1.401825   0.000000
     8  C    2.442764   1.433860   0.000000
     9  N    3.485325   2.596641   1.163060   0.000000
    10  C    2.434957   1.411767   2.478993   3.551680   0.000000
    11  C    3.759153   2.486076   2.910216   3.676263   1.432821
    12  N    4.885256   3.558084   3.674784   4.177323   2.595589
    13  C    2.772696   2.411327   3.737128   4.865490   1.396311
    14  C    2.394683   2.792166   4.225446   5.387246   2.438323
    15  C    3.749369   4.225833   5.659688   6.822266   3.701582
    16  N    4.895081   5.381299   6.814785   7.977803   4.769927
    17  H    2.809606   4.110709   4.705344   5.398715   5.155779
    18  H    3.932417   5.330786   6.087186   6.837130   6.219161
    19  H    2.809891   4.110897   4.705875   5.399456   5.155614
    20  H    4.087933   5.094705   6.383709   7.458088   5.153162
    21  H    4.501204   5.770864   6.866743   7.819055   6.210017
    22  H    3.556344   4.646078   5.686337   6.624153   5.082616
    23  H    4.500061   5.769701   6.865071   7.817074   6.209417
    24  H    3.554163   4.643566   5.683321   6.620866   5.080575
    25  H    4.087487   5.094291   6.382973   7.457156   5.153165
    26  H    1.080954   2.124140   2.603994   3.390365   3.394748
    27  H    3.856632   3.397088   4.621104   5.698453   2.148306
                   11         12         13         14         15
    11  C    0.000000
    12  N    1.162934   0.000000
    13  C    2.447853   3.496622   0.000000
    14  C    3.742860   4.848165   1.403637   0.000000
    15  C    4.838627   5.845930   2.394754   1.437904   0.000000
    16  N    5.794649   6.722169   3.404156   2.599798   1.163476
    17  H    6.485610   7.599119   5.173990   4.211815   5.026949
    18  H    7.624731   8.775794   5.952542   4.739938   5.173411
    19  H    6.485471   7.598979   5.173543   4.211300   5.026303
    20  H    6.473767   7.569141   4.206357   2.923551   2.493566
    21  H    7.609821   8.751374   5.512131   4.171076   4.038814
    22  H    6.405350   7.507573   4.562586   3.453400   3.709601
    23  H    7.609134   8.750658   5.512245   4.171559   4.040255
    24  H    6.403113   7.505272   4.561408   3.452898   3.710123
    25  H    6.473730   7.569103   4.206887   2.924354   2.495149
    26  H    4.607597   5.677521   3.852889   3.388103   4.657338
    27  H    2.659295   3.459826   1.084027   2.153801   2.565599
                   16         17         18         19         20
    16  N    0.000000
    17  H    5.913356   0.000000
    18  H    5.832497   1.761977   0.000000
    19  H    5.912538   1.780269   1.761982   0.000000
    20  H    2.775484   4.364972   3.696115   3.784415   0.000000
    21  H    4.368035   3.700807   2.422965   3.024735   1.762335
    22  H    4.324398   3.777710   3.074959   2.553151   1.773191
    23  H    4.370296   3.023414   2.423009   3.700710   3.147010
    24  H    4.325885   2.553781   3.076739   3.778248   3.836354
    25  H    2.777753   3.784493   3.696198   4.364931   2.657300
    26  H    5.767069   2.207076   3.487122   2.208051   4.565385
    27  H    3.289711   6.186429   6.878338   6.185856   4.704885
                   21         22         23         24         25
    21  H    0.000000
    22  H    1.770566   0.000000
    23  H    2.556121   3.777149   0.000000
    24  H    3.777114   4.354925   1.770626   0.000000
    25  H    3.145309   3.836081   1.762402   1.773203   0.000000
    26  H    4.570757   3.727939   4.569079   3.725488   4.564593
    27  H    6.195051   5.300751   6.195525   5.299928   4.705701
                   26         27
    26  H    0.000000
    27  H    4.936913   0.000000
 Stoichiometry    C13H11N3
 Framework group  C1[X(C13H11N3)]
 Deg. of freedom    75
 Full point group                 C1      NOp   1
 Largest Abelian subgroup         C1      NOp   1
 Largest concise Abelian subgroup C1      NOp   1
                         Standard orientation:                         
 ---------------------------------------------------------------------
 Center     Atomic      Atomic             Coordinates (Angstroms)
 Number     Number       Type             X           Y           Z
 ---------------------------------------------------------------------
      1          6           0       -2.280764   -2.344685   -0.001075
      2          6           0       -2.234938   -0.801896   -0.000019
      3          6           0       -2.973126   -0.313262   -1.273009
      4          6           0       -2.971650   -0.314880    1.274529
      5          6           0       -0.786614   -0.270379   -0.000258
      6          6           0        0.302721   -1.150959   -0.000194
      7          6           0        1.636267   -0.718792   -0.000119
      8          6           0        2.683362   -1.698356   -0.000009
      9          7           0        3.508939   -2.517582    0.000129
     10          6           0        1.927531    0.662603   -0.000106
     11          6           0        3.274473    1.151196   -0.000009
     12          7           0        4.358427    1.572453    0.000026
     13          6           0        0.861813    1.564784   -0.000121
     14          6           0       -0.468224    1.116231   -0.000143
     15          6           0       -1.457975    2.159285    0.000145
     16          7           0       -2.197691    3.057337    0.000003
     17          1           0       -1.809878   -2.775983    0.888687
     18          1           0       -3.326604   -2.664863   -0.001121
     19          1           0       -1.810164   -2.774730   -0.891582
     20          1           0       -3.050482    0.773982   -1.327532
     21          1           0       -3.991631   -0.715138   -1.276687
     22          1           0       -2.467864   -0.669216   -2.177203
     23          1           0       -3.989762   -0.717717    1.279432
     24          1           0       -2.464639   -0.670875    2.177720
     25          1           0       -3.049869    0.772292    1.329767
     26          1           0        0.131808   -2.218316   -0.000158
     27          1           0        1.064116    2.629767   -0.000096
 ---------------------------------------------------------------------
 Rotational constants (GHZ):           0.8385419           0.3843508           0.2801919
 Standard basis: 6-31+G(d,p) (6D, 7F)
 There are   359 symmetry adapted cartesian basis functions of A   symmetry.
 There are   359 symmetry adapted basis functions of A   symmetry.
   359 basis functions,   589 primitive gaussians,   359 cartesian basis functions
    55 alpha electrons       55 beta electrons
       nuclear repulsion energy       960.9344454835 Hartrees.
 NAtoms=   27 NActive=   27 NUniq=   27 SFac= 1.00D+00 NAtFMM=   60 NAOKFM=F Big=F
 Integral buffers will be    131072 words long.
 Regular integral format.
 Two-electron integral symmetry is turned on.
 One-electron integrals computed using PRISM.
 NBasis=   359 RedAO= T EigKep=  2.18D-06  NBF=   359
 NBsUse=   356 1.00D-06 EigRej=  9.53D-07 NBFU=   356
 ExpMin= 4.38D-02 ExpMax= 4.17D+03 ExpMxC= 6.27D+02 IAcc=3 IRadAn=         5 AccDes= 0.00D+00
 Harris functional with IExCor=  402 and IRadAn=       5 diagonalized for initial guess.
 HarFok:  IExCor=  402 AccDes= 0.00D+00 IRadAn=         5 IDoV= 1 UseB2=F ITyADJ=14
 ICtDFT=  3500011 ScaDFX=  1.000000  1.000000  1.000000  1.000000
 FoFCou: FMM=F IPFlag=           0 FMFlag=      100000 FMFlg1=           0
         NFxFlg=           0 DoJE=T BraDBF=F KetDBF=T FulRan=T
         wScrn=  0.000000 ICntrl=       500 IOpCl=  0 I1Cent=   200000004 NGrid=           0
         NMat0=    1 NMatS0=      1 NMatT0=    0 NMatD0=    1 NMtDS0=    0 NMtDT0=    0
 Petite list used in FoFCou.
 Requested convergence on RMS density matrix=1.00D-08 within 128 cycles.
 Requested convergence on MAX density matrix=1.00D-06.
 Requested convergence on             energy=1.00D-06.
 No special actions if energy rises.
 SCF Done:  E(RB3LYP) =  -666.254372960     A.U. after   16 cycles
            NFock= 16  Conv=0.62D-08     -V/T= 2.0097
 DoSCS=F DFT=T ScalE2(SS,OS)=  1.000000  1.000000
 ExpMin= 4.38D-02 ExpMax= 4.17D+03 ExpMxC= 6.27D+02 IAcc=3 IRadAn=         5 AccDes= 0.00D+00
 HarFok:  IExCor=  205 AccDes= 0.00D+00 IRadAn=         5 IDoV=-2 UseB2=F ITyADJ=14
 ICtDFT= 12500011 ScaDFX=  1.000000  1.000000  1.000000  1.000000
 Range of M.O.s used for correlation:    17   356
 NBasis=   359 NAE=    55 NBE=    55 NFC=    16 NFV=     0
 NROrb=    340 NOA=    39 NOB=    39 NVA=   301 NVB=   301

 **** Warning!!: The largest alpha MO coefficient is  0.16267635D+03

 Orbital symmetries:
       Occupied  (A) (A) (A) (A) (A) (A) (A) (A) (A) (A) (A) (A)
                 (A) (A) (A) (A) (A) (A) (A) (A) (A) (A) (A) (A)
                 (A) (A) (A) (A) (A) (A) (A) (A) (A) (A) (A) (A)
                 (A) (A) (A) (A) (A) (A) (A) (A) (A) (A) (A) (A)
                 (A) (A) (A) (A) (A) (A) (A)
       Virtual   (A) (A) (A) (A) (A) (A) (A) (A) (A) (A) (A) (A)
                 (A) (A) (A) (A) (A) (A) (A) (A) (A) (A) (A) (A)
                 (A) (A) (A) (A) (A) (A) (A) (A) (A) (A) (A) (A)
                 (A) (A) (A) (A) (A) (A) (A) (A) (A) (A) (A) (A)
                 (A) (A) (A) (A) (A) (A) (A) (A) (A) (A) (A) (A)
                 (A) (A) (A) (A) (A) (A) (A) (A) (A) (A) (A) (A)
                 (A) (A) (A) (A) (A) (A) (A) (A) (A) (A) (A) (A)
                 (A) (A) (A) (A) (A) (A) (A) (A) (A) (A) (A) (A)
                 (A) (A) (A) (A) (A) (A) (A) (A) (A) (A) (A) (A)
                 (A) (A) (A) (A) (A) (A) (A) (A) (A) (A) (A) (A)
                 (A) (A) (A) (A) (A) (A) (A) (A) (A) (A) (A) (A)
                 (A) (A) (A) (A) (A) (A) (A) (A) (A) (A) (A) (A)
                 (A) (A) (A) (A) (A) (A) (A) (A) (A) (A) (A) (A)
                 (A) (A) (A) (A) (A) (A) (A) (A) (A) (A) (A) (A)
                 (A) (A) (A) (A) (A) (A) (A) (A) (A) (A) (A) (A)
                 (A) (A) (A) (A) (A) (A) (A) (A) (A) (A) (A) (A)
                 (A) (A) (A) (A) (A) (A) (A) (A) (A) (A) (A) (A)
                 (A) (A) (A) (A) (A) (A) (A) (A) (A) (A) (A) (A)
                 (A) (A) (A) (A) (A) (A) (A) (A) (A) (A) (A) (A)
                 (A) (A) (A) (A) (A) (A) (A) (A) (A) (A) (A) (A)
                 (A) (A) (A) (A) (A) (A) (A) (A) (A) (A) (A) (A)
                 (A) (A) (A) (A) (A) (A) (A) (A) (A) (A) (A) (A)
                 (A) (A) (A) (A) (A) (A) (A) (A) (A) (A) (A) (A)
                 (A) (A) (A) (A) (A) (A) (A) (A) (A) (A) (A) (A)
                 (A) (A) (A) (A) (A) (A) (A) (A) (A) (A) (A) (A)
                 (A)
    24 initial guesses have been made.
 Convergence on wavefunction:    0.001000000000000
 Iteration     1 Dimension    24 NMult     0 NNew     24
 CISAX will form    24 AO SS matrices at one time.
 New state      1 was old state      2
 New state      2 was old state      4
 New state      3 was old state      8
 New state      4 was old state      3
 New state      5 was old state      6
 New state      6 was old state     12
 New state      7 was old state     10
 New state      8 was old state      1
 New state     10 was old state     14
 New state     11 was old state     13
 New state     12 was old state     16
 Vector   5 SDiff=1.07D+00 TDiff=2.80D+01 assumed to be singlet.
 Vector   6 SDiff=2.55D-02 TDiff=8.08D+00 assumed to be singlet.
 Vector  11 SDiff=7.08D-01 TDiff=1.72D+01 assumed to be singlet.
 Vector  12 SDiff=2.58D-02 TDiff=7.91D+00 assumed to be singlet.
 Iteration     2 Dimension    36 NMult    24 NNew     12
 New state      5 was old state      8
 New state      6 was old state      9
 Iteration     3 Dimension    48 NMult    36 NNew     12
 Iteration     4 Dimension    60 NMult    48 NNew     12
 Iteration     5 Dimension    72 NMult    60 NNew     12
 Iteration     6 Dimension    80 NMult    72 NNew      8
 ***********************************************************************
 Excited states from <AA,BB:AA,BB> singles matrix:
 ***********************************************************************
 
 Ground to excited state transition densities written to RWF  633
 Ground to excited state transition electric dipole moments (Au):
       state          X           Y           Z        Dip. S.      Osc.
         1         0.0000     -0.0000     -0.0000      0.0000      0.0000
         2         0.0000      0.0000     -0.0000      0.0000      0.0000
         3        -0.0000     -0.0000     -0.0000      0.0000      0.0000
         4         0.5030      0.4911      0.0004      0.4942      0.0531
         5        -0.4549      1.3673     -0.0001      2.0765      0.2383
         6        -0.0009     -0.0001      0.0312      0.0010      0.0001
 Ground to excited state transition velocity dipole moments (Au):
       state          X           Y           Z        Dip. S.      Osc.
         1        -0.0000      0.0000      0.0000      0.0000      0.0000
         2        -0.0000      0.0000      0.0000      0.0000      0.0000
         3         0.0000      0.0000      0.0000      0.0000      0.0000
         4        -0.0810     -0.0794     -0.0001      0.0129      0.0532
         5         0.0748     -0.2302      0.0000      0.0586      0.2268
         6         0.0002      0.0000     -0.0054      0.0000      0.0001
 Ground to excited state transition magnetic dipole moments (Au):
       state          X           Y           Z
         1        -0.0000      0.0000      0.0000
         2        -0.0000     -0.0000     -0.0000
         3        -0.0000      0.0000      0.0000
         4         0.0001     -0.0003     -0.2014
         5        -0.0001      0.0000     -0.3981
         6        -0.3047      0.3122     -0.0002
 Ground to excited state transition velocity quadrupole moments (Au):
       state          XX          YY          ZZ          XY          XZ          YZ
         1         0.0000     -0.0000     -0.0000      0.0000     -0.0000     -0.0000
         2         0.0000      0.0000      0.0000      0.0000      0.0000     -0.0000
         3         0.0000     -0.0000     -0.0000      0.0000     -0.0000     -0.0000
         4        -0.2787     -0.0685      0.0489     -0.1402      0.0001      0.0002
         5         0.1276     -0.2065      0.0494     -0.5096     -0.0001     -0.0000
         6         0.0006     -0.0003     -0.0001      0.0004      0.0250     -0.0188
 <0|del|b> * <b|rxdel|0> + <0|del|b> * <b|delr+rdel|0>
 Rotatory Strengths (R) in cgs (10**-40 erg-esu-cm/Gauss)
       state          XX          YY          ZZ    R(velocity)    E-M Angle
         1         0.0000     -0.0000      0.0000      0.0000       90.00
         2        -0.0000      0.0000      0.0000     -0.0000       90.00
         3         0.0000     -0.0000      0.0000      0.0000       90.00
         4         0.1884     -0.0185      0.0445      0.0715       90.00
         5        -0.0804     -0.0247      0.0365     -0.0229       90.00
         6         0.0117     -0.0945     -0.0733     -0.0520       90.00
 1/2[<0|r|b>*<b|rxdel|0> + (<0|rxdel|b>*<b|r|0>)*]
 Rotatory Strengths (R) in cgs (10**-40 erg-esu-cm/Gauss)
       state          XX          YY          ZZ     R(length)
         1         0.0000      0.0000      0.0000      0.0000
         2         0.0000      0.0000     -0.0000      0.0000
         3        -0.0000      0.0000      0.0000      0.0000
         4        -0.0215      0.1035      0.0518      0.0446
         5        -0.0433     -0.0109     -0.0290     -0.0277
         6        -0.1991      0.0260      0.0051     -0.0560
  1/2[<0|del|b>*<b|r|0> + (<0|r|b>*<b|del|0>)*] (Au)
       state          X           Y           Z        Dip. S.   Osc.(frdel)
         1        -0.0000     -0.0000     -0.0000      0.0000      0.0000
         2        -0.0000      0.0000     -0.0000     -0.0000     -0.0000
         3        -0.0000     -0.0000     -0.0000      0.0000      0.0000
         4        -0.0407     -0.0390     -0.0000      0.0797      0.0532
         5        -0.0340     -0.3147     -0.0000      0.3487      0.2325
         6        -0.0000     -0.0000     -0.0002      0.0002      0.0001

 Excitation energies and oscillator strengths:
 
 Excited State   1:      Triplet-A      2.8835 eV  429.97 nm  f=0.0000  <S**2>=2.000
      54 -> 56        -0.14855
      54 -> 57        -0.24101
      55 -> 56         0.63531
 This state for optimization and/or second-order correction.
 Total Energy, E(TD-HF/TD-DFT) =  -666.148405285    
 Copying the excited state density for this state as the 1-particle RhoCI density.
 
 Excited State   2:      Triplet-A      3.6572 eV  339.02 nm  f=0.0000  <S**2>=2.000
      54 -> 56         0.65893
      55 -> 56         0.14278
      55 -> 57        -0.18849
 
 Excited State   3:      Triplet-A      4.0365 eV  307.16 nm  f=0.0000  <S**2>=2.000
      54 -> 57         0.54440
      55 -> 56         0.26104
      55 -> 57         0.34297
 
 Excited State   4:      Singlet-A      4.3895 eV  282.45 nm  f=0.0531  <S**2>=0.000
      54 -> 56         0.50129
      54 -> 57        -0.10799
      55 -> 56         0.34666
      55 -> 57         0.33693
 
 Excited State   5:      Singlet-A      4.6849 eV  264.65 nm  f=0.2383  <S**2>=0.000
      54 -> 56        -0.29901
      54 -> 57        -0.10068
      55 -> 56         0.59243
      55 -> 57        -0.20064
 
 Excited State   6:      Singlet-A      5.3318 eV  232.54 nm  f=0.0001  <S**2>=0.000
      51 -> 56         0.12069
      53 -> 56         0.68140
 SavETr:  write IOETrn=   770 NScale= 10 NData=  16 NLR=1 NState=    6 LETran=     118.

 **********************************************************************

            Population analysis using the SCF Density.

 **********************************************************************

 Orbital symmetries:
       Occupied  (A) (A) (A) (A) (A) (A) (A) (A) (A) (A) (A) (A)
                 (A) (A) (A) (A) (A) (A) (A) (A) (A) (A) (A) (A)
                 (A) (A) (A) (A) (A) (A) (A) (A) (A) (A) (A) (A)
                 (A) (A) (A) (A) (A) (A) (A) (A) (A) (A) (A) (A)
                 (A) (A) (A) (A) (A) (A) (A)
       Virtual   (A) (A) (A) (A) (A) (A) (A) (A) (A) (A) (A) (A)
                 (A) (A) (A) (A) (A) (A) (A) (A) (A) (A) (A) (A)
                 (A) (A) (A) (A) (A) (A) (A) (A) (A) (A) (A) (A)
                 (A) (A) (A) (A) (A) (A) (A) (A) (A) (A) (A) (A)
                 (A) (A) (A) (A) (A) (A) (A) (A) (A) (A) (A) (A)
                 (A) (A) (A) (A) (A) (A) (A) (A) (A) (A) (A) (A)
                 (A) (A) (A) (A) (A) (A) (A) (A) (A) (A) (A) (A)
                 (A) (A) (A) (A) (A) (A) (A) (A) (A) (A) (A) (A)
                 (A) (A) (A) (A) (A) (A) (A) (A) (A) (A) (A) (A)
                 (A) (A) (A) (A) (A) (A) (A) (A) (A) (A) (A) (A)
                 (A) (A) (A) (A) (A) (A) (A) (A) (A) (A) (A) (A)
                 (A) (A) (A) (A) (A) (A) (A) (A) (A) (A) (A) (A)
                 (A) (A) (A) (A) (A) (A) (A) (A) (A) (A) (A) (A)
                 (A) (A) (A) (A) (A) (A) (A) (A) (A) (A) (A) (A)
                 (A) (A) (A) (A) (A) (A) (A) (A) (A) (A) (A) (A)
                 (A) (A) (A) (A) (A) (A) (A) (A) (A) (A) (A) (A)
                 (A) (A) (A) (A) (A) (A) (A) (A) (A) (A) (A) (A)
                 (A) (A) (A) (A) (A) (A) (A) (A) (A) (A) (A) (A)
                 (A) (A) (A) (A) (A) (A) (A) (A) (A) (A) (A) (A)
                 (A) (A) (A) (A) (A) (A) (A) (A) (A) (A) (A) (A)
                 (A) (A) (A) (A) (A) (A) (A) (A) (A) (A) (A) (A)
                 (A) (A) (A) (A) (A) (A) (A) (A) (A) (A) (A) (A)
                 (A) (A) (A) (A) (A) (A) (A) (A) (A) (A) (A) (A)
                 (A) (A) (A) (A) (A) (A) (A) (A) (A) (A) (A) (A)
                 (A) (A) (A) (A) (A) (A) (A) (A) (A) (A) (A) (A)
                 (A)
 The electronic state is 1-A.
 Alpha  occ. eigenvalues --  -14.37838 -14.37815 -14.37595 -10.29620 -10.29328
 Alpha  occ. eigenvalues --  -10.29026 -10.27505 -10.27256 -10.26978 -10.26722
 Alpha  occ. eigenvalues --  -10.26557 -10.26132 -10.25221 -10.21153 -10.20730
 Alpha  occ. eigenvalues --  -10.20727  -0.96059  -0.94678  -0.93935  -0.92525
 Alpha  occ. eigenvalues --   -0.87239  -0.84373  -0.81487  -0.73652  -0.72089
 Alpha  occ. eigenvalues --   -0.71896  -0.69640  -0.63791  -0.61976  -0.57882
 Alpha  occ. eigenvalues --   -0.55004  -0.52509  -0.49905  -0.48028  -0.47995
 Alpha  occ. eigenvalues --   -0.46522  -0.46422  -0.43938  -0.43138  -0.41234
 Alpha  occ. eigenvalues --   -0.40860  -0.39954  -0.39727  -0.39677  -0.39437
 Alpha  occ. eigenvalues --   -0.39167  -0.39060  -0.37520  -0.37412  -0.36855
 Alpha  occ. eigenvalues --   -0.36293  -0.35899  -0.35147  -0.31313  -0.30065
 Alpha virt. eigenvalues --   -0.12251  -0.09005  -0.02160  -0.02065  -0.01469
 Alpha virt. eigenvalues --   -0.00471  -0.00215   0.00228   0.00496   0.01004
 Alpha virt. eigenvalues --    0.01505   0.02649   0.02894   0.03117   0.03760
 Alpha virt. eigenvalues --    0.04268   0.05151   0.05221   0.05771   0.06234
 Alpha virt. eigenvalues --    0.06463   0.06900   0.07140   0.07802   0.07928
 Alpha virt. eigenvalues --    0.08716   0.08777   0.09605   0.09948   0.10160
 Alpha virt. eigenvalues --    0.10810   0.11703   0.11920   0.12077   0.12771
 Alpha virt. eigenvalues --    0.13358   0.13736   0.14372   0.14559   0.14659
 Alpha virt. eigenvalues --    0.15305   0.15632   0.15779   0.16504   0.16825
 Alpha virt. eigenvalues --    0.17883   0.18275   0.18648   0.18685   0.18971
 Alpha virt. eigenvalues --    0.19723   0.20137   0.20641   0.21348   0.21602
 Alpha virt. eigenvalues --    0.22102   0.23145   0.23274   0.23815   0.24365
 Alpha virt. eigenvalues --    0.24761   0.24903   0.24999   0.25396   0.25968
 Alpha virt. eigenvalues --    0.26226   0.26351   0.26460   0.26982   0.27034
 Alpha virt. eigenvalues --    0.27864   0.27903   0.28178   0.28185   0.28598
 Alpha virt. eigenvalues --    0.28995   0.29284   0.30105   0.30149   0.30322
 Alpha virt. eigenvalues --    0.31140   0.31832   0.33745   0.34604   0.35530
 Alpha virt. eigenvalues --    0.36533   0.36732   0.38395   0.40714   0.41735
 Alpha virt. eigenvalues --    0.41894   0.49445   0.53152   0.54401   0.57711
 Alpha virt. eigenvalues --    0.59021   0.60767   0.63563   0.64292   0.65765
 Alpha virt. eigenvalues --    0.66500   0.66626   0.68829   0.69228   0.69619
 Alpha virt. eigenvalues --    0.69907   0.70887   0.71742   0.72472   0.73889
 Alpha virt. eigenvalues --    0.75299   0.75394   0.75966   0.77550   0.78414
 Alpha virt. eigenvalues --    0.79757   0.80057   0.80442   0.81126   0.81615
 Alpha virt. eigenvalues --    0.82361   0.84608   0.85252   0.85774   0.85885
 Alpha virt. eigenvalues --    0.86892   0.89409   0.90150   0.91641   0.93015
 Alpha virt. eigenvalues --    0.94945   0.95478   0.97734   0.98382   0.98935
 Alpha virt. eigenvalues --    0.99656   1.00364   1.01163   1.01541   1.02683
 Alpha virt. eigenvalues --    1.02761   1.03241   1.04037   1.05651   1.06021
 Alpha virt. eigenvalues --    1.06331   1.08844   1.09355   1.13724   1.14260
 Alpha virt. eigenvalues --    1.15127   1.15341   1.15520   1.16873   1.18528
 Alpha virt. eigenvalues --    1.19166   1.21005   1.23115   1.23937   1.24860
 Alpha virt. eigenvalues --    1.26463   1.27732   1.28238   1.30300   1.30885
 Alpha virt. eigenvalues --    1.32248   1.32770   1.39429   1.41637   1.42852
 Alpha virt. eigenvalues --    1.44422   1.46371   1.48168   1.48395   1.50157
 Alpha virt. eigenvalues --    1.50670   1.51846   1.53164   1.53641   1.54699
 Alpha virt. eigenvalues --    1.57589   1.61537   1.64019   1.66999   1.69934
 Alpha virt. eigenvalues --    1.71054   1.73526   1.74989   1.76950   1.77011
 Alpha virt. eigenvalues --    1.79444   1.82169   1.83099   1.83234   1.84370
 Alpha virt. eigenvalues --    1.84847   1.87041   1.88512   1.90425   1.90803
 Alpha virt. eigenvalues --    1.91118   1.91881   1.91930   1.93080   1.94560
 Alpha virt. eigenvalues --    1.96444   1.98143   1.98903   1.99122   2.01420
 Alpha virt. eigenvalues --    2.01657   2.02285   2.03331   2.05023   2.06373
 Alpha virt. eigenvalues --    2.08164   2.08731   2.08803   2.10962   2.12625
 Alpha virt. eigenvalues --    2.12837   2.13066   2.14833   2.16629   2.17014
 Alpha virt. eigenvalues --    2.19968   2.23496   2.25525   2.26341   2.26779
 Alpha virt. eigenvalues --    2.29352   2.31425   2.38150   2.38972   2.39275
 Alpha virt. eigenvalues --    2.43677   2.45687   2.46128   2.47292   2.50773
 Alpha virt. eigenvalues --    2.53942   2.56059   2.57135   2.59480   2.62535
 Alpha virt. eigenvalues --    2.63892   2.66005   2.70150   2.71631   2.72067
 Alpha virt. eigenvalues --    2.72516   2.73496   2.74911   2.76435   2.77045
 Alpha virt. eigenvalues --    2.77959   2.81798   2.84060   2.84869   2.85724
 Alpha virt. eigenvalues --    2.86937   2.90941   2.92479   2.98961   3.00772
 Alpha virt. eigenvalues --    3.01768   3.06416   3.09446   3.11243   3.17594
 Alpha virt. eigenvalues --    3.22288   3.25967   3.26825   3.26899   3.28584
 Alpha virt. eigenvalues --    3.30505   3.37655   3.41431   3.42523   3.43300
 Alpha virt. eigenvalues --    3.44746   3.46848   3.50274   3.54338   3.67203
 Alpha virt. eigenvalues --    4.16570   4.24145   4.26228   4.29446   4.33395
 Alpha virt. eigenvalues --    4.38228   4.39039   4.46989   4.49175   4.53004
 Alpha virt. eigenvalues --    4.54016   4.59028   4.63434   4.71553   4.78839
 Alpha virt. eigenvalues --    4.97397
          Condensed to atoms (all electrons):
               1          2          3          4          5          6
     1  C    6.486275  -1.676356  -0.291401  -0.292191   1.172130   0.019001
     2  C   -1.676356  10.874697   0.216107   0.219294  -3.491797   0.108649
     3  C   -0.291401   0.216107   5.702048  -0.127856  -0.043566  -0.054026
     4  C   -0.292191   0.219294  -0.127856   5.701863  -0.047842  -0.053410
     5  C    1.172130  -3.491797  -0.043566  -0.047842  12.234661  -0.190936
     6  C    0.019001   0.108649  -0.054026  -0.053410  -0.190936  10.161247
     7  C   -0.045286   0.244304   0.005647   0.005672   1.491211  -1.625701
     8  C    0.063924  -0.150612  -0.000662  -0.000704   0.474504  -0.505019
     9  N    0.000620  -0.006414  -0.000024  -0.000025  -0.000180   0.019687
    10  C   -0.001652   0.003942  -0.012943  -0.012701  -0.990452  -2.571692
    11  C    0.012081  -0.284335  -0.003793  -0.003787  -0.686944  -0.388556
    12  N   -0.000205   0.005673   0.000033   0.000034   0.043068   0.050025
    13  C    0.076233  -0.409019  -0.019405  -0.019117  -1.966336   2.681312
    14  C   -0.332175   0.531887   0.060703   0.062416  -0.732676  -1.183449
    15  C   -0.084696   0.142198  -0.138336  -0.139016  -1.579024  -0.787918
    16  N    0.003037   0.018926  -0.023657  -0.023514   0.212024   0.029034
    17  H    0.461096  -0.107836   0.009152  -0.031681   0.013448   0.006321
    18  H    0.463182  -0.127401  -0.003051  -0.003206   0.059679  -0.022605
    19  H    0.461322  -0.107769  -0.031752   0.009122   0.013302   0.006288
    20  H    0.032828  -0.138238   0.457459  -0.031239   0.115362   0.009003
    21  H   -0.020464   0.024997   0.422482  -0.005738  -0.099010  -0.004598
    22  H   -0.046441  -0.031307   0.429189   0.011175  -0.007668  -0.021595
    23  H   -0.020485   0.024683  -0.005748   0.422702  -0.098805  -0.004616
    24  H   -0.046502  -0.031105   0.011207   0.429159  -0.007732  -0.021656
    25  H    0.032815  -0.137922  -0.031298   0.457314   0.114956   0.009052
    26  H    0.030963  -0.094685   0.001037   0.001015  -0.013045   0.253282
    27  H    0.000827   0.000374  -0.000169  -0.000171   0.060752  -0.010325
               7          8          9         10         11         12
     1  C   -0.045286   0.063924   0.000620  -0.001652   0.012081  -0.000205
     2  C    0.244304  -0.150612  -0.006414   0.003942  -0.284335   0.005673
     3  C    0.005647  -0.000662  -0.000024  -0.012943  -0.003793   0.000033
     4  C    0.005672  -0.000704  -0.000025  -0.012701  -0.003787   0.000034
     5  C    1.491211   0.474504  -0.000180  -0.990452  -0.686944   0.043068
     6  C   -1.625701  -0.505019   0.019687  -2.571692  -0.388556   0.050025
     7  C   15.543517  -4.115605   0.608625  -1.325778   0.194253   0.100915
     8  C   -4.115605  13.390993  -0.562720   0.091632  -0.737344  -0.041207
     9  N    0.608625  -0.562720   7.362273   0.041484  -0.039036   0.004167
    10  C   -1.325778   0.091632   0.041484  13.375769  -4.301061   0.666796
    11  C    0.194253  -0.737344  -0.039036  -4.301061  12.405652  -0.547919
    12  N    0.100915  -0.041207   0.004167   0.666796  -0.547919   7.391101
    13  C   -4.858805  -0.030690   0.017906  -1.376373   0.226508  -0.121848
    14  C    0.238870  -0.934417   0.052593   1.219746   0.478035  -0.023161
    15  C   -0.858019  -0.605061   0.007152   0.763075  -0.034373  -0.003892
    16  N    0.056680   0.007963  -0.000002  -0.025979  -0.005603   0.000027
    17  H    0.002264   0.002348  -0.000053   0.001171   0.000147   0.000000
    18  H   -0.007045   0.000325   0.000002  -0.002791  -0.000135  -0.000000
    19  H    0.002256   0.002331  -0.000053   0.001167   0.000146   0.000000
    20  H    0.009241   0.000289   0.000001  -0.003298   0.000340  -0.000000
    21  H   -0.003426  -0.000576   0.000000   0.000213  -0.000080   0.000000
    22  H   -0.009538   0.000309  -0.000002  -0.001366  -0.000091   0.000000
    23  H   -0.003427  -0.000577   0.000000   0.000210  -0.000080   0.000000
    24  H   -0.009554   0.000307  -0.000002  -0.001375  -0.000091   0.000000
    25  H    0.009229   0.000289   0.000001  -0.003281   0.000341  -0.000000
    26  H    0.096273  -0.040216   0.001908   0.060884   0.009227  -0.000054
    27  H    0.035412   0.010180  -0.000063  -0.047538  -0.032319   0.001407
              13         14         15         16         17         18
     1  C    0.076233  -0.332175  -0.084696   0.003037   0.461096   0.463182
     2  C   -0.409019   0.531887   0.142198   0.018926  -0.107836  -0.127401
     3  C   -0.019405   0.060703  -0.138336  -0.023657   0.009152  -0.003051
     4  C   -0.019117   0.062416  -0.139016  -0.023514  -0.031681  -0.003206
     5  C   -1.966336  -0.732676  -1.579024   0.212024   0.013448   0.059679
     6  C    2.681312  -1.183449  -0.787918   0.029034   0.006321  -0.022605
     7  C   -4.858805   0.238870  -0.858019   0.056680   0.002264  -0.007045
     8  C   -0.030690  -0.934417  -0.605061   0.007963   0.002348   0.000325
     9  N    0.017906   0.052593   0.007152  -0.000002  -0.000053   0.000002
    10  C   -1.376373   1.219746   0.763075  -0.025979   0.001171  -0.002791
    11  C    0.226508   0.478035  -0.034373  -0.005603   0.000147  -0.000135
    12  N   -0.121848  -0.023161  -0.003892   0.000027   0.000000  -0.000000
    13  C   13.552401  -2.775948   0.885118  -0.240078   0.000442   0.003954
    14  C   -2.775948  12.163883  -3.989169   0.410346  -0.008375  -0.007065
    15  C    0.885118  -3.989169  12.851728  -0.209187   0.001428  -0.001461
    16  N   -0.240078   0.410346  -0.209187   7.250572  -0.000038   0.000034
    17  H    0.000442  -0.008375   0.001428  -0.000038   0.548538  -0.026389
    18  H    0.003954  -0.007065  -0.001461   0.000034  -0.026389   0.533802
    19  H    0.000426  -0.008358   0.001468  -0.000039  -0.030917  -0.026384
    20  H   -0.039798   0.024409  -0.087613   0.006124  -0.000155   0.000103
    21  H    0.001022   0.003945   0.028919  -0.000900   0.000153   0.002645
    22  H    0.013909  -0.011323   0.027186  -0.000866   0.000038  -0.000066
    23  H    0.001026   0.003969   0.028826  -0.000896  -0.000165   0.002645
    24  H    0.013913  -0.011353   0.027219  -0.000866   0.002357  -0.000063
    25  H   -0.039692   0.024614  -0.087686   0.006124   0.000060   0.000103
    26  H   -0.025058   0.020350  -0.000503  -0.000000  -0.000455   0.000141
    27  H    0.282881   0.042696  -0.035594   0.000749   0.000000  -0.000000
              19         20         21         22         23         24
     1  C    0.461322   0.032828  -0.020464  -0.046441  -0.020485  -0.046502
     2  C   -0.107769  -0.138238   0.024997  -0.031307   0.024683  -0.031105
     3  C   -0.031752   0.457459   0.422482   0.429189  -0.005748   0.011207
     4  C    0.009122  -0.031239  -0.005738   0.011175   0.422702   0.429159
     5  C    0.013302   0.115362  -0.099010  -0.007668  -0.098805  -0.007732
     6  C    0.006288   0.009003  -0.004598  -0.021595  -0.004616  -0.021656
     7  C    0.002256   0.009241  -0.003426  -0.009538  -0.003427  -0.009554
     8  C    0.002331   0.000289  -0.000576   0.000309  -0.000577   0.000307
     9  N   -0.000053   0.000001   0.000000  -0.000002   0.000000  -0.000002
    10  C    0.001167  -0.003298   0.000213  -0.001366   0.000210  -0.001375
    11  C    0.000146   0.000340  -0.000080  -0.000091  -0.000080  -0.000091
    12  N    0.000000  -0.000000   0.000000   0.000000   0.000000   0.000000
    13  C    0.000426  -0.039798   0.001022   0.013909   0.001026   0.013913
    14  C   -0.008358   0.024409   0.003945  -0.011323   0.003969  -0.011353
    15  C    0.001468  -0.087613   0.028919   0.027186   0.028826   0.027219
    16  N   -0.000039   0.006124  -0.000900  -0.000866  -0.000896  -0.000866
    17  H   -0.030917  -0.000155   0.000153   0.000038  -0.000165   0.002357
    18  H   -0.026384   0.000103   0.002645  -0.000066   0.002645  -0.000063
    19  H    0.548460   0.000060  -0.000164   0.002359   0.000154   0.000038
    20  H    0.000060   0.528667  -0.024497  -0.027954   0.000046   0.000017
    21  H   -0.000164  -0.024497   0.542294  -0.026881   0.002852   0.000092
    22  H    0.002359  -0.027954  -0.026881   0.545204   0.000091  -0.000148
    23  H    0.000154   0.000046   0.002852   0.000091   0.542280  -0.026868
    24  H    0.000038   0.000017   0.000092  -0.000148  -0.026868   0.545189
    25  H   -0.000155   0.001755   0.000045   0.000017  -0.024498  -0.027959
    26  H   -0.000460  -0.000009  -0.000007  -0.000021  -0.000007  -0.000021
    27  H    0.000000   0.000004  -0.000000   0.000000  -0.000000   0.000000
              25         26         27
     1  C    0.032815   0.030963   0.000827
     2  C   -0.137922  -0.094685   0.000374
     3  C   -0.031298   0.001037  -0.000169
     4  C    0.457314   0.001015  -0.000171
     5  C    0.114956  -0.013045   0.060752
     6  C    0.009052   0.253282  -0.010325
     7  C    0.009229   0.096273   0.035412
     8  C    0.000289  -0.040216   0.010180
     9  N    0.000001   0.001908  -0.000063
    10  C   -0.003281   0.060884  -0.047538
    11  C    0.000341   0.009227  -0.032319
    12  N   -0.000000  -0.000054   0.001407
    13  C   -0.039692  -0.025058   0.282881
    14  C    0.024614   0.020350   0.042696
    15  C   -0.087686  -0.000503  -0.035594
    16  N    0.006124  -0.000000   0.000749
    17  H    0.000060  -0.000455   0.000000
    18  H    0.000103   0.000141  -0.000000
    19  H   -0.000155  -0.000460   0.000000
    20  H    0.001755  -0.000009   0.000004
    21  H    0.000045  -0.000007  -0.000000
    22  H    0.000017  -0.000021   0.000000
    23  H   -0.024498  -0.000007  -0.000000
    24  H   -0.027959  -0.000021   0.000000
    25  H    0.528647  -0.000009   0.000004
    26  H   -0.000009   0.536682   0.000017
    27  H    0.000004   0.000017   0.505244
 Mulliken charges:
               1
     1  C   -0.458481
     2  C    0.379065
     3  C   -0.527380
     4  C   -0.527567
     5  C   -0.049085
     6  C    0.093203
     7  C    0.217815
     8  C   -0.319987
     9  N   -0.507846
    10  C    0.452191
    11  C   -0.261184
    12  N   -0.524958
    13  C    0.165118
    14  C    0.679007
    15  C   -0.122770
    16  N   -0.470016
    17  H    0.157101
    18  H    0.161043
    19  H    0.157150
    20  H    0.167093
    21  H    0.156680
    22  H    0.155788
    23  H    0.156686
    24  H    0.155797
    25  H    0.167134
    26  H    0.162773
    27  H    0.185631
 Sum of Mulliken charges =  -0.00000
 Mulliken charges with hydrogens summed into heavy atoms:
               1
     1  C    0.016813
     2  C    0.379065
     3  C   -0.047820
     4  C   -0.047950
     5  C   -0.049085
     6  C    0.255976
     7  C    0.217815
     8  C   -0.319987
     9  N   -0.507846
    10  C    0.452191
    11  C   -0.261184
    12  N   -0.524958
    13  C    0.350749
    14  C    0.679007
    15  C   -0.122770
    16  N   -0.470016
 Electronic spatial extent (au):  <R**2>=           3813.3202
 Charge=             -0.0000 electrons
 Dipole moment (field-independent basis, Debye):
    X=             -5.4012    Y=             -2.0657    Z=             -0.0001  Tot=              5.7827
 Quadrupole moment (field-independent basis, Debye-Ang):
   XX=           -125.2261   YY=           -108.2368   ZZ=            -93.8380
   XY=             14.0833   XZ=             -0.0015   YZ=              0.0002
 Traceless Quadrupole moment (field-independent basis, Debye-Ang):
   XX=            -16.1258   YY=              0.8635   ZZ=             15.2623
   XY=             14.0833   XZ=             -0.0015   YZ=              0.0002
 Octapole moment (field-independent basis, Debye-Ang**2):
  XXX=           -168.9296  YYY=            -21.1917  ZZZ=             -0.0001  XYY=            -14.6954
  XXY=            -25.7804  XXZ=             -0.0028  XZZ=             -3.5628  YZZ=             -1.8765
  YYZ=             -0.0026  XYZ=              0.0024
 Hexadecapole moment (field-independent basis, Debye-Ang**3):
 XXXX=          -4200.7287 YYYY=          -1764.0607 ZZZZ=           -287.6124 XXXY=             54.9133
 XXXZ=             -0.0274 YYYX=            197.6964 YYYZ=             -0.0029 ZZZX=              0.0053
 ZZZY=              0.0036 XXYY=          -1107.7298 XXZZ=           -632.3016 YYZZ=           -312.7393
 XXYZ=             -0.0015 YYXZ=             -0.0053 ZZXY=              1.7226
 N-N= 9.609344454835D+02 E-N=-3.463203775038D+03  KE= 6.598444591363D+02
 Unable to Open any file for archive entry.
 1\1\GINC-N2\SP\RB3LYP TD-FC\6-31+G(d,p)\C13H11N3\HPCMGAC13\26-Aug-2025
 \0\\# td=(50-50,nstates=3) b3lyp/6-31+g(d,p) geom=connectivity\\Title 
 Card Required\\0,1\C,0,2.280764,-2.344685,0.001075\C,0,2.234938,-0.801
 896,0.000019\C,0,2.973126,-0.313262,1.273009\C,0,2.97165,-0.31488,-1.2
 74529\C,0,0.786614,-0.270379,0.000258\C,0,-0.302721,-1.150959,0.000194
 \C,0,-1.636267,-0.718792,0.000119\C,0,-2.683362,-1.698356,0.000009\N,0
 ,-3.508939,-2.517582,-0.000129\C,0,-1.927531,0.662603,0.000106\C,0,-3.
 274473,1.151196,0.000009\N,0,-4.358427,1.572454,-0.000026\C,0,-0.86181
 3,1.564784,0.000121\C,0,0.468224,1.116231,0.000143\C,0,1.457975,2.1592
 85,-0.000145\N,0,2.197691,3.057337,-0.000003\H,0,1.809878,-2.775983,-0
 .888687\H,0,3.326604,-2.664863,0.001121\H,0,1.810164,-2.77473,0.891582
 \H,0,3.050482,0.773982,1.327532\H,0,3.991631,-0.715138,1.276687\H,0,2.
 467864,-0.669216,2.177203\H,0,3.989762,-0.717717,-1.279432\H,0,2.46463
 9,-0.670875,-2.17772\H,0,3.049869,0.772292,-1.329767\H,0,-0.131808,-2.
 218316,0.000158\H,0,-1.064116,2.629767,0.000096\\Version=ES64L-G16RevC
 .02\State=1-A\HF=-666.254373\RMSD=6.213e-09\PG=C01 [X(C13H11N3)]\\@
 The archive entry for this job was punched.


 EVERY WORD THAT YOU WRITE IS A BLOW THAT SMITES THE DEVIL.
     -- ST. BERNARD OF CLAIRVAUX
 Job cpu time:       0 days  0 hours 41 minutes 30.5 seconds.
 Elapsed time:       0 days  0 hours  2 minutes 40.2 seconds.
 File lengths (MBytes):  RWF=    747 Int=      0 D2E=      0 Chk=     34 Scr=      2
 Normal termination of Gaussian 16 at Tue Aug 26 09:02:45 2025.
