 Entering Gaussian System, Link 0=g16
 Input=M704E.gjf
 Output=M704E.log
 Initial command:
 /hpc/softwares/Gaussian/g16/l1.exe "/hpc/home/hpcmgac13/pbs.13479.admin1.x8z/Gau-461552.inp" -scrdir="/hpc/home/hpcmgac13/pbs.13479.admin1.x8z/"
 Default linda workers: n1
 Default is to use  16 SMP processors on each worker.
 Entering Link 1 = /hpc/softwares/Gaussian/g16/l1.exe PID=    461553.
  
 Copyright (c) 1988-2021, Gaussian, Inc.  All Rights Reserved.
  
 This is part of the Gaussian(R) 16 program.  It is based on
 the Gaussian(R) 09 system (copyright 2009, Gaussian, Inc.),
 the Gaussian(R) 03 system (copyright 2003, Gaussian, Inc.),
 the Gaussian(R) 98 system (copyright 1998, Gaussian, Inc.),
 the Gaussian(R) 94 system (copyright 1995, Gaussian, Inc.),
 the Gaussian 92(TM) system (copyright 1992, Gaussian, Inc.),
 the Gaussian 90(TM) system (copyright 1990, Gaussian, Inc.),
 the Gaussian 88(TM) system (copyright 1988, Gaussian, Inc.),
 the Gaussian 86(TM) system (copyright 1986, Carnegie Mellon
 University), and the Gaussian 82(TM) system (copyright 1983,
 Carnegie Mellon University). Gaussian is a federally registered
 trademark of Gaussian, Inc.
  
 This software contains proprietary and confidential information,
 including trade secrets, belonging to Gaussian, Inc.
  
 This software is provided under written license and may be
 used, copied, transmitted, or stored only in accord with that
 written license.
  
 The following legend is applicable only to US Government
 contracts under FAR:
  
                    RESTRICTED RIGHTS LEGEND
  
 Use, reproduction and disclosure by the US Government is
 subject to restrictions as set forth in subparagraphs (a)
 and (c) of the Commercial Computer Software - Restricted
 Rights clause in FAR 52.227-19.
  
 Gaussian, Inc.
 340 Quinnipiac St., Bldg. 40, Wallingford CT 06492
  
  
 ---------------------------------------------------------------
 Warning -- This program may not be used in any manner that
 competes with the business of Gaussian, Inc. or will provide
 assistance to any competitor of Gaussian, Inc.  The licensee
 of this program is prohibited from giving any competitor of
 Gaussian, Inc. access to this program.  By using this program,
 the user acknowledges that Gaussian, Inc. is engaged in the
 business of creating and licensing software in the field of
 computational chemistry and represents and warrants to the
 licensee that it is not a competitor of Gaussian, Inc. and that
 it will not use this program in any manner prohibited above.
 ---------------------------------------------------------------
  

 Cite this work as:
 Gaussian 16, Revision C.02,
 M. J. Frisch, G. W. Trucks, H. B. Schlegel, G. E. Scuseria, 
 M. A. Robb, J. R. Cheeseman, G. Scalmani, V. Barone, 
 G. A. Petersson, H. Nakatsuji, X. Li, M. Caricato, A. V. Marenich, 
 J. Bloino, B. G. Janesko, R. Gomperts, B. Mennucci, H. P. Hratchian, 
 J. V. Ortiz, A. F. Izmaylov, J. L. Sonnenberg, D. Williams-Young, 
 F. Ding, F. Lipparini, F. Egidi, J. Goings, B. Peng, A. Petrone, 
 T. Henderson, D. Ranasinghe, V. G. Zakrzewski, J. Gao, N. Rega, 
 G. Zheng, W. Liang, M. Hada, M. Ehara, K. Toyota, R. Fukuda, 
 J. Hasegawa, M. Ishida, T. Nakajima, Y. Honda, O. Kitao, H. Nakai, 
 T. Vreven, K. Throssell, J. A. Montgomery, Jr., J. E. Peralta, 
 F. Ogliaro, M. J. Bearpark, J. J. Heyd, E. N. Brothers, K. N. Kudin, 
 V. N. Staroverov, T. A. Keith, R. Kobayashi, J. Normand, 
 K. Raghavachari, A. P. Rendell, J. C. Burant, S. S. Iyengar, 
 J. Tomasi, M. Cossi, J. M. Millam, M. Klene, C. Adamo, R. Cammi, 
 J. W. Ochterski, R. L. Martin, K. Morokuma, O. Farkas, 
 J. B. Foresman, and D. J. Fox, Gaussian, Inc., Wallingford CT, 2019.
 
 ******************************************
 Gaussian 16:  ES64L-G16RevC.02  7-Dec-2021
                26-Aug-2025 
 ******************************************
 SetLPE:    new flags="-opt 'Tsnet.Node.lindarsharg: ssh'  -nodelist 'n1' -env GAUSS_MDEF=4294967296 -env GAUSS_EXEDIR="/hpc/softwares/Gaussian/g16/bsd:/hpc/softwares/Gaussian/g16""
 Will use up to    1 processors via Linda.
 ----------------------------------------------------------
 # td=(50-50,nstates=3) b3lyp/6-31+g(d,p) geom=connectivity
 ----------------------------------------------------------
 1/38=1,57=2,172=1/1;
 2/12=2,17=6,18=5,40=1/2;
 3/5=1,6=6,7=111,11=9,25=1,30=1,74=-5/1,2,3,8;
 4//1;
 5/5=2,38=5/2;
 8/6=1,10=2,108=3/1;
 9/41=3,42=1,48=2,70=2/14;
 6/7=2,8=2,9=2,10=2/1;
 99/5=1,9=1/99;
 -------------------
 Title Card Required
 -------------------
 Symbolic Z-matrix:
 Charge =  0 Multiplicity = 1
 C                     3.51286  -4.09201   0.25537 
 C                     2.87348  -2.72871   0.12274 
 C                     3.34248  -1.78937  -0.79723 
 C                     2.76655  -0.51723  -0.92601 
 C                     3.34396   0.44485  -1.9412 
 C                     1.67264  -0.1588   -0.10486 
 C                     1.04463   1.1927   -0.2415 
 C                     1.28453   2.15165   0.67491 
 N                     0.71554   3.42946   0.65419 
 C                     1.36869   4.49194   1.40611 
 C                    -0.01278   3.7721   -0.49071 
 C                    -0.30929   2.89688  -1.46473 
 C                     0.11684   1.44802  -1.42322 
 C                     1.18235  -1.10475   0.83019 
 C                    -0.00682  -0.805     1.73189 
 C                    -1.36635  -0.84748   1.04775 
 C                    -2.32077   0.14781   1.30285 
 C                    -3.58653   0.10206   0.72238 
 C                    -3.92317  -0.95747  -0.13643 
 C                    -5.22327  -1.01349  -0.74034 
 N                    -6.27862  -1.05951  -1.23009 
 C                    -2.97436  -1.96092  -0.40305 
 C                    -1.71342  -1.89776   0.18273 
 C                     1.79084  -2.36111   0.93058 
 H                     4.35393  -4.20565  -0.43455 
 H                     3.88833  -4.25927   1.27174 
 H                     2.79473  -4.89236   0.04086 
 H                     4.19131  -2.04429  -1.42857 
 H                     4.37097   0.16873  -2.19715 
 H                     2.76477   0.44042  -2.8731 
 H                     3.34461   1.47275  -1.56817 
 H                     1.94706   1.96733   1.51613 
 H                     1.64834   4.12081   2.39596 
 H                     2.27388   4.87221   0.90685 
 H                     0.67176   5.3236    1.54182 
 H                    -0.34118   4.80602  -0.52899 
 H                    -0.90518   3.24016  -2.30488 
 H                    -0.76194   0.78543  -1.35833 
 H                     0.60968   1.16407  -2.36603 
 H                    -0.01316  -1.54412   2.54355 
 H                     0.10729   0.17231   2.20718 
 H                    -2.06649   0.97658   1.95751 
 H                    -4.31274   0.88254   0.92442 
 H                    -3.231    -2.77884  -1.06842 
 H                    -0.98398  -2.67062  -0.04007 
 H                     1.41217  -3.07096   1.66411 
 
                          Input orientation:                          
 ---------------------------------------------------------------------
 Center     Atomic      Atomic             Coordinates (Angstroms)
 Number     Number       Type             X           Y           Z
 ---------------------------------------------------------------------
      1          6           0        3.512860   -4.092014    0.255374
      2          6           0        2.873482   -2.728707    0.122742
      3          6           0        3.342477   -1.789367   -0.797227
      4          6           0        2.766546   -0.517225   -0.926006
      5          6           0        3.343958    0.444854   -1.941204
      6          6           0        1.672640   -0.158796   -0.104856
      7          6           0        1.044627    1.192695   -0.241501
      8          6           0        1.284534    2.151650    0.674910
      9          7           0        0.715540    3.429464    0.654185
     10          6           0        1.368688    4.491941    1.406108
     11          6           0       -0.012777    3.772096   -0.490705
     12          6           0       -0.309293    2.896878   -1.464726
     13          6           0        0.116837    1.448023   -1.423215
     14          6           0        1.182351   -1.104749    0.830190
     15          6           0       -0.006821   -0.805003    1.731888
     16          6           0       -1.366352   -0.847477    1.047748
     17          6           0       -2.320772    0.147807    1.302845
     18          6           0       -3.586529    0.102061    0.722375
     19          6           0       -3.923174   -0.957469   -0.136433
     20          6           0       -5.223267   -1.013491   -0.740337
     21          7           0       -6.278618   -1.059515   -1.230085
     22          6           0       -2.974364   -1.960920   -0.403052
     23          6           0       -1.713420   -1.897756    0.182733
     24          6           0        1.790839   -2.361109    0.930583
     25          1           0        4.353927   -4.205654   -0.434545
     26          1           0        3.888326   -4.259269    1.271737
     27          1           0        2.794730   -4.892361    0.040864
     28          1           0        4.191306   -2.044294   -1.428568
     29          1           0        4.370966    0.168728   -2.197152
     30          1           0        2.764768    0.440416   -2.873096
     31          1           0        3.344605    1.472748   -1.568166
     32          1           0        1.947056    1.967325    1.516132
     33          1           0        1.648342    4.120810    2.395959
     34          1           0        2.273879    4.872212    0.906853
     35          1           0        0.671762    5.323597    1.541817
     36          1           0       -0.341183    4.806020   -0.528991
     37          1           0       -0.905183    3.240160   -2.304880
     38          1           0       -0.761944    0.785426   -1.358328
     39          1           0        0.609682    1.164066   -2.366025
     40          1           0       -0.013164   -1.544115    2.543554
     41          1           0        0.107289    0.172305    2.207175
     42          1           0       -2.066489    0.976580    1.957507
     43          1           0       -4.312737    0.882541    0.924422
     44          1           0       -3.231003   -2.778840   -1.068416
     45          1           0       -0.983983   -2.670620   -0.040071
     46          1           0        1.412168   -3.070961    1.664111
 ---------------------------------------------------------------------
                    Distance matrix (angstroms):
                    1          2          3          4          5
     1  C    0.000000
     2  C    1.511622   0.000000
     3  C    2.537554   1.395944   0.000000
     4  C    3.838197   2.449890   1.402364   0.000000
     5  C    5.043476   3.814801   2.510066   1.513152   0.000000
     6  C    4.357336   2.845745   2.434439   1.413998   2.555361
     7  C    5.853820   4.342209   3.805475   2.521384   2.955534
     8  C    6.642649   5.162125   4.683368   3.447055   3.741448
     9  N    8.034717   6.546924   6.020265   4.720168   4.748950
    10  C    8.922216   7.486601   6.943008   5.699518   5.611159
    11  C    8.650490   7.139135   6.502427   5.129561   4.943901
    12  C    8.149369   6.655623   5.978451   4.626781   4.425573
    13  C    6.711382   5.237762   4.612733   3.336222   3.418914
    14  C    3.832158   2.449009   2.789862   2.437023   3.841151
    15  C    5.037131   3.819180   4.310823   3.852114   5.126545
    16  C    5.912832   4.729784   5.144333   4.591908   5.726340
    17  C    7.287286   6.053697   6.343133   5.593822   6.534620
    18  C    8.258915   7.078457   7.341513   6.592590   7.432618
    19  C    8.079201   7.028441   7.342914   6.750525   7.618065
    20  C    9.316043   8.321311   8.600999   8.007363   8.773038
    21  N   10.357397   9.400919   9.658443   9.066506   9.765387
    22  C    6.859968   5.921424   6.331452   5.942708   6.933603
    23  C    5.668690   4.661947   5.151132   4.817184   5.964562
    24  C    2.533238   1.399947   2.391610   2.792639   4.304970
    25  H    1.093753   2.164176   2.644430   4.045469   4.991721
    26  H    1.096331   2.166268   3.267871   4.482338   5.722596
    27  H    1.096486   2.166634   3.260521   4.480786   5.719800
    28  H    2.736623   2.147474   1.088159   2.148127   2.678927
    29  H    4.990506   4.002436   2.617578   2.158821   1.093847
    30  H    5.557867   4.362362   3.100792   2.169848   1.097225
    31  H    5.858343   4.553389   3.351976   2.169450   1.093492
    32  H    6.384109   4.985230   4.627263   3.578909   4.027707
    33  H    8.689592   7.320134   6.927967   5.813536   5.932853
    34  H    9.072863   7.664745   6.958622   5.713854   5.371964
    35  H    9.918695   8.467641   7.949723   6.677834   6.563094
    36  H    9.728509   8.217721   7.559129   6.176774   5.881699
    37  H    8.935031   7.469875   6.753649   5.431467   5.099137
    38  H    6.683368   5.268683   4.877568   3.786033   4.161029
    39  H    6.551836   5.145137   4.318803   3.090705   2.859022
    40  H    4.915323   3.949217   4.741444   4.562799   5.944688
    41  H    5.795848   4.518026   4.831256   4.167004   5.268715
    42  H    7.727680   6.441958   6.670527   5.822742   6.689964
    43  H    9.296978   8.082422   8.288876   7.449810   8.187085
    44  H    6.996895   6.219816   6.653062   6.411379   7.374556
    45  H    4.725383   3.861336   4.479749   4.414573   5.661410
    46  H    2.727636   2.151370   3.380349   3.881316   5.393613
                    6          7          8          9         10
     6  C    0.000000
     7  C    1.496529   0.000000
     8  C    2.469174   1.347946   0.000000
     9  N    3.790487   2.431807   1.398925   0.000000
    10  C    4.899465   3.701980   2.453303   1.456313   0.000000
    11  C    4.294348   2.798842   2.380655   1.399505   2.454490
    12  C    3.887730   2.496722   2.770143   2.413237   3.688026
    13  C    2.596240   1.523954   2.502146   2.932600   4.340235
    14  C    1.417576   2.538846   3.261700   4.561576   5.629329
    15  C    2.571342   2.998434   3.395084   4.428765   5.482315
    16  C    3.322386   3.411346   4.020071   4.772985   6.009846
    17  C    4.245347   3.847428   4.172280   4.517657   5.700375
    18  C    5.330217   4.854497   5.284915   5.439123   6.655277
    19  C    5.652611   5.414175   6.119242   6.433345   7.751084
    20  C    6.977670   6.663527   7.373772   7.546785   8.852733
    21  N    8.080838   7.725262   8.434563   8.521716   9.810681
    22  C    4.993117   5.111132   6.017761   6.617355   7.985899
    23  C    3.817341   4.163855   5.062376   5.873788   7.198907
    24  C    2.436450   3.815775   4.548264   5.896049   6.882487
    25  H    4.865702   6.334896   7.146144   8.527498   9.378050
    26  H    4.859851   6.332490   6.945201   8.340537   9.107706
    27  H    4.866925   6.338020   7.231929   8.599533   9.589714
    28  H    3.413355   4.667849   5.520859   6.810348   7.663219
    29  H    3.430151   3.992194   4.659054   5.667862   6.378662
    30  H    3.035614   3.232662   4.208059   5.057218   6.056028
    31  H    2.756570   2.669900   3.120287   3.959743   4.676118
    32  H    2.687619   2.122193   1.086538   2.097006   2.592354
    33  H    4.956783   3.986794   2.640446   2.093288   1.093503
    34  H    5.166825   4.045815   2.904145   2.138641   1.101468
    35  H    5.811189   4.514820   3.344886   2.092259   1.093515
    36  H    5.374455   3.880623   3.337366   2.100351   2.601329
    37  H    4.799810   3.500201   3.854720   3.379149   4.528673
    38  H    2.896540   2.162607   3.191974   3.636496   5.091164
    39  H    2.827141   2.168778   3.267726   3.776891   5.087222
    40  H    3.431489   4.045440   4.339877   5.370029   6.295814
    41  H    2.811661   2.813505   2.766143   3.659349   4.570787
    42  H    4.418541   3.815938   3.775606   3.931281   4.945932
    43  H    6.161861   5.491532   5.744766   5.642997   6.748213
    44  H    5.642587   5.893886   6.909341   7.555501   8.952356
    45  H    3.656652   4.368184   5.376956   6.370353   7.676508
    46  H    3.417279   4.684571   5.316999   6.615192   7.567426
                   11         12         13         14         15
    11  C    0.000000
    12  C    1.342626   0.000000
    13  C    2.507527   1.510791   0.000000
    14  C    5.191985   4.848160   3.567884   0.000000
    15  C    5.088201   4.900383   3.878929   1.522182   0.000000
    16  C    5.053658   4.631425   3.684403   2.570877   1.522556
    17  C    4.656086   4.388951   3.881224   3.750223   2.538955
    18  C    5.264259   4.830599   4.486657   4.920389   3.828340
    19  C    6.146991   5.447980   4.874822   5.198311   4.341853
    20  C    7.079079   6.321619   5.919635   6.595970   5.776389
    21  N    7.946818   7.165259   6.872182   7.740338   6.940713
    22  C    6.453383   5.641627   4.713507   4.419524   3.834113
    23  C    5.957594   5.260628   4.138012   3.071409   2.550778
    24  C    6.548992   6.147722   4.780391   1.399563   2.509011
    25  H    9.094820   8.558788   7.134036   4.612381   5.939190
    26  H    9.100969   8.736056   7.352556   4.179505   5.226458
    27  H    9.123457   8.519038   7.036697   4.191516   5.235909
    28  H    7.237699   6.683703   5.366340   3.877956   5.398944
    29  H    5.925658   5.466633   4.509234   4.577533   5.962426
    30  H    4.948801   4.179421   3.182604   4.313456   5.517123
    31  H    4.209506   3.922986   3.231116   4.131700   5.225951
    32  H    3.335497   3.852362   3.501305   3.239279   3.398527
    33  H    3.348693   4.498359   4.906668   5.474965   5.238720
    34  H    2.896933   4.024812   4.669809   6.076296   6.173576
    35  H    2.647054   3.986318   4.911154   6.487738   6.168982
    36  H    1.085502   2.126368   3.505077   6.253457   6.058626
    37  H    2.090592   1.085719   2.243572   5.750191   5.784971
    38  H    3.199097   2.162046   1.102498   3.484631   3.556559
    39  H    3.272018   2.158586   1.101099   3.961220   4.588050
    40  H    6.121179   5.989693   4.970417   2.134927   1.097783
    41  H    4.500163   4.591263   3.848023   2.163958   1.092726
    42  H    4.245749   4.299647   4.051969   4.019669   2.732613
    43  H    5.370453   5.078695   5.045027   5.844159   4.694754
    44  H    7.321577   6.395876   5.403729   5.087728   4.704581
    45  H    6.531072   5.786353   4.481976   2.811105   2.752310
    46  H    7.314447   6.954722   5.624116   2.148076   2.674451
                   16         17         18         19         20
    16  C    0.000000
    17  C    1.402349   0.000000
    18  C    2.436529   1.393262   0.000000
    19  C    2.819880   2.420919   1.404808   0.000000
    20  C    4.254480   3.734660   2.462294   1.434601   0.000000
    21  N    5.418841   4.851588   3.522599   2.598962   1.164361
    22  C    2.435216   2.789981   2.428420   1.406499   2.463523
    23  C    1.404206   2.409949   2.792672   2.422606   3.735373
    24  C    3.503236   4.831002   5.918331   5.979856   7.335239
    25  H    6.796774   8.156148   9.107454   8.896627  10.099805
    26  H    6.269142   7.614209   8.671589   8.596764   9.879506
    27  H    5.889780   7.291382   8.131985   7.787493   8.941151
    28  H    6.200974   7.394125   8.350336   8.288280   9.495810
    29  H    6.669248   7.551806   8.476427   8.620188   9.775953
    30  H    5.839335   6.586867   7.306221   7.360161   8.394713
    31  H    5.866819   6.488040   7.427380   7.795924   8.959638
    32  H    4.372776   4.644404   5.893201   6.763504   8.086436
    33  H    5.965730   5.721321   6.808458   7.952592   9.133258
    34  H    6.781296   6.602093   7.558621   8.571878   9.672742
    35  H    6.517681   5.983408   6.787412   7.961266   8.950881
    36  H    5.958113   5.382689   5.850249   6.797247   7.599087
    37  H    5.306747   4.958046   5.118745   5.606293   6.259967
    38  H    2.969997   3.149340   3.574156   3.811048   4.849888
    39  H    4.427738   4.804264   5.317354   5.478939   6.434898
    40  H    2.133977   3.118816   4.335381   4.776470   6.181478
    41  H    2.134442   2.591118   3.981690   4.797241   6.205543
    42  H    2.155235   1.086327   2.144961   3.401824   4.604779
    43  H    3.418970   2.156609   1.085058   2.159354   2.682429
    44  H    3.418368   3.875134   3.410707   2.159881   2.682016
    45  H    2.157176   3.396168   3.878444   3.403383   4.605212
    46  H    3.611642   4.942249   5.995157   6.014539   7.351432
                   21         22         23         24         25
    21  N    0.000000
    22  C    3.523437   0.000000
    23  C    4.851777   1.391802   0.000000
    24  C    8.454512   4.964463   3.613005   0.000000
    25  H   11.116748   7.664442   6.520746   3.440253   0.000000
    26  H   10.948255   7.428583   6.175940   2.849359   1.769479
    27  H    9.931348   6.486359   5.413982   2.864722   1.768806
    28  H   10.518008   7.239162   6.122381   3.380563   2.384534
    29  H   10.763709   7.855448   6.852296   4.779106   4.716173
    30  H    9.313007   6.693666   5.904177   4.823386   5.482511
    31  H    9.956559   7.285392   6.325311   4.832845   5.877761
    32  H    9.185052   6.582914   5.487795   4.370654   6.906797
    33  H   10.140052   8.135804   7.240369   6.647022   9.201193
    34  H   10.625304   8.715021   7.890207   7.249471   9.409229
    35  H    9.835413   8.375019   7.725551   7.789778  10.405334
    36  H    8.375510   7.262299   6.879695   7.618636  10.161853
    37  H    6.965357   5.911827   5.765383   7.007922   9.305726
    38  H    5.818414   3.653734   3.237227   4.653654   7.206691
    39  H    7.326892   5.144335   4.611694   4.968865   6.825238
    40  H    7.330150   4.198204   2.930769   2.554130   5.918137
    41  H    7.356082   4.567332   3.420307   3.298820   6.646739
    42  H    5.661136   3.876259   3.396511   5.203241   8.590646
    43  H    3.504022   3.411554   3.877706   6.911942  10.141380
    44  H    3.502881   1.085157   2.155166   5.421199   7.743949
    45  H    5.660826   2.144072   1.085835   2.955944   5.568233
    46  H    8.459933   4.974637   3.652423   1.088735   3.787589
                   26         27         28         29         30
    26  H    0.000000
    27  H    1.764031   0.000000
    28  H    3.505647   3.495875   0.000000
    29  H    5.645643   5.753943   2.349567   0.000000
    30  H    6.366244   6.077053   3.208653   1.763686   0.000000
    31  H    6.420023   6.588319   3.620217   1.774685   1.762034
    32  H    6.526770   7.067550   5.459030   4.785266   4.718625
    33  H    8.746835   9.386050   7.687794   6.642914   6.523392
    34  H    9.280276   9.816726   7.547766   6.012935   5.845494
    35  H   10.111901  10.541615   8.688855   7.364555   6.907792
    36  H   10.164194  10.208686   8.263141   6.818474   5.848099
    37  H    9.592255   9.237411   7.393753   6.105985   4.650804
    38  H    7.347870   6.844336   5.704992   5.237433   3.853732
    39  H    7.307214   6.873708   4.899023   3.894416   2.329203
    40  H    4.920488   5.035720   5.805644   6.680473   6.402762
    41  H    5.900011   6.129118   5.900096   6.130012   5.739619
    42  H    7.958908   7.858081   7.729889   7.704196   6.852973
    43  H    9.685880   9.200340   9.296326   9.255293   8.044109
    44  H    7.638903   6.481275   7.467258   8.231168   7.040579
    45  H    5.289994   4.384217   5.394796   6.433535   5.635398
    46  H    2.774417   2.804266   4.282793   5.844606   5.894535
                   31         32         33         34         35
    31  H    0.000000
    32  H    3.422082   0.000000
    33  H    5.060022   2.345383   0.000000
    34  H    4.339185   2.986035   1.781387   0.000000
    35  H    5.625400   3.590487   1.769170   1.781490   0.000000
    36  H    5.076970   4.180521   3.603201   2.984054   2.362666
    37  H    4.661243   4.935130   5.421616   4.804712   4.650220
    38  H    4.168955   4.122874   5.570362   5.572171   5.573271
    39  H    2.865601   4.183890   5.700670   5.218393   5.707607
    40  H    6.105925   4.150695   5.905401   7.005613   6.974100
    41  H    5.140483   2.661650   4.242779   5.336111   5.224667
    42  H    6.477383   4.157515   4.886552   5.926096   5.154355
    43  H    8.074418   6.380587   6.941633   7.700733   6.704430
    44  H    7.846297   7.484535   9.133185   9.630369   9.364528
    45  H    6.183789   5.702920   7.680293   8.270710   8.315730
    46  H    5.901459   5.068760   7.232769   8.025583   8.428034
                   36         37         38         39         40
    36  H    0.000000
    37  H    2.433885   0.000000
    38  H    4.126744   2.634805   0.000000
    39  H    4.188397   2.570743   1.743611   0.000000
    40  H    7.062035   6.869665   4.605661   5.641467   0.000000
    41  H    5.399912   5.549367   3.720792   4.706394   1.753213
    42  H    4.880980   4.963907   3.568352   5.088219   3.303558
    43  H    5.768825   5.253397   4.222382   5.927605   5.195823
    44  H    8.134626   6.570133   4.345606   5.655189   4.992531
    45  H    7.520132   6.330315   3.705585   4.759690   2.981044
    46  H    8.362462   7.807256   5.360375   5.900969   2.266330
                   41         42         43         44         45
    41  H    0.000000
    42  H    2.331202   0.000000
    43  H    4.656879   2.474215   0.000000
    44  H    5.530185   4.961399   4.306653   0.000000
    45  H    3.784602   4.297000   4.963447   2.473521   0.000000
    46  H    3.537853   5.345065   6.996560   5.395468   2.967499
                   46
    46  H    0.000000
 Stoichiometry    C22H22N2
 Framework group  C1[X(C22H22N2)]
 Deg. of freedom   132
 Full point group                 C1      NOp   1
 Largest Abelian subgroup         C1      NOp   1
 Largest concise Abelian subgroup C1      NOp   1
                         Standard orientation:                         
 ---------------------------------------------------------------------
 Center     Atomic      Atomic             Coordinates (Angstroms)
 Number     Number       Type             X           Y           Z
 ---------------------------------------------------------------------
      1          6           0       -3.512861   -4.092013   -0.255374
      2          6           0       -2.873482   -2.728707   -0.122742
      3          6           0       -3.342477   -1.789367    0.797227
      4          6           0       -2.766546   -0.517225    0.926006
      5          6           0       -3.343958    0.444854    1.941204
      6          6           0       -1.672640   -0.158796    0.104856
      7          6           0       -1.044627    1.192695    0.241501
      8          6           0       -1.284534    2.151650   -0.674910
      9          7           0       -0.715540    3.429464   -0.654185
     10          6           0       -1.368687    4.491941   -1.406108
     11          6           0        0.012777    3.772096    0.490705
     12          6           0        0.309293    2.896878    1.464726
     13          6           0       -0.116837    1.448023    1.423215
     14          6           0       -1.182351   -1.104749   -0.830190
     15          6           0        0.006821   -0.805003   -1.731888
     16          6           0        1.366352   -0.847477   -1.047748
     17          6           0        2.320772    0.147807   -1.302845
     18          6           0        3.586529    0.102061   -0.722375
     19          6           0        3.923174   -0.957469    0.136433
     20          6           0        5.223267   -1.013492    0.740337
     21          7           0        6.278618   -1.059516    1.230085
     22          6           0        2.974364   -1.960920    0.403052
     23          6           0        1.713420   -1.897756   -0.182733
     24          6           0       -1.790839   -2.361109   -0.930583
     25          1           0       -4.353928   -4.205653    0.434545
     26          1           0       -3.888327   -4.259268   -1.271737
     27          1           0       -2.794731   -4.892361   -0.040864
     28          1           0       -4.191306   -2.044293    1.428568
     29          1           0       -4.370966    0.168729    2.197152
     30          1           0       -2.764768    0.440416    2.873096
     31          1           0       -3.344605    1.472748    1.568166
     32          1           0       -1.947056    1.967325   -1.516132
     33          1           0       -1.648341    4.120810   -2.395959
     34          1           0       -2.273878    4.872212   -0.906853
     35          1           0       -0.671761    5.323597   -1.541817
     36          1           0        0.341184    4.806020    0.528991
     37          1           0        0.905183    3.240160    2.304880
     38          1           0        0.761944    0.785426    1.358328
     39          1           0       -0.609682    1.164066    2.366025
     40          1           0        0.013164   -1.544115   -2.543554
     41          1           0       -0.107289    0.172305   -2.207175
     42          1           0        2.066489    0.976580   -1.957507
     43          1           0        4.312737    0.882540   -0.924422
     44          1           0        3.231003   -2.778840    1.068416
     45          1           0        0.983983   -2.670620    0.040071
     46          1           0       -1.412168   -3.070961   -1.664111
 ---------------------------------------------------------------------
 Rotational constants (GHZ):           0.2683793           0.1873813           0.1297008
 Standard basis: 6-31+G(d,p) (6D, 7F)
 There are   566 symmetry adapted cartesian basis functions of A   symmetry.
 There are   566 symmetry adapted basis functions of A   symmetry.
   566 basis functions,   922 primitive gaussians,   566 cartesian basis functions
    84 alpha electrons       84 beta electrons
       nuclear repulsion energy      1916.5294302818 Hartrees.
 NAtoms=   46 NActive=   46 NUniq=   46 SFac= 1.00D+00 NAtFMM=   60 NAOKFM=F Big=F
 Integral buffers will be    131072 words long.
 Regular integral format.
 Two-electron integral symmetry is turned on.
 One-electron integrals computed using PRISM.
 NBasis=   566 RedAO= T EigKep=  1.33D-06  NBF=   566
 NBsUse=   562 1.00D-06 EigRej=  8.63D-07 NBFU=   562
 ExpMin= 4.38D-02 ExpMax= 4.17D+03 ExpMxC= 6.27D+02 IAcc=3 IRadAn=         5 AccDes= 0.00D+00
 Harris functional with IExCor=  402 and IRadAn=       5 diagonalized for initial guess.
 HarFok:  IExCor=  402 AccDes= 0.00D+00 IRadAn=         5 IDoV= 1 UseB2=F ITyADJ=14
 ICtDFT=  3500011 ScaDFX=  1.000000  1.000000  1.000000  1.000000
 FoFCou: FMM=F IPFlag=           0 FMFlag=      100000 FMFlg1=           0
         NFxFlg=           0 DoJE=T BraDBF=F KetDBF=T FulRan=T
         wScrn=  0.000000 ICntrl=       500 IOpCl=  0 I1Cent=   200000004 NGrid=           0
         NMat0=    1 NMatS0=      1 NMatT0=    0 NMatD0=    1 NMtDS0=    0 NMtDT0=    0
 Petite list used in FoFCou.
 Requested convergence on RMS density matrix=1.00D-08 within 128 cycles.
 Requested convergence on MAX density matrix=1.00D-06.
 Requested convergence on             energy=1.00D-06.
 No special actions if energy rises.
 SCF Done:  E(RB3LYP) =  -961.125999294     A.U. after   16 cycles
            NFock= 16  Conv=0.88D-08     -V/T= 2.0098
 DoSCS=F DFT=T ScalE2(SS,OS)=  1.000000  1.000000
 ExpMin= 4.38D-02 ExpMax= 4.17D+03 ExpMxC= 6.27D+02 IAcc=3 IRadAn=         5 AccDes= 0.00D+00
 HarFok:  IExCor=  205 AccDes= 0.00D+00 IRadAn=         5 IDoV=-2 UseB2=F ITyADJ=14
 ICtDFT= 12500011 ScaDFX=  1.000000  1.000000  1.000000  1.000000
 GSVD:  LWork=        -768 too small for GESVD, short by        3240 words or        3240 for optimal perf.
 Range of M.O.s used for correlation:    25   562
 NBasis=   566 NAE=    84 NBE=    84 NFC=    24 NFV=     0
 NROrb=    538 NOA=    60 NOB=    60 NVA=   478 NVB=   478

 **** Warning!!: The largest alpha MO coefficient is  0.15049754D+03

 Orbital symmetries:
       Occupied  (A) (A) (A) (A) (A) (A) (A) (A) (A) (A) (A) (A)
                 (A) (A) (A) (A) (A) (A) (A) (A) (A) (A) (A) (A)
                 (A) (A) (A) (A) (A) (A) (A) (A) (A) (A) (A) (A)
                 (A) (A) (A) (A) (A) (A) (A) (A) (A) (A) (A) (A)
                 (A) (A) (A) (A) (A) (A) (A) (A) (A) (A) (A) (A)
                 (A) (A) (A) (A) (A) (A) (A) (A) (A) (A) (A) (A)
                 (A) (A) (A) (A) (A) (A) (A) (A) (A) (A) (A) (A)
       Virtual   (A) (A) (A) (A) (A) (A) (A) (A) (A) (A) (A) (A)
                 (A) (A) (A) (A) (A) (A) (A) (A) (A) (A) (A) (A)
                 (A) (A) (A) (A) (A) (A) (A) (A) (A) (A) (A) (A)
                 (A) (A) (A) (A) (A) (A) (A) (A) (A) (A) (A) (A)
                 (A) (A) (A) (A) (A) (A) (A) (A) (A) (A) (A) (A)
                 (A) (A) (A) (A) (A) (A) (A) (A) (A) (A) (A) (A)
                 (A) (A) (A) (A) (A) (A) (A) (A) (A) (A) (A) (A)
                 (A) (A) (A) (A) (A) (A) (A) (A) (A) (A) (A) (A)
                 (A) (A) (A) (A) (A) (A) (A) (A) (A) (A) (A) (A)
                 (A) (A) (A) (A) (A) (A) (A) (A) (A) (A) (A) (A)
                 (A) (A) (A) (A) (A) (A) (A) (A) (A) (A) (A) (A)
                 (A) (A) (A) (A) (A) (A) (A) (A) (A) (A) (A) (A)
                 (A) (A) (A) (A) (A) (A) (A) (A) (A) (A) (A) (A)
                 (A) (A) (A) (A) (A) (A) (A) (A) (A) (A) (A) (A)
                 (A) (A) (A) (A) (A) (A) (A) (A) (A) (A) (A) (A)
                 (A) (A) (A) (A) (A) (A) (A) (A) (A) (A) (A) (A)
                 (A) (A) (A) (A) (A) (A) (A) (A) (A) (A) (A) (A)
                 (A) (A) (A) (A) (A) (A) (A) (A) (A) (A) (A) (A)
                 (A) (A) (A) (A) (A) (A) (A) (A) (A) (A) (A) (A)
                 (A) (A) (A) (A) (A) (A) (A) (A) (A) (A) (A) (A)
                 (A) (A) (A) (A) (A) (A) (A) (A) (A) (A) (A) (A)
                 (A) (A) (A) (A) (A) (A) (A) (A) (A) (A) (A) (A)
                 (A) (A) (A) (A) (A) (A) (A) (A) (A) (A) (A) (A)
                 (A) (A) (A) (A) (A) (A) (A) (A) (A) (A) (A) (A)
                 (A) (A) (A) (A) (A) (A) (A) (A) (A) (A) (A) (A)
                 (A) (A) (A) (A) (A) (A) (A) (A) (A) (A) (A) (A)
                 (A) (A) (A) (A) (A) (A) (A) (A) (A) (A) (A) (A)
                 (A) (A) (A) (A) (A) (A) (A) (A) (A) (A) (A) (A)
                 (A) (A) (A) (A) (A) (A) (A) (A) (A) (A) (A) (A)
                 (A) (A) (A) (A) (A) (A) (A) (A) (A) (A) (A) (A)
                 (A) (A) (A) (A) (A) (A) (A) (A) (A) (A) (A) (A)
                 (A) (A) (A) (A) (A) (A) (A) (A) (A) (A) (A) (A)
                 (A) (A) (A) (A) (A) (A) (A) (A) (A) (A) (A) (A)
                 (A) (A) (A) (A) (A) (A) (A) (A) (A) (A) (A) (A)
                 (A) (A) (A) (A) (A) (A) (A) (A) (A) (A) (A) (A)
                 (A) (A) (A) (A) (A) (A) (A) (A) (A) (A) (A) (A)
                 (A) (A) (A) (A) (A) (A) (A) (A) (A) (A) (A) (A)
                 (A) (A) (A) (A) (A) (A) (A) (A) (A) (A) (A) (A)
                 (A) (A) (A) (A) (A) (A) (A) (A) (A) (A) (A) (A)
                 (A) (A) (A) (A) (A) (A) (A) (A) (A) (A)
    24 initial guesses have been made.
 Convergence on wavefunction:    0.001000000000000
 Iteration     1 Dimension    24 NMult     0 NNew     24
 CISAX will form    24 AO SS matrices at one time.
 New state      1 was old state      2
 New state      2 was old state      1
 New state      3 was old state      6
 New state      5 was old state      3
 New state      6 was old state     12
 New state      7 was old state      5
 New state      9 was old state      7
 New state     11 was old state      9
 New state     12 was old state     14
 Vector   6 SDiff=5.98D+00 TDiff=1.04D+01 assumed to be singlet.
 Vector  12 SDiff=5.89D+00 TDiff=9.65D+00 assumed to be singlet.
 Iteration     2 Dimension    36 NMult    24 NNew     12
 New state      6 was old state      7
 Iteration     3 Dimension    48 NMult    36 NNew     12
 Iteration     4 Dimension    60 NMult    48 NNew     12
 Iteration     5 Dimension    70 NMult    60 NNew     10
 Iteration     6 Dimension    78 NMult    70 NNew      8
 Iteration     7 Dimension    84 NMult    78 NNew      6
 Iteration     8 Dimension    86 NMult    84 NNew      2
 Iteration     9 Dimension    88 NMult    86 NNew      2
 ***********************************************************************
 Excited states from <AA,BB:AA,BB> singles matrix:
 ***********************************************************************
 
 Ground to excited state transition densities written to RWF  633
 Ground to excited state transition electric dipole moments (Au):
       state          X           Y           Z        Dip. S.      Osc.
         1        -0.0000     -0.0000      0.0000      0.0000      0.0000
         2         0.0582      0.1173      0.0052      0.0172      0.0013
         3        -0.0000      0.0000     -0.0000      0.0000      0.0000
         4         0.0000      0.0000      0.0000      0.0000      0.0000
         5        -0.2409      0.0882      0.0546      0.0688      0.0060
         6        -0.2245     -0.7832     -0.0851      0.6710      0.0621
 Ground to excited state transition velocity dipole moments (Au):
       state          X           Y           Z        Dip. S.      Osc.
         1         0.0000     -0.0000     -0.0000      0.0000      0.0000
         2        -0.0073     -0.0135     -0.0021      0.0002      0.0015
         3         0.0000     -0.0000     -0.0000      0.0000      0.0000
         4        -0.0000     -0.0000     -0.0000      0.0000      0.0000
         5         0.0319     -0.0100     -0.0051      0.0011      0.0058
         6         0.0361      0.1072      0.0109      0.0129      0.0620
 Ground to excited state transition magnetic dipole moments (Au):
       state          X           Y           Z
         1        -0.0000      0.0000      0.0000
         2        -0.1990      0.0899      0.1947
         3        -0.0000      0.0000      0.0000
         4        -0.0000      0.0000      0.0000
         5        -0.0122     -0.0512     -0.0316
         6         0.6733     -0.2536     -0.8632
 Ground to excited state transition velocity quadrupole moments (Au):
       state          XX          YY          ZZ          XY          XZ          YZ
         1        -0.0000     -0.0000      0.0000      0.0000     -0.0000     -0.0000
         2         0.0365     -0.0709     -0.0060      0.0447     -0.0298     -0.0102
         3        -0.0000     -0.0000     -0.0000      0.0000     -0.0000     -0.0000
         4         0.0000      0.0000     -0.0000     -0.0000     -0.0000      0.0000
         5         0.0412     -0.0948      0.0027     -0.0429      0.0089     -0.0175
         6        -0.3438      0.2834      0.0674     -0.2159      0.1286      0.0799
 <0|del|b> * <b|rxdel|0> + <0|del|b> * <b|delr+rdel|0>
 Rotatory Strengths (R) in cgs (10**-40 erg-esu-cm/Gauss)
       state          XX          YY          ZZ    R(velocity)    E-M Angle
         1        -0.0000     -0.0000      0.0000     -0.0000       90.00
         2        -6.8518      3.9016      1.8098     -0.3801       92.23
         3        -0.0000     -0.0000      0.0000     -0.0000       90.00
         4        -0.0000      0.0000      0.0000      0.0000       90.00
         5         2.6346     -2.7006      1.5853      0.5064       82.16
         6      -134.1607     51.4117     20.4706    -20.7594       95.49
 1/2[<0|r|b>*<b|rxdel|0> + (<0|rxdel|b>*<b|r|0>)*]
 Rotatory Strengths (R) in cgs (10**-40 erg-esu-cm/Gauss)
       state          XX          YY          ZZ     R(length)
         1        -0.0000      0.0000     -0.0000     -0.0000
         2         8.1868     -7.4554     -0.7165      0.0050
         3        -0.0000     -0.0000      0.0000     -0.0000
         4         0.0000     -0.0000     -0.0000      0.0000
         5        -2.0837      3.1908      1.2215      0.7762
         6       106.9046   -140.4429    -51.9216    -28.4867
  1/2[<0|del|b>*<b|r|0> + (<0|r|b>*<b|del|0>)*] (Au)
       state          X           Y           Z        Dip. S.   Osc.(frdel)
         1        -0.0000      0.0000     -0.0000      0.0000      0.0000
         2        -0.0004     -0.0016     -0.0000      0.0020      0.0013
         3        -0.0000     -0.0000      0.0000      0.0000      0.0000
         4        -0.0000     -0.0000     -0.0000      0.0000      0.0000
         5        -0.0077     -0.0009     -0.0003      0.0088      0.0059
         6        -0.0081     -0.0839     -0.0009      0.0930      0.0620

 Excitation energies and oscillator strengths:
 
 Excited State   1:      Triplet-A      2.7528 eV  450.40 nm  f=0.0000  <S**2>=2.000
      84 -> 85        -0.38445
      84 -> 87         0.40594
      84 -> 90        -0.38276
      84 -> 93         0.11075
 This state for optimization and/or second-order correction.
 Total Energy, E(TD-HF/TD-DFT) =  -961.024836418    
 Copying the excited state density for this state as the 1-particle RhoCI density.
 
 Excited State   2:      Singlet-A      2.9787 eV  416.24 nm  f=0.0013  <S**2>=0.000
      84 -> 85         0.70600
 
 Excited State   3:      Triplet-A      3.0532 eV  406.08 nm  f=0.0000  <S**2>=2.000
      84 -> 85         0.59101
      84 -> 87         0.27446
      84 -> 90        -0.23887
 
 Excited State   4:      Triplet-A      3.3498 eV  370.13 nm  f=0.0000  <S**2>=2.000
      79 -> 86        -0.27319
      80 -> 85         0.17086
      81 -> 85        -0.56491
      82 -> 85        -0.17866
      83 -> 85         0.13176
 
 Excited State   5:      Singlet-A      3.5826 eV  346.07 nm  f=0.0060  <S**2>=0.000
      84 -> 86         0.70608
 
 Excited State   6:      Singlet-A      3.7768 eV  328.28 nm  f=0.0621  <S**2>=0.000
      84 -> 87         0.69928
 SavETr:  write IOETrn=   770 NScale= 10 NData=  16 NLR=1 NState=    6 LETran=     118.

 **********************************************************************

            Population analysis using the SCF Density.

 **********************************************************************

 Orbital symmetries:
       Occupied  (A) (A) (A) (A) (A) (A) (A) (A) (A) (A) (A) (A)
                 (A) (A) (A) (A) (A) (A) (A) (A) (A) (A) (A) (A)
                 (A) (A) (A) (A) (A) (A) (A) (A) (A) (A) (A) (A)
                 (A) (A) (A) (A) (A) (A) (A) (A) (A) (A) (A) (A)
                 (A) (A) (A) (A) (A) (A) (A) (A) (A) (A) (A) (A)
                 (A) (A) (A) (A) (A) (A) (A) (A) (A) (A) (A) (A)
                 (A) (A) (A) (A) (A) (A) (A) (A) (A) (A) (A) (A)
       Virtual   (A) (A) (A) (A) (A) (A) (A) (A) (A) (A) (A) (A)
                 (A) (A) (A) (A) (A) (A) (A) (A) (A) (A) (A) (A)
                 (A) (A) (A) (A) (A) (A) (A) (A) (A) (A) (A) (A)
                 (A) (A) (A) (A) (A) (A) (A) (A) (A) (A) (A) (A)
                 (A) (A) (A) (A) (A) (A) (A) (A) (A) (A) (A) (A)
                 (A) (A) (A) (A) (A) (A) (A) (A) (A) (A) (A) (A)
                 (A) (A) (A) (A) (A) (A) (A) (A) (A) (A) (A) (A)
                 (A) (A) (A) (A) (A) (A) (A) (A) (A) (A) (A) (A)
                 (A) (A) (A) (A) (A) (A) (A) (A) (A) (A) (A) (A)
                 (A) (A) (A) (A) (A) (A) (A) (A) (A) (A) (A) (A)
                 (A) (A) (A) (A) (A) (A) (A) (A) (A) (A) (A) (A)
                 (A) (A) (A) (A) (A) (A) (A) (A) (A) (A) (A) (A)
                 (A) (A) (A) (A) (A) (A) (A) (A) (A) (A) (A) (A)
                 (A) (A) (A) (A) (A) (A) (A) (A) (A) (A) (A) (A)
                 (A) (A) (A) (A) (A) (A) (A) (A) (A) (A) (A) (A)
                 (A) (A) (A) (A) (A) (A) (A) (A) (A) (A) (A) (A)
                 (A) (A) (A) (A) (A) (A) (A) (A) (A) (A) (A) (A)
                 (A) (A) (A) (A) (A) (A) (A) (A) (A) (A) (A) (A)
                 (A) (A) (A) (A) (A) (A) (A) (A) (A) (A) (A) (A)
                 (A) (A) (A) (A) (A) (A) (A) (A) (A) (A) (A) (A)
                 (A) (A) (A) (A) (A) (A) (A) (A) (A) (A) (A) (A)
                 (A) (A) (A) (A) (A) (A) (A) (A) (A) (A) (A) (A)
                 (A) (A) (A) (A) (A) (A) (A) (A) (A) (A) (A) (A)
                 (A) (A) (A) (A) (A) (A) (A) (A) (A) (A) (A) (A)
                 (A) (A) (A) (A) (A) (A) (A) (A) (A) (A) (A) (A)
                 (A) (A) (A) (A) (A) (A) (A) (A) (A) (A) (A) (A)
                 (A) (A) (A) (A) (A) (A) (A) (A) (A) (A) (A) (A)
                 (A) (A) (A) (A) (A) (A) (A) (A) (A) (A) (A) (A)
                 (A) (A) (A) (A) (A) (A) (A) (A) (A) (A) (A) (A)
                 (A) (A) (A) (A) (A) (A) (A) (A) (A) (A) (A) (A)
                 (A) (A) (A) (A) (A) (A) (A) (A) (A) (A) (A) (A)
                 (A) (A) (A) (A) (A) (A) (A) (A) (A) (A) (A) (A)
                 (A) (A) (A) (A) (A) (A) (A) (A) (A) (A) (A) (A)
                 (A) (A) (A) (A) (A) (A) (A) (A) (A) (A) (A) (A)
                 (A) (A) (A) (A) (A) (A) (A) (A) (A) (A) (A) (A)
                 (A) (A) (A) (A) (A) (A) (A) (A) (A) (A) (A) (A)
                 (A) (A) (A) (A) (A) (A) (A) (A) (A) (A) (A) (A)
                 (A) (A) (A) (A) (A) (A) (A) (A) (A) (A) (A) (A)
                 (A) (A) (A) (A) (A) (A) (A) (A) (A) (A) (A) (A)
                 (A) (A) (A) (A) (A) (A) (A) (A) (A) (A)
 The electronic state is 1-A.
 Alpha  occ. eigenvalues --  -14.37389 -14.34108 -10.24144 -10.23321 -10.23302
 Alpha  occ. eigenvalues --  -10.22412 -10.22393 -10.22330 -10.22101 -10.22093
 Alpha  occ. eigenvalues --  -10.21125 -10.21020 -10.20744 -10.20609 -10.20489
 Alpha  occ. eigenvalues --  -10.20468 -10.20167 -10.19496 -10.19348 -10.19162
 Alpha  occ. eigenvalues --  -10.19128 -10.19020 -10.18543 -10.18457  -0.96796
 Alpha  occ. eigenvalues --   -0.91083  -0.88336  -0.87031  -0.81795  -0.81205
 Alpha  occ. eigenvalues --   -0.78710  -0.77491  -0.77012  -0.76019  -0.72069
 Alpha  occ. eigenvalues --   -0.71225  -0.69189  -0.68824  -0.64078  -0.63559
 Alpha  occ. eigenvalues --   -0.63233  -0.62067  -0.58009  -0.57090  -0.56433
 Alpha  occ. eigenvalues --   -0.52701  -0.50577  -0.49539  -0.48929  -0.48608
 Alpha  occ. eigenvalues --   -0.48001  -0.46555  -0.46185  -0.45367  -0.44358
 Alpha  occ. eigenvalues --   -0.44046  -0.43408  -0.42865  -0.42415  -0.42022
 Alpha  occ. eigenvalues --   -0.41590  -0.41305  -0.40890  -0.40813  -0.39898
 Alpha  occ. eigenvalues --   -0.39755  -0.38710  -0.37658  -0.37131  -0.36822
 Alpha  occ. eigenvalues --   -0.36193  -0.36015  -0.34908  -0.34341  -0.33951
 Alpha  occ. eigenvalues --   -0.33700  -0.33315  -0.32661  -0.27660  -0.26989
 Alpha  occ. eigenvalues --   -0.26086  -0.24694  -0.24039  -0.18653
 Alpha virt. eigenvalues --   -0.05652  -0.03334  -0.02171  -0.01507  -0.00848
 Alpha virt. eigenvalues --   -0.00588   0.00148   0.00640   0.00945   0.01666
 Alpha virt. eigenvalues --    0.01881   0.02070   0.02579   0.02695   0.03044
 Alpha virt. eigenvalues --    0.03295   0.03756   0.04293   0.04522   0.05071
 Alpha virt. eigenvalues --    0.05191   0.05579   0.05666   0.06107   0.06452
 Alpha virt. eigenvalues --    0.06816   0.07009   0.07296   0.07882   0.08043
 Alpha virt. eigenvalues --    0.08175   0.08553   0.08755   0.09405   0.09737
 Alpha virt. eigenvalues --    0.09972   0.10038   0.10307   0.11353   0.11508
 Alpha virt. eigenvalues --    0.11757   0.12070   0.12457   0.12675   0.12913
 Alpha virt. eigenvalues --    0.13277   0.13759   0.13836   0.14104   0.14596
 Alpha virt. eigenvalues --    0.14718   0.15026   0.15324   0.15598   0.16054
 Alpha virt. eigenvalues --    0.16305   0.16762   0.17193   0.17311   0.17562
 Alpha virt. eigenvalues --    0.17857   0.18222   0.18329   0.18683   0.18765
 Alpha virt. eigenvalues --    0.19479   0.19658   0.19896   0.20138   0.20586
 Alpha virt. eigenvalues --    0.20717   0.20830   0.21254   0.21487   0.21650
 Alpha virt. eigenvalues --    0.22017   0.22329   0.22596   0.22607   0.22975
 Alpha virt. eigenvalues --    0.23219   0.23711   0.23855   0.23951   0.24085
 Alpha virt. eigenvalues --    0.24386   0.24685   0.24844   0.25167   0.25508
 Alpha virt. eigenvalues --    0.25581   0.26113   0.26265   0.26446   0.26489
 Alpha virt. eigenvalues --    0.26617   0.27073   0.27313   0.27713   0.27750
 Alpha virt. eigenvalues --    0.27934   0.28228   0.28604   0.29082   0.29288
 Alpha virt. eigenvalues --    0.29562   0.29703   0.29948   0.30385   0.30483
 Alpha virt. eigenvalues --    0.30747   0.30876   0.31343   0.31828   0.32326
 Alpha virt. eigenvalues --    0.32564   0.32923   0.33190   0.33863   0.34121
 Alpha virt. eigenvalues --    0.34782   0.34909   0.35689   0.36075   0.36374
 Alpha virt. eigenvalues --    0.36746   0.37052   0.37512   0.37887   0.38549
 Alpha virt. eigenvalues --    0.39665   0.40288   0.40720   0.41577   0.41747
 Alpha virt. eigenvalues --    0.41966   0.43384   0.43874   0.44661   0.45731
 Alpha virt. eigenvalues --    0.46111   0.48204   0.48585   0.51952   0.54324
 Alpha virt. eigenvalues --    0.56020   0.57494   0.59926   0.60468   0.64209
 Alpha virt. eigenvalues --    0.65633   0.66488   0.67186   0.67706   0.68439
 Alpha virt. eigenvalues --    0.68876   0.69216   0.70361   0.70650   0.71147
 Alpha virt. eigenvalues --    0.71598   0.71838   0.72209   0.73092   0.73315
 Alpha virt. eigenvalues --    0.73616   0.73997   0.74771   0.75212   0.75554
 Alpha virt. eigenvalues --    0.76812   0.76911   0.77262   0.77822   0.78391
 Alpha virt. eigenvalues --    0.78987   0.79441   0.79924   0.80065   0.80679
 Alpha virt. eigenvalues --    0.81328   0.81840   0.82391   0.83105   0.84088
 Alpha virt. eigenvalues --    0.84467   0.85235   0.85802   0.86522   0.87520
 Alpha virt. eigenvalues --    0.88085   0.88730   0.89745   0.89931   0.90483
 Alpha virt. eigenvalues --    0.90790   0.91607   0.91881   0.92745   0.93405
 Alpha virt. eigenvalues --    0.93937   0.94464   0.94577   0.95109   0.95924
 Alpha virt. eigenvalues --    0.97306   0.98039   0.98628   0.99247   0.99806
 Alpha virt. eigenvalues --    1.00351   1.01250   1.01451   1.02235   1.02459
 Alpha virt. eigenvalues --    1.03421   1.03766   1.04001   1.04621   1.05320
 Alpha virt. eigenvalues --    1.06550   1.07359   1.08987   1.09885   1.10411
 Alpha virt. eigenvalues --    1.11210   1.11692   1.12356   1.14052   1.14356
 Alpha virt. eigenvalues --    1.15367   1.15638   1.16457   1.17871   1.18428
 Alpha virt. eigenvalues --    1.18857   1.19667   1.20103   1.21908   1.22404
 Alpha virt. eigenvalues --    1.23120   1.24617   1.25244   1.25453   1.26170
 Alpha virt. eigenvalues --    1.26188   1.27325   1.27624   1.28133   1.29893
 Alpha virt. eigenvalues --    1.30750   1.30915   1.31559   1.32302   1.33456
 Alpha virt. eigenvalues --    1.36372   1.37280   1.37479   1.38041   1.38865
 Alpha virt. eigenvalues --    1.39891   1.39933   1.40580   1.41171   1.42805
 Alpha virt. eigenvalues --    1.43471   1.44590   1.46023   1.46653   1.48076
 Alpha virt. eigenvalues --    1.49610   1.51331   1.53304   1.53379   1.55441
 Alpha virt. eigenvalues --    1.56057   1.58439   1.60618   1.62014   1.66163
 Alpha virt. eigenvalues --    1.67279   1.68467   1.69920   1.71662   1.72437
 Alpha virt. eigenvalues --    1.74388   1.75397   1.76166   1.77960   1.78333
 Alpha virt. eigenvalues --    1.79237   1.79928   1.80672   1.81249   1.81826
 Alpha virt. eigenvalues --    1.82386   1.83442   1.83724   1.84667   1.85532
 Alpha virt. eigenvalues --    1.86583   1.87773   1.88833   1.89857   1.90840
 Alpha virt. eigenvalues --    1.91761   1.92502   1.92955   1.93699   1.94563
 Alpha virt. eigenvalues --    1.95419   1.96010   1.96870   1.97349   1.99119
 Alpha virt. eigenvalues --    1.99943   2.01630   2.01831   2.02714   2.03384
 Alpha virt. eigenvalues --    2.04147   2.04558   2.05226   2.05650   2.06074
 Alpha virt. eigenvalues --    2.06308   2.06975   2.07531   2.07969   2.09079
 Alpha virt. eigenvalues --    2.10091   2.10924   2.11586   2.13071   2.13475
 Alpha virt. eigenvalues --    2.13961   2.15750   2.16210   2.17100   2.17869
 Alpha virt. eigenvalues --    2.18160   2.19138   2.20455   2.22421   2.24419
 Alpha virt. eigenvalues --    2.25604   2.26454   2.27286   2.28550   2.28767
 Alpha virt. eigenvalues --    2.29036   2.29441   2.31174   2.31889   2.33943
 Alpha virt. eigenvalues --    2.35219   2.36517   2.38193   2.38877   2.39810
 Alpha virt. eigenvalues --    2.40215   2.42242   2.42809   2.43585   2.43906
 Alpha virt. eigenvalues --    2.44155   2.45167   2.45645   2.46212   2.46983
 Alpha virt. eigenvalues --    2.48068   2.49332   2.51491   2.51950   2.52639
 Alpha virt. eigenvalues --    2.54490   2.55113   2.56950   2.57420   2.58141
 Alpha virt. eigenvalues --    2.58551   2.59191   2.59948   2.60922   2.61512
 Alpha virt. eigenvalues --    2.62150   2.62889   2.63842   2.64555   2.64751
 Alpha virt. eigenvalues --    2.65533   2.67513   2.69470   2.69843   2.70103
 Alpha virt. eigenvalues --    2.72226   2.73053   2.73863   2.74465   2.76382
 Alpha virt. eigenvalues --    2.76930   2.77770   2.78368   2.80579   2.80915
 Alpha virt. eigenvalues --    2.82445   2.83011   2.84073   2.85534   2.86105
 Alpha virt. eigenvalues --    2.86710   2.87352   2.88839   2.89148   2.89959
 Alpha virt. eigenvalues --    2.91116   2.92632   2.96511   3.00827   3.04618
 Alpha virt. eigenvalues --    3.05592   3.06283   3.07828   3.09010   3.09645
 Alpha virt. eigenvalues --    3.19280   3.21091   3.23025   3.24094   3.24290
 Alpha virt. eigenvalues --    3.25124   3.26586   3.27286   3.28022   3.28502
 Alpha virt. eigenvalues --    3.32994   3.33813   3.36881   3.38865   3.39916
 Alpha virt. eigenvalues --    3.42419   3.43225   3.44029   3.44987   3.47811
 Alpha virt. eigenvalues --    3.47962   3.50148   3.50230   3.51900   3.53027
 Alpha virt. eigenvalues --    3.54786   3.69158   3.72370   3.82375   4.25319
 Alpha virt. eigenvalues --    4.30945   4.32270   4.33209   4.34391   4.39652
 Alpha virt. eigenvalues --    4.41777   4.41916   4.44667   4.49082   4.50220
 Alpha virt. eigenvalues --    4.51398   4.51908   4.53920   4.55870   4.57460
 Alpha virt. eigenvalues --    4.59692   4.61134   4.62609   4.66341   4.73129
 Alpha virt. eigenvalues --    4.85020   4.88995   4.92342
          Condensed to atoms (all electrons):
               1          2          3          4          5          6
     1  C    6.971443  -0.497575  -0.037652   0.178020  -0.081655  -0.373102
     2  C   -0.497575  11.144055  -2.422908   0.810397   0.145865  -0.443440
     3  C   -0.037652  -2.422908  18.377778  -5.596454  -0.976596  -2.666715
     4  C    0.178020   0.810397  -5.596454  13.497370  -0.462432   1.073870
     5  C   -0.081655   0.145865  -0.976596  -0.462432   8.456947  -0.277263
     6  C   -0.373102  -0.443440  -2.666715   1.073870  -0.277263   8.554387
     7  C   -0.008501  -0.530607  -1.002408  -0.327336  -0.389829   1.876294
     8  C    0.029826   0.234270   0.194375   0.658667  -0.069514  -2.161321
     9  N    0.002056   0.029426  -0.024577  -0.031142   0.025055  -0.018053
    10  C    0.000430   0.005233  -0.025097  -0.017971   0.022598  -0.026587
    11  C   -0.001133  -0.016830   0.037960  -0.099049  -0.002728   0.028090
    12  C    0.002735  -0.000504  -0.002322   0.030846   0.015782   0.091187
    13  C   -0.042109  -0.210349  -0.565371  -0.496550   0.163709   0.511215
    14  C   -0.802929  -3.601863   3.489059  -2.675923  -1.452138   0.928104
    15  C   -0.183544  -0.388499   1.660108  -2.855947  -0.548945  -1.413321
    16  C   -0.058600  -0.374330  -0.095111   0.313178   0.002137  -0.200277
    17  C   -0.033396  -0.176923  -0.281299  -0.110353  -0.012376   0.861497
    18  C    0.001318  -0.016020   0.062305  -0.052593  -0.012029  -0.146306
    19  C    0.002726  -0.009659  -0.044181   0.080958   0.012167   0.089244
    20  C   -0.000212  -0.013073  -0.003472   0.015835   0.001987   0.035503
    21  N   -0.000002   0.000030   0.000011  -0.000108  -0.000005  -0.000160
    22  C   -0.011254  -0.006168   0.155801  -0.245682  -0.003882  -0.129614
    23  C    0.088710   0.340341   0.143905   0.388540   0.036525  -0.432965
    24  C   -0.072700   1.898793  -3.742324   1.792824   0.428583   0.102997
    25  H    0.542648  -0.105550  -0.047434   0.011163  -0.002723  -0.006235
    26  H    0.446630  -0.137434   0.019468   0.006405   0.001671  -0.002354
    27  H    0.471282  -0.149884   0.087817  -0.028543  -0.000307  -0.011192
    28  H   -0.019134   0.071861   0.179437  -0.006362  -0.002102   0.026384
    29  H   -0.006869  -0.010951  -0.017196  -0.185265   0.559830   0.010164
    30  H   -0.000290  -0.008591   0.010944  -0.092102   0.453191  -0.011409
    31  H   -0.000104  -0.016195  -0.013609  -0.119924   0.513222  -0.033838
    32  H    0.000368   0.010346   0.035343   0.027786  -0.015469   0.014862
    33  H    0.000005   0.000280  -0.000288   0.002463   0.000382  -0.001653
    34  H   -0.000002  -0.000333  -0.000082  -0.005464  -0.002393   0.005162
    35  H    0.000000   0.000016   0.000050   0.000677  -0.000065  -0.002556
    36  H   -0.000001  -0.000049   0.000014   0.000091  -0.000410  -0.003699
    37  H    0.000006   0.000201  -0.000271  -0.001660   0.000903   0.002962
    38  H   -0.000054  -0.011339  -0.020008  -0.084029  -0.015110   0.041665
    39  H    0.000204   0.020588   0.007265   0.054580   0.068361  -0.050314
    40  H    0.004243   0.078365   0.005140  -0.006304  -0.000828  -0.038117
    41  H   -0.002994  -0.042839   0.010919  -0.033104  -0.000329  -0.000420
    42  H   -0.000017  -0.000938   0.001056   0.002432  -0.000098   0.001949
    43  H   -0.000001   0.000009   0.000017  -0.000078   0.000003  -0.000960
    44  H   -0.000033  -0.000734   0.000248   0.000165  -0.000008  -0.000570
    45  H   -0.003152   0.016630  -0.010290   0.003948   0.002094   0.027600
    46  H    0.013462   0.007104   0.107658   0.003908   0.002743  -0.053613
               7          8          9         10         11         12
     1  C   -0.008501   0.029826   0.002056   0.000430  -0.001133   0.002735
     2  C   -0.530607   0.234270   0.029426   0.005233  -0.016830  -0.000504
     3  C   -1.002408   0.194375  -0.024577  -0.025097   0.037960  -0.002322
     4  C   -0.327336   0.658667  -0.031142  -0.017971  -0.099049   0.030846
     5  C   -0.389829  -0.069514   0.025055   0.022598  -0.002728   0.015782
     6  C    1.876294  -2.161321  -0.018053  -0.026587   0.028090   0.091187
     7  C   11.679326  -3.760053  -0.348895  -0.161827   0.166161   0.078284
     8  C   -3.760053  15.753968   0.202798  -0.025088  -0.824194   0.031669
     9  N   -0.348895   0.202798   7.022084   0.120540   0.317981  -0.098397
    10  C   -0.161827  -0.025088   0.120540   5.261713  -0.126397   0.048484
    11  C    0.166161  -0.824194   0.317981  -0.126397   5.619199   0.395593
    12  C    0.078284   0.031669  -0.098397   0.048484   0.395593   5.764239
    13  C   -0.876120  -2.596253   0.004123  -0.031172  -0.005552  -0.354474
    14  C    0.149647  -0.057867  -0.071956  -0.038508  -0.015325   0.071627
    15  C    0.756844  -0.365345   0.064219  -0.018013   0.095738  -0.088404
    16  C   -0.473752  -0.530176   0.026086  -0.012228   0.019484  -0.088333
    17  C    0.619283  -0.896840  -0.020749   0.001452   0.040742   0.289073
    18  C   -0.108210   0.117688   0.039284  -0.002586  -0.003347  -0.124062
    19  C   -0.028495  -0.087226  -0.008657  -0.001914   0.000676   0.039239
    20  C   -0.082772  -0.040291   0.001105  -0.000392   0.002521   0.011389
    21  N    0.000901  -0.000095  -0.000009   0.000001   0.000036   0.000268
    22  C   -0.101336  -0.303926   0.006958  -0.000898   0.026940   0.056098
    23  C   -0.124906   0.590331  -0.032578  -0.000020  -0.050979  -0.163920
    24  C   -0.708861   0.543533   0.011093   0.002367  -0.025155  -0.026768
    25  H    0.000106  -0.000181   0.000000  -0.000000  -0.000000  -0.000000
    26  H    0.000643  -0.000204   0.000000   0.000001   0.000001  -0.000003
    27  H    0.000593   0.000249  -0.000000  -0.000000  -0.000001   0.000013
    28  H   -0.000344   0.001633  -0.000006   0.000009  -0.000001   0.000123
    29  H    0.005770  -0.002317  -0.000004   0.000029   0.000826  -0.000551
    30  H    0.008473  -0.014352  -0.000137  -0.000100   0.000462   0.012435
    31  H    0.005923   0.020878   0.002002   0.001216   0.000552  -0.009894
    32  H    0.010023   0.225912  -0.079198  -0.043165   0.020223  -0.016220
    33  H   -0.018420   0.019885  -0.053371   0.410700   0.002217  -0.005543
    34  H    0.043102  -0.049736  -0.073592   0.410886  -0.000431   0.013850
    35  H   -0.026526   0.022542  -0.055152   0.426726  -0.002950  -0.004166
    36  H   -0.000005   0.026285  -0.091454  -0.021472   0.348179   0.005883
    37  H    0.031101   0.031208   0.008032  -0.001512   0.016202   0.326370
    38  H   -0.127487  -0.044211   0.017095   0.000761  -0.010164  -0.020220
    39  H   -0.083288   0.062630   0.010364   0.002622   0.000108  -0.031037
    40  H   -0.007778   0.000256  -0.000008   0.000072  -0.000122  -0.000408
    41  H    0.058229  -0.027531   0.002898   0.000385   0.002998   0.001259
    42  H    0.011710  -0.032031   0.003151   0.000273   0.008945  -0.009225
    43  H    0.000129   0.000521  -0.000180  -0.000009  -0.000245   0.001191
    44  H   -0.000502   0.000154   0.000002   0.000001   0.000020   0.000159
    45  H   -0.006994  -0.005333  -0.000005   0.000006   0.000396   0.001363
    46  H    0.001373  -0.013052   0.000008  -0.000046  -0.000029   0.000015
              13         14         15         16         17         18
     1  C   -0.042109  -0.802929  -0.183544  -0.058600  -0.033396   0.001318
     2  C   -0.210349  -3.601863  -0.388499  -0.374330  -0.176923  -0.016020
     3  C   -0.565371   3.489059   1.660108  -0.095111  -0.281299   0.062305
     4  C   -0.496550  -2.675923  -2.855947   0.313178  -0.110353  -0.052593
     5  C    0.163709  -1.452138  -0.548945   0.002137  -0.012376  -0.012029
     6  C    0.511215   0.928104  -1.413321  -0.200277   0.861497  -0.146306
     7  C   -0.876120   0.149647   0.756844  -0.473752   0.619283  -0.108210
     8  C   -2.596253  -0.057867  -0.365345  -0.530176  -0.896840   0.117688
     9  N    0.004123  -0.071956   0.064219   0.026086  -0.020749   0.039284
    10  C   -0.031172  -0.038508  -0.018013  -0.012228   0.001452  -0.002586
    11  C   -0.005552  -0.015325   0.095738   0.019484   0.040742  -0.003347
    12  C   -0.354474   0.071627  -0.088404  -0.088333   0.289073  -0.124062
    13  C   10.018639  -0.608776  -0.194729   0.638449   0.107109  -0.002458
    14  C   -0.608776  14.417328   0.135752  -0.184115   0.702958  -0.076075
    15  C   -0.194729   0.135752  15.063762  -3.138611  -1.097816   0.683501
    16  C    0.638449  -0.184115  -3.138611  15.914692  -4.399880   1.492932
    17  C    0.107109   0.702958  -1.097816  -4.399880  18.275368  -4.835795
    18  C   -0.002458  -0.076075   0.683501   1.492932  -4.835795  11.884399
    19  C    0.067344  -0.208879  -0.619685  -1.371935   1.978993  -1.173148
    20  C    0.074178  -0.034929  -0.612359  -1.039648   0.578879  -0.257756
    21  N   -0.000947   0.000262   0.007920   0.053532  -0.013016   0.000476
    22  C    0.173366   0.134012   0.969788   1.059939  -1.294511  -2.259107
    23  C   -0.254460  -1.573832  -0.583420  -2.355657  -3.610043   0.739561
    24  C   -0.060280  -2.284099  -2.232883   0.233770  -0.963443   0.028234
    25  H    0.000059  -0.018599  -0.000508  -0.000696  -0.000096  -0.000002
    26  H    0.000174   0.013314  -0.003708   0.000940   0.000070  -0.000008
    27  H   -0.000315   0.016199   0.005031  -0.002294  -0.000194   0.000031
    28  H   -0.001900  -0.005666   0.001515  -0.000321  -0.000047  -0.000030
    29  H    0.011967  -0.010781   0.000275  -0.000073   0.000025   0.000006
    30  H   -0.016480  -0.000498  -0.000725   0.000009   0.000171  -0.000202
    31  H    0.020916  -0.019138  -0.000570   0.000221  -0.000498   0.000104
    32  H   -0.010840   0.093558   0.012343  -0.009232   0.004802  -0.000379
    33  H    0.000596   0.001805  -0.003960   0.000741   0.000508  -0.000415
    34  H   -0.000722   0.000055   0.002323   0.000310  -0.000540   0.000227
    35  H   -0.002844   0.000493  -0.000373  -0.000737   0.000983  -0.000222
    36  H    0.038676   0.000063   0.000175  -0.001948   0.001763  -0.000342
    37  H   -0.091346  -0.002076   0.000212  -0.003704   0.002233   0.001281
    38  H    0.528659  -0.039046   0.035951   0.086339  -0.039596   0.045200
    39  H    0.321002  -0.058091  -0.027138  -0.025955   0.008002  -0.007203
    40  H   -0.002632  -0.238386   0.483689  -0.103022  -0.137971  -0.002945
    41  H   -0.003317   0.033113   0.648392  -0.239181   0.004857   0.021662
    42  H    0.012796   0.006326   0.001333   0.160992   0.098389   0.075678
    43  H   -0.000138  -0.002136   0.001271   0.015180   0.010183   0.170942
    44  H    0.000479   0.004442  -0.001326   0.026980  -0.010644   0.058625
    45  H    0.010856  -0.028295  -0.009517   0.171207   0.131371  -0.041519
    46  H    0.000823  -0.083183   0.032034  -0.052240  -0.004532   0.002321
              19         20         21         22         23         24
     1  C    0.002726  -0.000212  -0.000002  -0.011254   0.088710  -0.072700
     2  C   -0.009659  -0.013073   0.000030  -0.006168   0.340341   1.898793
     3  C   -0.044181  -0.003472   0.000011   0.155801   0.143905  -3.742324
     4  C    0.080958   0.015835  -0.000108  -0.245682   0.388540   1.792824
     5  C    0.012167   0.001987  -0.000005  -0.003882   0.036525   0.428583
     6  C    0.089244   0.035503  -0.000160  -0.129614  -0.432965   0.102997
     7  C   -0.028495  -0.082772   0.000901  -0.101336  -0.124906  -0.708861
     8  C   -0.087226  -0.040291  -0.000095  -0.303926   0.590331   0.543533
     9  N   -0.008657   0.001105  -0.000009   0.006958  -0.032578   0.011093
    10  C   -0.001914  -0.000392   0.000001  -0.000898  -0.000020   0.002367
    11  C    0.000676   0.002521   0.000036   0.026940  -0.050979  -0.025155
    12  C    0.039239   0.011389   0.000268   0.056098  -0.163920  -0.026768
    13  C    0.067344   0.074178  -0.000947   0.173366  -0.254460  -0.060280
    14  C   -0.208879  -0.034929   0.000262   0.134012  -1.573832  -2.284099
    15  C   -0.619685  -0.612359   0.007920   0.969788  -0.583420  -2.232883
    16  C   -1.371935  -1.039648   0.053532   1.059939  -2.355657   0.233770
    17  C    1.978993   0.578879  -0.013016  -1.294511  -3.610043  -0.963443
    18  C   -1.173148  -0.257756   0.000476  -2.259107   0.739561   0.028234
    19  C   10.863118  -4.791350   0.815357  -1.805079   1.663521   0.106188
    20  C   -4.791350  13.240966  -0.616910  -0.058395  -0.151795   0.001909
    21  N    0.815357  -0.616910   7.364777  -0.036001  -0.033129  -0.000060
    22  C   -1.805079  -0.058395  -0.036001  17.036492  -7.194567  -0.195440
    23  C    1.663521  -0.151795  -0.033129  -7.194567  17.440750   1.265358
    24  C    0.106188   0.001909  -0.000060  -0.195440   1.265358   9.420153
    25  H    0.000005   0.000000  -0.000000   0.000163   0.000770  -0.018954
    26  H    0.000016   0.000000  -0.000000   0.000106   0.000011   0.002794
    27  H   -0.000077  -0.000004   0.000000  -0.000517   0.001815  -0.042252
    28  H    0.000019  -0.000000  -0.000000  -0.000090   0.000046   0.038418
    29  H   -0.000017  -0.000001   0.000000  -0.000004  -0.000402  -0.003159
    30  H    0.000199   0.000015   0.000000   0.000956   0.000898   0.001028
    31  H   -0.000017  -0.000000  -0.000000  -0.000266  -0.000021   0.001651
    32  H   -0.000100  -0.000015   0.000000   0.000687  -0.002489   0.003505
    33  H    0.000040   0.000001   0.000000  -0.000030   0.000054   0.000667
    34  H   -0.000019   0.000000  -0.000000   0.000015  -0.000020  -0.000227
    35  H    0.000032  -0.000003   0.000000  -0.000012  -0.000067   0.000029
    36  H    0.000242  -0.000029   0.000000   0.000022  -0.000106   0.000000
    37  H   -0.000078  -0.000133   0.000001   0.000256   0.000121  -0.000242
    38  H   -0.010125   0.005827  -0.000037   0.010659  -0.046669  -0.002813
    39  H    0.003613  -0.000332   0.000002  -0.006416   0.018481   0.005307
    40  H   -0.008456  -0.001550   0.000000   0.038241   0.095805   0.140868
    41  H   -0.008213  -0.000350   0.000001   0.030742  -0.030650  -0.127287
    42  H   -0.045349  -0.009416   0.000031  -0.001400   0.005488  -0.000823
    43  H    0.113211  -0.049238   0.000971   0.050411  -0.006672   0.000381
    44  H    0.080153  -0.046412   0.000782   0.250597  -0.056356  -0.000681
    45  H   -0.021939  -0.000330   0.000011  -0.028201   0.103599  -0.014142
    46  H   -0.000763   0.000066   0.000000   0.024381   0.038178   0.254187
              25         26         27         28         29         30
     1  C    0.542648   0.446630   0.471282  -0.019134  -0.006869  -0.000290
     2  C   -0.105550  -0.137434  -0.149884   0.071861  -0.010951  -0.008591
     3  C   -0.047434   0.019468   0.087817   0.179437  -0.017196   0.010944
     4  C    0.011163   0.006405  -0.028543  -0.006362  -0.185265  -0.092102
     5  C   -0.002723   0.001671  -0.000307  -0.002102   0.559830   0.453191
     6  C   -0.006235  -0.002354  -0.011192   0.026384   0.010164  -0.011409
     7  C    0.000106   0.000643   0.000593  -0.000344   0.005770   0.008473
     8  C   -0.000181  -0.000204   0.000249   0.001633  -0.002317  -0.014352
     9  N    0.000000   0.000000  -0.000000  -0.000006  -0.000004  -0.000137
    10  C   -0.000000   0.000001  -0.000000   0.000009   0.000029  -0.000100
    11  C   -0.000000   0.000001  -0.000001  -0.000001   0.000826   0.000462
    12  C   -0.000000  -0.000003   0.000013   0.000123  -0.000551   0.012435
    13  C    0.000059   0.000174  -0.000315  -0.001900   0.011967  -0.016480
    14  C   -0.018599   0.013314   0.016199  -0.005666  -0.010781  -0.000498
    15  C   -0.000508  -0.003708   0.005031   0.001515   0.000275  -0.000725
    16  C   -0.000696   0.000940  -0.002294  -0.000321  -0.000073   0.000009
    17  C   -0.000096   0.000070  -0.000194  -0.000047   0.000025   0.000171
    18  C   -0.000002  -0.000008   0.000031  -0.000030   0.000006  -0.000202
    19  C    0.000005   0.000016  -0.000077   0.000019  -0.000017   0.000199
    20  C    0.000000   0.000000  -0.000004  -0.000000  -0.000001   0.000015
    21  N   -0.000000  -0.000000   0.000000  -0.000000   0.000000   0.000000
    22  C    0.000163   0.000106  -0.000517  -0.000090  -0.000004   0.000956
    23  C    0.000770   0.000011   0.001815   0.000046  -0.000402   0.000898
    24  C   -0.018954   0.002794  -0.042252   0.038418  -0.003159   0.001028
    25  H    0.546955  -0.026562  -0.026563   0.003956  -0.000001  -0.000000
    26  H   -0.026562   0.545004  -0.031374   0.000141  -0.000000  -0.000000
    27  H   -0.026563  -0.031374   0.546983   0.000101   0.000000  -0.000000
    28  H    0.003956   0.000141   0.000101   0.596080   0.003073   0.000298
    29  H   -0.000001  -0.000000   0.000000   0.003073   0.555050  -0.027969
    30  H   -0.000000  -0.000000  -0.000000   0.000298  -0.027969   0.550823
    31  H    0.000000  -0.000000  -0.000000   0.000129  -0.025128  -0.030175
    32  H    0.000000  -0.000000   0.000000   0.000000  -0.000001  -0.000001
    33  H    0.000000   0.000000  -0.000000   0.000000  -0.000000   0.000000
    34  H    0.000000  -0.000000   0.000000  -0.000000   0.000000  -0.000000
    35  H    0.000000   0.000000  -0.000000  -0.000000   0.000000   0.000000
    36  H   -0.000000  -0.000000  -0.000000   0.000000  -0.000000   0.000000
    37  H    0.000000   0.000000  -0.000000   0.000000  -0.000000   0.000003
    38  H   -0.000000  -0.000000   0.000000  -0.000000  -0.000003   0.000061
    39  H   -0.000000   0.000000  -0.000000   0.000005   0.000088   0.001478
    40  H    0.000000  -0.000004   0.000000  -0.000000  -0.000000  -0.000000
    41  H   -0.000000  -0.000000   0.000000  -0.000000   0.000000   0.000001
    42  H    0.000000  -0.000000   0.000000  -0.000000   0.000000  -0.000000
    43  H    0.000000  -0.000000  -0.000000  -0.000000   0.000000   0.000000
    44  H    0.000000  -0.000000   0.000000   0.000000   0.000000   0.000000
    45  H    0.000000   0.000000  -0.000007   0.000000   0.000000   0.000000
    46  H    0.000117   0.000872   0.001169  -0.000204  -0.000000   0.000000
              31         32         33         34         35         36
     1  C   -0.000104   0.000368   0.000005  -0.000002   0.000000  -0.000001
     2  C   -0.016195   0.010346   0.000280  -0.000333   0.000016  -0.000049
     3  C   -0.013609   0.035343  -0.000288  -0.000082   0.000050   0.000014
     4  C   -0.119924   0.027786   0.002463  -0.005464   0.000677   0.000091
     5  C    0.513222  -0.015469   0.000382  -0.002393  -0.000065  -0.000410
     6  C   -0.033838   0.014862  -0.001653   0.005162  -0.002556  -0.003699
     7  C    0.005923   0.010023  -0.018420   0.043102  -0.026526  -0.000005
     8  C    0.020878   0.225912   0.019885  -0.049736   0.022542   0.026285
     9  N    0.002002  -0.079198  -0.053371  -0.073592  -0.055152  -0.091454
    10  C    0.001216  -0.043165   0.410700   0.410886   0.426726  -0.021472
    11  C    0.000552   0.020223   0.002217  -0.000431  -0.002950   0.348179
    12  C   -0.009894  -0.016220  -0.005543   0.013850  -0.004166   0.005883
    13  C    0.020916  -0.010840   0.000596  -0.000722  -0.002844   0.038676
    14  C   -0.019138   0.093558   0.001805   0.000055   0.000493   0.000063
    15  C   -0.000570   0.012343  -0.003960   0.002323  -0.000373   0.000175
    16  C    0.000221  -0.009232   0.000741   0.000310  -0.000737  -0.001948
    17  C   -0.000498   0.004802   0.000508  -0.000540   0.000983   0.001763
    18  C    0.000104  -0.000379  -0.000415   0.000227  -0.000222  -0.000342
    19  C   -0.000017  -0.000100   0.000040  -0.000019   0.000032   0.000242
    20  C   -0.000000  -0.000015   0.000001   0.000000  -0.000003  -0.000029
    21  N   -0.000000   0.000000   0.000000  -0.000000   0.000000   0.000000
    22  C   -0.000266   0.000687  -0.000030   0.000015  -0.000012   0.000022
    23  C   -0.000021  -0.002489   0.000054  -0.000020  -0.000067  -0.000106
    24  C    0.001651   0.003505   0.000667  -0.000227   0.000029   0.000000
    25  H    0.000000   0.000000   0.000000   0.000000   0.000000  -0.000000
    26  H   -0.000000  -0.000000   0.000000  -0.000000   0.000000  -0.000000
    27  H   -0.000000   0.000000  -0.000000   0.000000  -0.000000  -0.000000
    28  H    0.000129   0.000000   0.000000  -0.000000  -0.000000   0.000000
    29  H   -0.025128  -0.000001  -0.000000   0.000000   0.000000  -0.000000
    30  H   -0.030175  -0.000001   0.000000  -0.000000   0.000000   0.000000
    31  H    0.533566  -0.000209  -0.000000   0.000009  -0.000000   0.000000
    32  H   -0.000209   0.602865   0.003093  -0.000420   0.000247  -0.000154
    33  H   -0.000000   0.003093   0.557244  -0.038099  -0.021224   0.000210
    34  H    0.000009  -0.000420  -0.038099   0.583353  -0.038136  -0.000364
    35  H   -0.000000   0.000247  -0.021224  -0.038136   0.555443   0.002672
    36  H    0.000000  -0.000154   0.000210  -0.000364   0.002672   0.584379
    37  H   -0.000008   0.000013   0.000003  -0.000008  -0.000004  -0.006805
    38  H    0.000059  -0.000190  -0.000002   0.000005  -0.000001  -0.000165
    39  H   -0.000804  -0.000144   0.000001  -0.000012   0.000001  -0.000131
    40  H    0.000000   0.000026   0.000000  -0.000000   0.000000   0.000000
    41  H   -0.000003   0.000534  -0.000007   0.000000  -0.000000   0.000000
    42  H    0.000000   0.000010  -0.000002   0.000000  -0.000001  -0.000001
    43  H   -0.000000   0.000000  -0.000000  -0.000000   0.000000   0.000000
    44  H   -0.000000  -0.000000  -0.000000  -0.000000   0.000000  -0.000000
    45  H   -0.000000  -0.000000   0.000000   0.000000  -0.000000  -0.000000
    46  H   -0.000000   0.000002  -0.000000   0.000000  -0.000000   0.000000
              37         38         39         40         41         42
     1  C    0.000006  -0.000054   0.000204   0.004243  -0.002994  -0.000017
     2  C    0.000201  -0.011339   0.020588   0.078365  -0.042839  -0.000938
     3  C   -0.000271  -0.020008   0.007265   0.005140   0.010919   0.001056
     4  C   -0.001660  -0.084029   0.054580  -0.006304  -0.033104   0.002432
     5  C    0.000903  -0.015110   0.068361  -0.000828  -0.000329  -0.000098
     6  C    0.002962   0.041665  -0.050314  -0.038117  -0.000420   0.001949
     7  C    0.031101  -0.127487  -0.083288  -0.007778   0.058229   0.011710
     8  C    0.031208  -0.044211   0.062630   0.000256  -0.027531  -0.032031
     9  N    0.008032   0.017095   0.010364  -0.000008   0.002898   0.003151
    10  C   -0.001512   0.000761   0.002622   0.000072   0.000385   0.000273
    11  C    0.016202  -0.010164   0.000108  -0.000122   0.002998   0.008945
    12  C    0.326370  -0.020220  -0.031037  -0.000408   0.001259  -0.009225
    13  C   -0.091346   0.528659   0.321002  -0.002632  -0.003317   0.012796
    14  C   -0.002076  -0.039046  -0.058091  -0.238386   0.033113   0.006326
    15  C    0.000212   0.035951  -0.027138   0.483689   0.648392   0.001333
    16  C   -0.003704   0.086339  -0.025955  -0.103022  -0.239181   0.160992
    17  C    0.002233  -0.039596   0.008002  -0.137971   0.004857   0.098389
    18  C    0.001281   0.045200  -0.007203  -0.002945   0.021662   0.075678
    19  C   -0.000078  -0.010125   0.003613  -0.008456  -0.008213  -0.045349
    20  C   -0.000133   0.005827  -0.000332  -0.001550  -0.000350  -0.009416
    21  N    0.000001  -0.000037   0.000002   0.000000   0.000001   0.000031
    22  C    0.000256   0.010659  -0.006416   0.038241   0.030742  -0.001400
    23  C    0.000121  -0.046669   0.018481   0.095805  -0.030650   0.005488
    24  C   -0.000242  -0.002813   0.005307   0.140868  -0.127287  -0.000823
    25  H    0.000000  -0.000000  -0.000000   0.000000  -0.000000   0.000000
    26  H    0.000000  -0.000000   0.000000  -0.000004  -0.000000  -0.000000
    27  H   -0.000000   0.000000  -0.000000   0.000000   0.000000   0.000000
    28  H    0.000000  -0.000000   0.000005  -0.000000  -0.000000  -0.000000
    29  H   -0.000000  -0.000003   0.000088  -0.000000   0.000000   0.000000
    30  H    0.000003   0.000061   0.001478  -0.000000   0.000001  -0.000000
    31  H   -0.000008   0.000059  -0.000804   0.000000  -0.000003   0.000000
    32  H    0.000013  -0.000190  -0.000144   0.000026   0.000534   0.000010
    33  H    0.000003  -0.000002   0.000001   0.000000  -0.000007  -0.000002
    34  H   -0.000008   0.000005  -0.000012  -0.000000   0.000000   0.000000
    35  H   -0.000004  -0.000001   0.000001   0.000000  -0.000000  -0.000001
    36  H   -0.006805  -0.000165  -0.000131   0.000000   0.000000  -0.000001
    37  H    0.569437  -0.001243  -0.002043  -0.000000  -0.000000  -0.000001
    38  H   -0.001243   0.591577  -0.049003  -0.000024  -0.000020   0.000041
    39  H   -0.002043  -0.049003   0.622507   0.000001  -0.000000  -0.000001
    40  H   -0.000000  -0.000024   0.000001   0.578215  -0.033245   0.000318
    41  H   -0.000000  -0.000020  -0.000000  -0.033245   0.585405   0.005259
    42  H   -0.000001   0.000041  -0.000001   0.000318   0.005259   0.589075
    43  H   -0.000001  -0.000021   0.000000   0.000002  -0.000005  -0.005230
    44  H   -0.000000  -0.000002   0.000000  -0.000000   0.000002   0.000016
    45  H    0.000000   0.000038   0.000003   0.000447   0.000026  -0.000174
    46  H    0.000000   0.000001  -0.000000   0.004325   0.000279  -0.000000
              43         44         45         46
     1  C   -0.000001  -0.000033  -0.003152   0.013462
     2  C    0.000009  -0.000734   0.016630   0.007104
     3  C    0.000017   0.000248  -0.010290   0.107658
     4  C   -0.000078   0.000165   0.003948   0.003908
     5  C    0.000003  -0.000008   0.002094   0.002743
     6  C   -0.000960  -0.000570   0.027600  -0.053613
     7  C    0.000129  -0.000502  -0.006994   0.001373
     8  C    0.000521   0.000154  -0.005333  -0.013052
     9  N   -0.000180   0.000002  -0.000005   0.000008
    10  C   -0.000009   0.000001   0.000006  -0.000046
    11  C   -0.000245   0.000020   0.000396  -0.000029
    12  C    0.001191   0.000159   0.001363   0.000015
    13  C   -0.000138   0.000479   0.010856   0.000823
    14  C   -0.002136   0.004442  -0.028295  -0.083183
    15  C    0.001271  -0.001326  -0.009517   0.032034
    16  C    0.015180   0.026980   0.171207  -0.052240
    17  C    0.010183  -0.010644   0.131371  -0.004532
    18  C    0.170942   0.058625  -0.041519   0.002321
    19  C    0.113211   0.080153  -0.021939  -0.000763
    20  C   -0.049238  -0.046412  -0.000330   0.000066
    21  N    0.000971   0.000782   0.000011   0.000000
    22  C    0.050411   0.250597  -0.028201   0.024381
    23  C   -0.006672  -0.056356   0.103599   0.038178
    24  C    0.000381  -0.000681  -0.014142   0.254187
    25  H    0.000000   0.000000   0.000000   0.000117
    26  H   -0.000000  -0.000000   0.000000   0.000872
    27  H   -0.000000   0.000000  -0.000007   0.001169
    28  H   -0.000000   0.000000   0.000000  -0.000204
    29  H    0.000000   0.000000   0.000000  -0.000000
    30  H    0.000000   0.000000   0.000000   0.000000
    31  H   -0.000000  -0.000000  -0.000000  -0.000000
    32  H    0.000000  -0.000000  -0.000000   0.000002
    33  H   -0.000000  -0.000000   0.000000  -0.000000
    34  H   -0.000000  -0.000000   0.000000   0.000000
    35  H    0.000000   0.000000  -0.000000  -0.000000
    36  H    0.000000  -0.000000  -0.000000   0.000000
    37  H   -0.000001  -0.000000   0.000000   0.000000
    38  H   -0.000021  -0.000002   0.000038   0.000001
    39  H    0.000000   0.000000   0.000003  -0.000000
    40  H    0.000002  -0.000000   0.000447   0.004325
    41  H   -0.000005   0.000002   0.000026   0.000279
    42  H   -0.005230   0.000016  -0.000174  -0.000000
    43  H    0.557644  -0.000148   0.000016  -0.000000
    44  H   -0.000148   0.555413  -0.005138  -0.000000
    45  H    0.000016  -0.005138   0.569954  -0.000252
    46  H   -0.000000  -0.000000  -0.000252   0.611009
 Mulliken charges:
               1
     1  C   -0.519096
     2  C    0.379773
     3  C   -0.991013
     4  C    0.580253
     5  C   -0.584522
     6  C    0.222914
     7  C   -0.198662
     8  C   -0.862139
     9  N    0.091759
    10  C   -0.161504
    11  C    0.032380
    12  C   -0.244723
    13  C   -0.274996
    14  C   -0.005008
    15  C   -0.272829
    16  C    0.544939
    17  C    0.221847
    18  C   -0.303015
    19  C    0.328301
    20  C   -0.159013
    21  N   -0.544891
    22  C   -0.343836
    23  C   -0.257084
    24  C    0.237961
    25  H    0.148163
    26  H    0.163389
    27  H    0.162244
    28  H    0.112980
    29  H    0.143589
    30  H    0.161589
    31  H    0.169956
    32  H    0.111678
    33  H    0.142121
    34  H    0.151302
    35  H    0.145126
    36  H    0.118480
    37  H    0.120593
    38  H    0.157642
    39  H    0.134700
    40  H    0.151785
    41  H    0.142534
    42  H    0.119438
    43  H    0.142980
    44  H    0.144315
    45  H    0.135720
    46  H    0.101880
 Sum of Mulliken charges =  -0.00000
 Mulliken charges with hydrogens summed into heavy atoms:
               1
     1  C   -0.045300
     2  C    0.379773
     3  C   -0.878033
     4  C    0.580253
     5  C   -0.109389
     6  C    0.222914
     7  C   -0.198662
     8  C   -0.750461
     9  N    0.091759
    10  C    0.277046
    11  C    0.150860
    12  C   -0.124130
    13  C    0.017346
    14  C   -0.005008
    15  C    0.021490
    16  C    0.544939
    17  C    0.341285
    18  C   -0.160035
    19  C    0.328301
    20  C   -0.159013
    21  N   -0.544891
    22  C   -0.199521
    23  C   -0.121364
    24  C    0.339840
 Electronic spatial extent (au):  <R**2>=           8639.3618
 Charge=             -0.0000 electrons
 Dipole moment (field-independent basis, Debye):
    X=             -5.8116    Y=              1.5785    Z=             -2.5736  Tot=              6.5490
 Quadrupole moment (field-independent basis, Debye-Ang):
   XX=           -182.2696   YY=           -126.4379   ZZ=           -141.6039
   XY=              7.6040   XZ=            -10.2059   YZ=             -3.6138
 Traceless Quadrupole moment (field-independent basis, Debye-Ang):
   XX=            -32.1658   YY=             23.6659   ZZ=              8.4999
   XY=              7.6040   XZ=            -10.2059   YZ=             -3.6138
 Octapole moment (field-independent basis, Debye-Ang**2):
  XXX=           -333.5204  YYY=             44.1762  ZZZ=             -9.7611  XYY=            -22.7432
  XXY=             49.8462  XXZ=            -66.1171  XZZ=            -24.5022  YZZ=             12.3668
  YYZ=            -22.0814  XYZ=             13.3806
 Hexadecapole moment (field-independent basis, Debye-Ang**3):
 XXXX=          -8790.8319 YYYY=          -4100.7940 ZZZZ=          -1169.4928 XXXY=            442.1655
 XXXZ=           -573.7883 YYYX=             18.6387 YYYZ=            -93.0854 ZZZX=            -11.6645
 ZZZY=            -17.0021 XXYY=          -1829.3026 XXZZ=          -1395.9993 YYZZ=           -924.9932
 XXYZ=             17.6419 YYXZ=             51.1312 ZZXY=             22.9756
 N-N= 1.916529430282D+03 E-N=-6.057141945638D+03  KE= 9.517551232299D+02
 Unable to Open any file for archive entry.
 1\1\GINC-N1\SP\RB3LYP TD-FC\6-31+G(d,p)\C22H22N2\HPCMGAC13\26-Aug-2025
 \0\\# td=(50-50,nstates=3) b3lyp/6-31+g(d,p) geom=connectivity\\Title 
 Card Required\\0,1\C,0,3.51286,-4.092014,0.255374\C,0,2.873482,-2.7287
 07,0.122742\C,0,3.342477,-1.789367,-0.797227\C,0,2.766546,-0.517225,-0
 .926006\C,0,3.343958,0.444854,-1.941204\C,0,1.67264,-0.158796,-0.10485
 6\C,0,1.044627,1.192695,-0.241501\C,0,1.284534,2.15165,0.67491\N,0,0.7
 1554,3.429464,0.654185\C,0,1.368688,4.491941,1.406108\C,0,-0.012777,3.
 772096,-0.490705\C,0,-0.309293,2.896878,-1.464726\C,0,0.116837,1.44802
 3,-1.423215\C,0,1.182351,-1.104749,0.83019\C,0,-0.006821,-0.805003,1.7
 31888\C,0,-1.366352,-0.847477,1.047748\C,0,-2.320772,0.147807,1.302845
 \C,0,-3.586529,0.102061,0.722375\C,0,-3.923174,-0.957469,-0.136433\C,0
 ,-5.223267,-1.013491,-0.740337\N,0,-6.278618,-1.059515,-1.230085\C,0,-
 2.974364,-1.96092,-0.403052\C,0,-1.71342,-1.897756,0.182733\C,0,1.7908
 39,-2.361109,0.930583\H,0,4.353927,-4.205654,-0.434545\H,0,3.888326,-4
 .259269,1.271737\H,0,2.79473,-4.892361,0.040864\H,0,4.191306,-2.044294
 ,-1.428568\H,0,4.370966,0.168728,-2.197152\H,0,2.764768,0.440416,-2.87
 3096\H,0,3.344605,1.472748,-1.568166\H,0,1.947056,1.967325,1.516132\H,
 0,1.648342,4.12081,2.395959\H,0,2.273879,4.872212,0.906853\H,0,0.67176
 2,5.323597,1.541817\H,0,-0.341183,4.80602,-0.528991\H,0,-0.905183,3.24
 016,-2.30488\H,0,-0.761944,0.785426,-1.358328\H,0,0.609682,1.164066,-2
 .366025\H,0,-0.013164,-1.544115,2.543554\H,0,0.107289,0.172305,2.20717
 5\H,0,-2.066489,0.97658,1.957507\H,0,-4.312737,0.882541,0.924422\H,0,-
 3.231003,-2.77884,-1.068416\H,0,-0.983983,-2.67062,-0.040071\H,0,1.412
 168,-3.070961,1.664111\\Version=ES64L-G16RevC.02\State=1-A\HF=-961.125
 9993\RMSD=8.833e-09\PG=C01 [X(C22H22N2)]\\@
 The archive entry for this job was punched.


 Any fool can criticize, condemn, and complain -- and most do.
 -- Dale Carnegie
 Job cpu time:       0 days  2 hours 57 minutes 13.6 seconds.
 Elapsed time:       0 days  0 hours 11 minutes 20.7 seconds.
 File lengths (MBytes):  RWF=   1636 Int=      0 D2E=      0 Chk=     81 Scr=      2
 Normal termination of Gaussian 16 at Tue Aug 26 09:10:57 2025.
