 Entering Gaussian System, Link 0=g16
 Input=M714E.gjf
 Output=M714E.log
 Initial command:
 /hpc/softwares/Gaussian/g16/l1.exe "/hpc/home/hpcmgac13/pbs.13478.admin1.x8z/Gau-461358.inp" -scrdir="/hpc/home/hpcmgac13/pbs.13478.admin1.x8z/"
 Default linda workers: n1
 Default is to use  16 SMP processors on each worker.
 Entering Link 1 = /hpc/softwares/Gaussian/g16/l1.exe PID=    461359.
  
 Copyright (c) 1988-2021, Gaussian, Inc.  All Rights Reserved.
  
 This is part of the Gaussian(R) 16 program.  It is based on
 the Gaussian(R) 09 system (copyright 2009, Gaussian, Inc.),
 the Gaussian(R) 03 system (copyright 2003, Gaussian, Inc.),
 the Gaussian(R) 98 system (copyright 1998, Gaussian, Inc.),
 the Gaussian(R) 94 system (copyright 1995, Gaussian, Inc.),
 the Gaussian 92(TM) system (copyright 1992, Gaussian, Inc.),
 the Gaussian 90(TM) system (copyright 1990, Gaussian, Inc.),
 the Gaussian 88(TM) system (copyright 1988, Gaussian, Inc.),
 the Gaussian 86(TM) system (copyright 1986, Carnegie Mellon
 University), and the Gaussian 82(TM) system (copyright 1983,
 Carnegie Mellon University). Gaussian is a federally registered
 trademark of Gaussian, Inc.
  
 This software contains proprietary and confidential information,
 including trade secrets, belonging to Gaussian, Inc.
  
 This software is provided under written license and may be
 used, copied, transmitted, or stored only in accord with that
 written license.
  
 The following legend is applicable only to US Government
 contracts under FAR:
  
                    RESTRICTED RIGHTS LEGEND
  
 Use, reproduction and disclosure by the US Government is
 subject to restrictions as set forth in subparagraphs (a)
 and (c) of the Commercial Computer Software - Restricted
 Rights clause in FAR 52.227-19.
  
 Gaussian, Inc.
 340 Quinnipiac St., Bldg. 40, Wallingford CT 06492
  
  
 ---------------------------------------------------------------
 Warning -- This program may not be used in any manner that
 competes with the business of Gaussian, Inc. or will provide
 assistance to any competitor of Gaussian, Inc.  The licensee
 of this program is prohibited from giving any competitor of
 Gaussian, Inc. access to this program.  By using this program,
 the user acknowledges that Gaussian, Inc. is engaged in the
 business of creating and licensing software in the field of
 computational chemistry and represents and warrants to the
 licensee that it is not a competitor of Gaussian, Inc. and that
 it will not use this program in any manner prohibited above.
 ---------------------------------------------------------------
  

 Cite this work as:
 Gaussian 16, Revision C.02,
 M. J. Frisch, G. W. Trucks, H. B. Schlegel, G. E. Scuseria, 
 M. A. Robb, J. R. Cheeseman, G. Scalmani, V. Barone, 
 G. A. Petersson, H. Nakatsuji, X. Li, M. Caricato, A. V. Marenich, 
 J. Bloino, B. G. Janesko, R. Gomperts, B. Mennucci, H. P. Hratchian, 
 J. V. Ortiz, A. F. Izmaylov, J. L. Sonnenberg, D. Williams-Young, 
 F. Ding, F. Lipparini, F. Egidi, J. Goings, B. Peng, A. Petrone, 
 T. Henderson, D. Ranasinghe, V. G. Zakrzewski, J. Gao, N. Rega, 
 G. Zheng, W. Liang, M. Hada, M. Ehara, K. Toyota, R. Fukuda, 
 J. Hasegawa, M. Ishida, T. Nakajima, Y. Honda, O. Kitao, H. Nakai, 
 T. Vreven, K. Throssell, J. A. Montgomery, Jr., J. E. Peralta, 
 F. Ogliaro, M. J. Bearpark, J. J. Heyd, E. N. Brothers, K. N. Kudin, 
 V. N. Staroverov, T. A. Keith, R. Kobayashi, J. Normand, 
 K. Raghavachari, A. P. Rendell, J. C. Burant, S. S. Iyengar, 
 J. Tomasi, M. Cossi, J. M. Millam, M. Klene, C. Adamo, R. Cammi, 
 J. W. Ochterski, R. L. Martin, K. Morokuma, O. Farkas, 
 J. B. Foresman, and D. J. Fox, Gaussian, Inc., Wallingford CT, 2019.
 
 ******************************************
 Gaussian 16:  ES64L-G16RevC.02  7-Dec-2021
                26-Aug-2025 
 ******************************************
 SetLPE:    new flags="-opt 'Tsnet.Node.lindarsharg: ssh'  -nodelist 'n1' -env GAUSS_MDEF=4294967296 -env GAUSS_EXEDIR="/hpc/softwares/Gaussian/g16/bsd:/hpc/softwares/Gaussian/g16""
 Will use up to    1 processors via Linda.
 ----------------------------------------------------------
 # td=(50-50,nstates=3) b3lyp/6-31+g(d,p) geom=connectivity
 ----------------------------------------------------------
 1/38=1,57=2,172=1/1;
 2/12=2,17=6,18=5,40=1/2;
 3/5=1,6=6,7=111,11=9,25=1,30=1,74=-5/1,2,3,8;
 4//1;
 5/5=2,38=5/2;
 8/6=1,10=2,108=3/1;
 9/41=3,42=1,48=2,70=2/14;
 6/7=2,8=2,9=2,10=2/1;
 99/5=1,9=1/99;
 -------------------
 Title Card Required
 -------------------
 Symbolic Z-matrix:
 Charge =  0 Multiplicity = 1
 C                    -5.78181  -1.14461  -1.24118 
 C                    -4.6815   -1.44259  -0.2037 
 C                    -5.29335  -1.91692   1.129 
 C                    -3.74474  -0.2563   -0.01103 
 C                    -4.20647   0.97047   0.48828 
 C                    -3.32929   2.044     0.65229 
 C                    -1.97882   1.91302   0.32171 
 C                    -1.48603   0.69931  -0.17837 
 C                    -0.01675   0.52235  -0.5393 
 C                     0.43201   1.49936  -1.64122 
 C                     0.87736   0.62273   0.73331 
 C                     2.32253   0.23642   0.50808 
 C                     3.33504   1.20447   0.42624 
 C                     4.66397   0.84692   0.20785 
 C                     5.00898  -0.50738   0.06591 
 C                     6.37457  -0.88588  -0.15794 
 N                     7.48245  -1.19346  -0.34076 
 C                     4.00669  -1.49043   0.14988 
 C                     2.6851   -1.11424   0.36973 
 C                    -2.38487  -0.36577  -0.33442 
 H                    -6.40011  -2.03314  -1.41228 
 H                    -6.44281  -0.34005  -0.89946 
 H                    -5.35099  -0.83828  -2.19996 
 H                    -4.07391  -2.26804  -0.59798 
 H                    -4.51468  -2.16074   1.85909 
 H                    -5.9082   -2.81067   0.97345 
 H                    -5.93444  -1.14491   1.56948 
 H                    -5.25384   1.09361   0.75011 
 H                    -3.70016   2.98943   1.03896 
 H                    -1.31377   2.76234   0.45321 
 H                     0.09814  -0.49606  -0.933 
 H                     1.46718   1.30775  -1.94059 
 H                    -0.20296   1.39834  -2.52679 
 H                     0.36723   2.53979  -1.303 
 H                     0.82848   1.64543   1.12464 
 H                     0.44713  -0.02824   1.50346 
 H                     3.08034   2.25466   0.5391 
 H                     5.43583   1.60726   0.1489 
 H                     4.27205  -2.53767   0.04858 
 H                     1.92081  -1.88362   0.44296 
 H                    -2.01423  -1.31249  -0.72437 
 
                          Input orientation:                          
 ---------------------------------------------------------------------
 Center     Atomic      Atomic             Coordinates (Angstroms)
 Number     Number       Type             X           Y           Z
 ---------------------------------------------------------------------
      1          6           0       -5.781814   -1.144613   -1.241184
      2          6           0       -4.681502   -1.442590   -0.203702
      3          6           0       -5.293353   -1.916922    1.129002
      4          6           0       -3.744742   -0.256295   -0.011029
      5          6           0       -4.206468    0.970468    0.488281
      6          6           0       -3.329291    2.044003    0.652294
      7          6           0       -1.978817    1.913020    0.321713
      8          6           0       -1.486027    0.699306   -0.178368
      9          6           0       -0.016747    0.522352   -0.539297
     10          6           0        0.432007    1.499359   -1.641218
     11          6           0        0.877355    0.622732    0.733311
     12          6           0        2.322531    0.236415    0.508077
     13          6           0        3.335042    1.204471    0.426244
     14          6           0        4.663974    0.846921    0.207849
     15          6           0        5.008981   -0.507384    0.065907
     16          6           0        6.374568   -0.885876   -0.157935
     17          7           0        7.482448   -1.193460   -0.340760
     18          6           0        4.006695   -1.490434    0.149876
     19          6           0        2.685102   -1.114243    0.369732
     20          6           0       -2.384865   -0.365768   -0.334420
     21          1           0       -6.400110   -2.033141   -1.412277
     22          1           0       -6.442809   -0.340046   -0.899462
     23          1           0       -5.350992   -0.838279   -2.199958
     24          1           0       -4.073911   -2.268038   -0.597977
     25          1           0       -4.514676   -2.160742    1.859090
     26          1           0       -5.908203   -2.810671    0.973445
     27          1           0       -5.934442   -1.144912    1.569475
     28          1           0       -5.253835    1.093611    0.750107
     29          1           0       -3.700157    2.989429    1.038964
     30          1           0       -1.313769    2.762338    0.453213
     31          1           0        0.098138   -0.496059   -0.932996
     32          1           0        1.467177    1.307748   -1.940587
     33          1           0       -0.202955    1.398339   -2.526785
     34          1           0        0.367230    2.539791   -1.303002
     35          1           0        0.828479    1.645427    1.124640
     36          1           0        0.447131   -0.028238    1.503461
     37          1           0        3.080343    2.254660    0.539097
     38          1           0        5.435829    1.607260    0.148899
     39          1           0        4.272047   -2.537674    0.048578
     40          1           0        1.920813   -1.883621    0.442961
     41          1           0       -2.014230   -1.312494   -0.724366
 ---------------------------------------------------------------------
                    Distance matrix (angstroms):
                    1          2          3          4          5
     1  C    0.000000
     2  C    1.541378   0.000000
     3  C    2.540243   1.541250   0.000000
     4  C    2.540089   1.523791   2.540777   0.000000
     5  C    3.153781   2.554867   3.151010   1.402658   0.000000
     6  C    4.446054   3.836344   4.446765   2.429808   1.396000
     7  C    5.123920   4.340586   5.128969   2.816937   2.424578
     8  C    4.794101   3.847002   4.801000   2.458245   2.814027
     9  C    6.042137   5.072826   6.047797   3.844906   4.337106
    10  C    6.764775   6.072025   7.219754   4.815088   5.131271
    11  C    7.167055   6.003702   6.684613   4.763456   5.101590
    12  C    8.405210   7.237552   7.938772   6.109340   6.570164
    13  C    9.561149   8.465739   9.202509   7.242126   7.545395
    14  C   10.732213   9.630636  10.374763   8.483602   8.875734
    15  C   10.888333   9.739238  10.452514   8.757661   9.342748
    16  C   12.207293  11.070172  11.783872  10.139940  10.762060
    17  N   13.294879  12.167273  12.880399  11.271060  11.916403
    18  C    9.892904   8.695520   9.361168   7.850717   8.580595
    19  C    8.618854   7.396181   8.054597   6.497996   7.200959
    20  C    3.601122   2.539916   3.606520   1.402081   2.404288
    21  H    1.095922   2.182434   2.774260   3.488790   4.176823
    22  H    1.095909   2.191321   2.814685   2.841812   2.940153
    23  H    1.094850   2.190536   3.499824   2.776717   3.436296
    24  H    2.143066   1.098173   2.143077   2.121313   3.418399
    25  H    3.499979   2.190590   1.094904   2.777960   3.431994
    26  H    2.774222   2.182227   1.095913   3.489210   4.174721
    27  H    2.814800   2.191490   1.095906   2.842960   2.937636
    28  H    3.041981   2.769410   3.034540   2.163085   1.086598
    29  H    5.159716   4.706384   5.159328   3.411627   2.153092
    30  H    6.172412   5.427208   6.179745   3.903498   3.402901
    31  H    5.923634   4.926738   5.944650   3.959196   4.764490
    32  H    7.684472   6.956104   8.094791   5.773519   6.180890
    33  H    6.264427   5.790076   7.089985   4.648774   5.030091
    34  H    7.168640   6.523612   7.603889   5.137665   5.156567
    35  H    7.554960   6.454474   7.082879   5.081401   5.119689
    36  H    6.897762   5.587278   6.054792   4.462901   4.866620
    37  H    9.657240   8.629464   9.373840   7.293101   7.399280
    38  H   11.633600  10.572904  11.335599   9.369167   9.669259
    39  H   10.231531   9.023796   9.646218   8.335295   9.186164
    40  H    7.919150   6.648552   7.246789   5.912090   6.759545
    41  H    3.806570   2.720727   3.814833   2.149204   3.389445
                    6          7          8          9         10
     6  C    0.000000
     7  C    1.396503   0.000000
     8  C    2.428133   1.402150   0.000000
     9  C    3.835135   2.554411   1.523275   0.000000
    10  C    4.438941   3.136285   2.541431   1.539530   0.000000
    11  C    4.440996   3.161008   2.534284   1.558533   2.570058
    12  C    5.935593   4.620317   3.897511   2.578948   3.128670
    13  C    6.720807   5.361909   4.885023   3.554159   3.576167
    14  C    8.094617   6.728759   6.163884   4.751076   4.664147
    15  C    8.739577   7.399535   6.610666   5.165711   5.281097
    16  C   10.168852   8.822864   8.018864   6.555719   6.572937
    17  N   11.329652   9.980212   9.167468   7.695541   7.658406
    18  C    8.158515   6.887625   5.922221   4.551302   4.992522
    19  C    6.799065   5.560465   4.581232   3.287060   3.993904
    20  C    2.769935   2.405880   1.402371   2.537462   3.622318
    21  H    5.505950   6.174685   5.756475   6.931087   7.694725
    22  H    4.217301   5.147310   5.115654   6.493668   7.155187
    23  H    4.531023   5.029914   4.624819   5.750068   6.262573
    24  H    4.550971   4.766182   3.959589   4.924459   5.965310
    25  H    4.532259   5.038814   4.637222   5.760436   7.079419
    26  H    5.506522   6.178842   5.762140   6.935898   8.100067
    27  H    4.218674   5.153138   5.122938   6.499677   7.604761
    28  H    2.148647   3.403042   3.900502   5.423651   6.181575
    29  H    1.086686   2.153164   3.410122   4.705835   5.145723
    30  H    2.148946   1.086702   2.164409   2.772162   3.004911
    31  H    4.551080   3.419313   2.123191   1.097888   2.143534
    32  H    5.501928   4.166441   3.492425   2.186891   1.094492
    33  H    4.505264   3.395957   2.765860   2.179939   1.094354
    34  H    4.211087   2.921725   2.843721   2.191060   1.095940
    35  H    4.203454   2.932100   2.819559   2.178162   2.797945
    36  H    4.390903   3.324189   2.663638   2.165916   3.496110
    37  H    6.414094   5.075340   4.877050   3.708880   3.512540
    38  H    8.790420   7.422960   6.988818   5.601895   5.315486
    39  H    8.895874   7.678319   6.609460   5.301237   5.822281
    40  H    6.560003   5.443923   4.320199   3.241555   4.243218
    41  H    3.858841   3.391088   2.150454   2.718612   3.838126
                   11         12         13         14         15
    11  C    0.000000
    12  C    1.512781   0.000000
    13  C    2.544196   1.403213   0.000000
    14  C    3.829472   2.438280   1.393413   0.000000
    15  C    4.335081   2.822369   2.421232   1.404749   0.000000
    16  C    5.769711   4.257008   3.734907   2.462218   1.434639
    17  N    6.933934   5.421237   4.851736   3.522488   2.598868
    18  C    3.820816   2.438591   2.791059   2.428704   1.406419
    19  C    2.533223   1.405302   2.408745   2.790753   2.420950
    20  C    3.572011   4.819959   5.980100   7.172921   7.406030
    21  H    8.038576   9.215374  10.422834  11.547013  11.605185
    22  H    7.561593   8.896328   9.987462  11.224779  11.493626
    23  H    7.037821   8.208007   9.301449  10.437288  10.610027
    24  H    5.885908   6.957737   8.246207   9.311442   9.275752
    25  H    6.171637   7.370142   8.660010   9.798992   9.831029
    26  H    7.608529   8.788986  10.092491  11.213164  11.194359
    27  H    7.086911   8.438734   9.630676  10.869584  11.064613
    28  H    6.149268   7.628544   8.595696   9.935685  10.409453
    29  H    5.162199   6.643320   7.283922   8.674087   9.435233
    30  H    3.075287   4.427863   4.902971   6.281913   7.128692
    31  H    2.153010   2.749752   3.900882   4.894076   5.011418
    32  H    2.822564   2.806304   3.016865   3.879130   4.457028
    33  H    3.520918   4.115645   4.612525   5.609749   6.125203
    34  H    2.842871   3.522606   3.685279   4.859063   5.718832
    35  H    1.096099   2.144215   2.639139   4.023573   4.819970
    36  H    1.096351   2.139616   3.319638   4.497364   4.806934
    37  H    2.748466   2.156051   1.086510   2.144608   3.401829
    38  H    4.700055   3.420650   2.156957   1.085058   2.158890
    39  H    4.688386   3.421596   3.876114   3.410932   2.159965
    40  H    2.730369   2.158743   3.396562   3.877637   3.401908
    41  H    3.772424   4.767130   6.022767   7.080290   7.113243
                   16         17         18         19         20
    16  C    0.000000
    17  N    1.164230   0.000000
    18  C    2.463140   3.522751   0.000000
    19  C    3.733998   4.850320   1.391569   0.000000
    20  C    8.776635   9.901968   6.507800   5.173066   0.000000
    21  H   12.887280  13.949144  10.537383   9.303817   4.479297
    22  H   12.850406  13.962566  10.564878   9.248189   4.097175
    23  H   11.902138  12.972276   9.670229   8.441461   3.535733
    24  H   10.548683  11.609062   8.152309   6.924735   2.557532
    25  H   11.147614  12.235439   8.716908   7.426315   3.545351
    26  H   12.484043  13.551828  10.036259   8.779933   4.483522
    27  H   12.432328  13.552280  10.047928   8.702693   4.102606
    28  H   11.830582  12.985900   9.633015   8.249001   3.396612
    29  H   10.860508  12.018771   8.958528   7.619680   3.856621
    30  H    8.531910   9.677405   6.818022   5.570082   3.398920
    31  H    6.336107   7.440776   4.175908   2.961695   2.557454
    32  H    5.663243   6.708127   4.318450   3.561875   4.496516
    33  H    7.354787   8.400092   5.764606   4.800391   3.560796
    34  H    7.009599   8.092552   5.621323   4.639239   4.117578
    35  H    6.229895   7.381191   4.569994   3.410676   4.061938
    36  H    6.215327   7.365771   4.079302   2.733727   3.392924
    37  H    4.604426   5.660584   3.877544   3.396234   6.123575
    38  H    2.681624   3.503205   3.411471   3.875802   8.080204
    39  H    2.681731   3.502166   1.085074   2.155850   7.012727
    40  H    4.603532   5.658827   2.142755   1.086942   4.631097
    41  H    8.418716   9.505168   6.086666   4.829086   1.088907
                   21         22         23         24         25
    21  H    0.000000
    22  H    1.769569   0.000000
    23  H    1.774482   1.769630   0.000000
    24  H    2.475775   3.069157   2.498297   0.000000
    25  H    3.777960   3.826518   4.350196   2.498592   0.000000
    26  H    2.556989   3.146041   3.777738   2.475570   1.774455
    27  H    3.145893   2.646110   3.826626   3.069338   1.769611
    28  H    3.970696   2.487993   3.527679   3.809230   3.516676
    29  H    6.206814   4.729169   5.278941   5.519078   5.278287
    30  H    7.235160   6.145044   6.025191   5.833358   6.038130
    31  H    6.694741   6.542893   5.604938   4.545123   5.643134
    32  H    8.563577   8.146597   7.152631   6.729971   7.889901
    33  H    7.170907   6.678768   5.622416   5.669825   7.105906
    34  H    8.168264   7.404927   6.701787   6.583009   7.478425
    35  H    8.498253   7.804532   7.443629   6.505078   6.601185
    36  H    7.707521   7.303597   6.927461   5.465580   5.412354
    37  H   10.586410   9.974586   9.389148   8.539970   8.883832
    38  H   12.481155  12.082761  11.307223  10.296160  10.776602
    39  H   10.783487  10.978911  10.027300   8.375306   8.979228
    40  H    8.526548   8.610162   7.807491   6.096560   6.595281
    41  H    4.497610   4.537469   3.679162   2.274055   3.694049
                   26         27         28         29         30
    26  H    0.000000
    27  H    1.769377   0.000000
    28  H    3.965034   2.479027   0.000000
    29  H    6.206522   4.729297   2.468092   0.000000
    30  H    7.241401   6.153313   4.289163   2.467696   0.000000
    31  H    6.713276   6.563185   5.831252   5.519447   3.812113
    32  H    8.935837   8.551026   7.242768   6.197347   3.947122
    33  H    7.906784   7.489821   6.028455   5.241808   3.460461
    34  H    8.555157   7.844694   6.156547   4.714935   2.441224
    35  H    8.078524   7.329459   6.118768   4.724640   2.507495
    36  H    6.957954   6.478873   5.858933   5.149958   3.462817
    37  H   10.326674   9.689433   8.417309   6.838489   4.424176
    38  H   12.201846  11.784547  10.718871   9.282718   6.854479
    39  H   10.225820  10.412749  10.218650   9.751193   7.710720
    40  H    7.901540   7.969928   7.773919   7.463052   5.661057
    41  H    4.504456   4.545091   4.296330   4.945526   4.299022
                   31         32         33         34         35
    31  H    0.000000
    32  H    2.478553   0.000000
    33  H    2.493905   1.772336   0.000000
    34  H    3.070130   1.770403   1.767956   0.000000
    35  H    3.058304   3.149219   3.802343   2.627943   0.000000
    36  H    2.505389   3.832339   4.324421   3.804917   1.757864
    37  H    4.315908   3.106088   4.573069   3.291749   2.405185
    38  H    5.838270   4.495093   6.244903   5.354281   4.709692
    39  H    4.749020   5.158618   6.492329   6.546374   5.523984
    40  H    2.672214   4.008980   4.909281   5.002857   3.756602
    41  H    2.274245   4.523832   3.725325   4.565772   4.499902
                   36         37         38         39         40
    36  H    0.000000
    37  H    3.615996   0.000000
    38  H    5.421882   2.473802   0.000000
    39  H    4.800410   4.962583   4.306383   0.000000
    40  H    2.595929   4.298735   4.962667   2.472170   0.000000
    41  H    3.559610   6.346306   8.049282   6.451030   4.144080
                   41
    41  H    0.000000
 Stoichiometry    C19H21N
 Framework group  C1[X(C19H21N)]
 Deg. of freedom   117
 Full point group                 C1      NOp   1
 Largest Abelian subgroup         C1      NOp   1
 Largest concise Abelian subgroup C1      NOp   1
                         Standard orientation:                         
 ---------------------------------------------------------------------
 Center     Atomic      Atomic             Coordinates (Angstroms)
 Number     Number       Type             X           Y           Z
 ---------------------------------------------------------------------
      1          6           0        5.781814   -1.144613    1.241184
      2          6           0        4.681502   -1.442590    0.203702
      3          6           0        5.293353   -1.916922   -1.129002
      4          6           0        3.744742   -0.256295    0.011029
      5          6           0        4.206468    0.970468   -0.488281
      6          6           0        3.329291    2.044003   -0.652294
      7          6           0        1.978817    1.913020   -0.321713
      8          6           0        1.486027    0.699306    0.178368
      9          6           0        0.016747    0.522352    0.539297
     10          6           0       -0.432007    1.499359    1.641218
     11          6           0       -0.877355    0.622732   -0.733311
     12          6           0       -2.322531    0.236415   -0.508077
     13          6           0       -3.335042    1.204471   -0.426244
     14          6           0       -4.663974    0.846921   -0.207849
     15          6           0       -5.008981   -0.507384   -0.065907
     16          6           0       -6.374568   -0.885876    0.157935
     17          7           0       -7.482448   -1.193460    0.340760
     18          6           0       -4.006695   -1.490434   -0.149876
     19          6           0       -2.685102   -1.114243   -0.369732
     20          6           0        2.384865   -0.365768    0.334420
     21          1           0        6.400110   -2.033141    1.412277
     22          1           0        6.442809   -0.340046    0.899462
     23          1           0        5.350992   -0.838279    2.199958
     24          1           0        4.073911   -2.268038    0.597977
     25          1           0        4.514676   -2.160742   -1.859090
     26          1           0        5.908203   -2.810671   -0.973445
     27          1           0        5.934442   -1.144912   -1.569475
     28          1           0        5.253835    1.093611   -0.750107
     29          1           0        3.700157    2.989429   -1.038964
     30          1           0        1.313769    2.762338   -0.453213
     31          1           0       -0.098138   -0.496059    0.932996
     32          1           0       -1.467177    1.307748    1.940587
     33          1           0        0.202955    1.398339    2.526785
     34          1           0       -0.367230    2.539791    1.303002
     35          1           0       -0.828479    1.645427   -1.124640
     36          1           0       -0.447131   -0.028238   -1.503461
     37          1           0       -3.080343    2.254660   -0.539097
     38          1           0       -5.435829    1.607260   -0.148899
     39          1           0       -4.272047   -2.537674   -0.048578
     40          1           0       -1.920813   -1.883621   -0.442961
     41          1           0        2.014230   -1.312494    0.724366
 ---------------------------------------------------------------------
 Rotational constants (GHZ):           0.9366475           0.1138691           0.1071845
 Standard basis: 6-31+G(d,p) (6D, 7F)
 There are   485 symmetry adapted cartesian basis functions of A   symmetry.
 There are   485 symmetry adapted basis functions of A   symmetry.
   485 basis functions,   787 primitive gaussians,   485 cartesian basis functions
    71 alpha electrons       71 beta electrons
       nuclear repulsion energy      1356.8091978217 Hartrees.
 NAtoms=   41 NActive=   41 NUniq=   41 SFac= 1.00D+00 NAtFMM=   60 NAOKFM=F Big=F
 Integral buffers will be    131072 words long.
 Regular integral format.
 Two-electron integral symmetry is turned on.
 One-electron integrals computed using PRISM.
 NBasis=   485 RedAO= T EigKep=  1.27D-06  NBF=   485
 NBsUse=   484 1.00D-06 EigRej=  5.71D-07 NBFU=   484
 ExpMin= 4.38D-02 ExpMax= 4.17D+03 ExpMxC= 6.27D+02 IAcc=3 IRadAn=         5 AccDes= 0.00D+00
 Harris functional with IExCor=  402 and IRadAn=       5 diagonalized for initial guess.
 HarFok:  IExCor=  402 AccDes= 0.00D+00 IRadAn=         5 IDoV= 1 UseB2=F ITyADJ=14
 ICtDFT=  3500011 ScaDFX=  1.000000  1.000000  1.000000  1.000000
 FoFCou: FMM=F IPFlag=           0 FMFlag=      100000 FMFlg1=           0
         NFxFlg=           0 DoJE=T BraDBF=F KetDBF=T FulRan=T
         wScrn=  0.000000 ICntrl=       500 IOpCl=  0 I1Cent=   200000004 NGrid=           0
         NMat0=    1 NMatS0=      1 NMatT0=    0 NMatD0=    1 NMtDS0=    0 NMtDT0=    0
 Petite list used in FoFCou.
 Requested convergence on RMS density matrix=1.00D-08 within 128 cycles.
 Requested convergence on MAX density matrix=1.00D-06.
 Requested convergence on             energy=1.00D-06.
 No special actions if energy rises.
 SCF Done:  E(RB3LYP) =  -791.486643909     A.U. after   16 cycles
            NFock= 16  Conv=0.36D-08     -V/T= 2.0100
 DoSCS=F DFT=T ScalE2(SS,OS)=  1.000000  1.000000
 ExpMin= 4.38D-02 ExpMax= 4.17D+03 ExpMxC= 6.27D+02 IAcc=3 IRadAn=         5 AccDes= 0.00D+00
 HarFok:  IExCor=  205 AccDes= 0.00D+00 IRadAn=         5 IDoV=-2 UseB2=F ITyADJ=14
 ICtDFT= 12500011 ScaDFX=  1.000000  1.000000  1.000000  1.000000
 Range of M.O.s used for correlation:    21   484
 NBasis=   485 NAE=    71 NBE=    71 NFC=    20 NFV=     0
 NROrb=    464 NOA=    51 NOB=    51 NVA=   413 NVB=   413

 **** Warning!!: The largest alpha MO coefficient is  0.17950950D+03

 Orbital symmetries:
       Occupied  (A) (A) (A) (A) (A) (A) (A) (A) (A) (A) (A) (A)
                 (A) (A) (A) (A) (A) (A) (A) (A) (A) (A) (A) (A)
                 (A) (A) (A) (A) (A) (A) (A) (A) (A) (A) (A) (A)
                 (A) (A) (A) (A) (A) (A) (A) (A) (A) (A) (A) (A)
                 (A) (A) (A) (A) (A) (A) (A) (A) (A) (A) (A) (A)
                 (A) (A) (A) (A) (A) (A) (A) (A) (A) (A) (A)
       Virtual   (A) (A) (A) (A) (A) (A) (A) (A) (A) (A) (A) (A)
                 (A) (A) (A) (A) (A) (A) (A) (A) (A) (A) (A) (A)
                 (A) (A) (A) (A) (A) (A) (A) (A) (A) (A) (A) (A)
                 (A) (A) (A) (A) (A) (A) (A) (A) (A) (A) (A) (A)
                 (A) (A) (A) (A) (A) (A) (A) (A) (A) (A) (A) (A)
                 (A) (A) (A) (A) (A) (A) (A) (A) (A) (A) (A) (A)
                 (A) (A) (A) (A) (A) (A) (A) (A) (A) (A) (A) (A)
                 (A) (A) (A) (A) (A) (A) (A) (A) (A) (A) (A) (A)
                 (A) (A) (A) (A) (A) (A) (A) (A) (A) (A) (A) (A)
                 (A) (A) (A) (A) (A) (A) (A) (A) (A) (A) (A) (A)
                 (A) (A) (A) (A) (A) (A) (A) (A) (A) (A) (A) (A)
                 (A) (A) (A) (A) (A) (A) (A) (A) (A) (A) (A) (A)
                 (A) (A) (A) (A) (A) (A) (A) (A) (A) (A) (A) (A)
                 (A) (A) (A) (A) (A) (A) (A) (A) (A) (A) (A) (A)
                 (A) (A) (A) (A) (A) (A) (A) (A) (A) (A) (A) (A)
                 (A) (A) (A) (A) (A) (A) (A) (A) (A) (A) (A) (A)
                 (A) (A) (A) (A) (A) (A) (A) (A) (A) (A) (A) (A)
                 (A) (A) (A) (A) (A) (A) (A) (A) (A) (A) (A) (A)
                 (A) (A) (A) (A) (A) (A) (A) (A) (A) (A) (A) (A)
                 (A) (A) (A) (A) (A) (A) (A) (A) (A) (A) (A) (A)
                 (A) (A) (A) (A) (A) (A) (A) (A) (A) (A) (A) (A)
                 (A) (A) (A) (A) (A) (A) (A) (A) (A) (A) (A) (A)
                 (A) (A) (A) (A) (A) (A) (A) (A) (A) (A) (A) (A)
                 (A) (A) (A) (A) (A) (A) (A) (A) (A) (A) (A) (A)
                 (A) (A) (A) (A) (A) (A) (A) (A) (A) (A) (A) (A)
                 (A) (A) (A) (A) (A) (A) (A) (A) (A) (A) (A) (A)
                 (A) (A) (A) (A) (A) (A) (A) (A) (A) (A) (A) (A)
                 (A) (A) (A) (A) (A) (A) (A) (A) (A) (A) (A) (A)
                 (A) (A) (A) (A) (A) (A) (A) (A) (A) (A) (A) (A)
                 (A) (A) (A) (A) (A) (A) (A) (A) (A) (A) (A) (A)
                 (A) (A) (A) (A) (A) (A) (A) (A) (A) (A) (A) (A)
                 (A) (A) (A) (A) (A) (A) (A) (A) (A) (A) (A) (A)
                 (A) (A) (A) (A) (A) (A) (A) (A) (A) (A) (A) (A)
                 (A) (A) (A) (A) (A) (A) (A) (A) (A) (A) (A) (A)
                 (A) (A) (A) (A) (A)
    24 initial guesses have been made.
 Convergence on wavefunction:    0.001000000000000
 Iteration     1 Dimension    24 NMult     0 NNew     24
 CISAX will form    24 AO SS matrices at one time.
 New state      1 was old state      6
 New state      2 was old state     14
 New state      3 was old state     12
 New state      4 was old state      2
 New state      5 was old state      1
 New state      6 was old state      4
 New state      7 was old state     16
 New state      8 was old state     24
 New state      9 was old state      3
 New state     10 was old state     18
 New state     12 was old state     20
 Vector   4 SDiff=9.54D+00 TDiff=1.48D+01 assumed to be singlet.
 Vector   6 SDiff=1.00D+01 TDiff=2.73D-01 assumed to be triplet.
 Vector  10 SDiff=9.50D+00 TDiff=1.45D+01 assumed to be singlet.
 Vector  12 SDiff=9.94D+00 TDiff=2.64D-01 assumed to be triplet.
 Iteration     2 Dimension    36 NMult    24 NNew     12
 New state      4 was old state      5
 New state      5 was old state      9
 New state      6 was old state     11
 Iteration     3 Dimension    48 NMult    36 NNew     12
 Iteration     4 Dimension    60 NMult    48 NNew     12
 Iteration     5 Dimension    72 NMult    60 NNew     12
 Iteration     6 Dimension    84 NMult    72 NNew     12
 Iteration     7 Dimension    86 NMult    84 NNew      2
 ***********************************************************************
 Excited states from <AA,BB:AA,BB> singles matrix:
 ***********************************************************************
 
 Ground to excited state transition densities written to RWF  633
 Ground to excited state transition electric dipole moments (Au):
       state          X           Y           Z        Dip. S.      Osc.
         1        -0.0000     -0.0000      0.0000      0.0000      0.0000
         2        -0.0000      0.0000     -0.0000      0.0000      0.0000
         3         0.0000      0.0000      0.0000      0.0000      0.0000
         4        -0.7295     -0.1630      0.0458      0.5608      0.0636
         5         0.5649      0.0253     -0.0073      0.3198      0.0381
         6        -0.0326      0.1135      0.0080      0.0140      0.0017
 Ground to excited state transition velocity dipole moments (Au):
       state          X           Y           Z        Dip. S.      Osc.
         1         0.0000     -0.0000     -0.0000      0.0000      0.0000
         2        -0.0000     -0.0000      0.0000      0.0000      0.0000
         3         0.0000     -0.0000      0.0000      0.0000      0.0000
         4         0.1205      0.0281     -0.0068      0.0154      0.0602
         5        -0.0988     -0.0038      0.0012      0.0098      0.0365
         6         0.0069     -0.0194     -0.0018      0.0004      0.0016
 Ground to excited state transition magnetic dipole moments (Au):
       state          X           Y           Z
         1         0.0000     -0.0000     -0.0000
         2         0.0000     -0.0000      0.0000
         3         0.0000     -0.0000      0.0000
         4        -0.0020     -0.0364     -0.1797
         5        -0.0769      0.0829      0.2452
         6        -0.0230     -0.0022     -0.0109
 Ground to excited state transition velocity quadrupole moments (Au):
       state          XX          YY          ZZ          XY          XZ          YZ
         1         0.0000      0.0000      0.0000     -0.0000      0.0000      0.0000
         2        -0.0000     -0.0000     -0.0000      0.0000      0.0000      0.0000
         3        -0.0000     -0.0000     -0.0000      0.0000      0.0000      0.0000
         4        -0.8135      0.0450      0.0380     -0.0991     -0.0188     -0.0121
         5         0.6686      0.0055     -0.0212      0.1819     -0.0283     -0.0239
         6        -0.1244      0.0374      0.0032      0.1882      0.0004      0.0003
 <0|del|b> * <b|rxdel|0> + <0|del|b> * <b|delr+rdel|0>
 Rotatory Strengths (R) in cgs (10**-40 erg-esu-cm/Gauss)
       state          XX          YY          ZZ    R(velocity)    E-M Angle
         1         0.0000      0.0000      0.0000      0.0000       90.00
         2         0.0000     -0.0000     -0.0000      0.0000       90.00
         3         0.0000      0.0000     -0.0000      0.0000       90.00
         4         2.9327     -2.3850     -0.6829     -0.0451       90.00
         5         0.1865     19.8369      9.9533      9.9922       73.51
         6        -0.5363      0.4102     -0.2440     -0.1234       90.00
 1/2[<0|r|b>*<b|rxdel|0> + (<0|rxdel|b>*<b|r|0>)*]
 Rotatory Strengths (R) in cgs (10**-40 erg-esu-cm/Gauss)
       state          XX          YY          ZZ     R(length)
         1         0.0000     -0.0000      0.0000      0.0000
         2         0.0000      0.0000      0.0000      0.0000
         3        -0.0000      0.0000     -0.0000      0.0000
         4        -1.0158     -4.1945      5.8226      0.2041
         5        30.7112     -1.4835      1.2624     10.1634
         6        -0.5287      0.1754      0.0618     -0.0972
  1/2[<0|del|b>*<b|r|0> + (<0|r|b>*<b|del|0>)*] (Au)
       state          X           Y           Z        Dip. S.   Osc.(frdel)
         1        -0.0000      0.0000     -0.0000      0.0000      0.0000
         2         0.0000     -0.0000     -0.0000     -0.0000     -0.0000
         3         0.0000     -0.0000      0.0000      0.0000      0.0000
         4        -0.0879     -0.0046     -0.0003      0.0928      0.0619
         5        -0.0558     -0.0001     -0.0000      0.0559      0.0373
         6        -0.0002     -0.0022     -0.0000      0.0024      0.0016

 Excitation energies and oscillator strengths:
 
 Excited State   1:      Triplet-A      3.3547 eV  369.58 nm  f=0.0000  <S**2>=2.000
      68 -> 73         0.28297
      69 -> 72         0.57796
      70 -> 72         0.19067
      71 -> 72        -0.19683
 This state for optimization and/or second-order correction.
 Total Energy, E(TD-HF/TD-DFT) =  -791.363360048    
 Copying the excited state density for this state as the 1-particle RhoCI density.
 
 Excited State   2:      Triplet-A      3.6832 eV  336.62 nm  f=0.0000  <S**2>=2.000
      69 -> 74         0.11203
      70 -> 75        -0.39993
      71 -> 72        -0.10646
      71 -> 74         0.51951
 
 Excited State   3:      Triplet-A      4.3423 eV  285.52 nm  f=0.0000  <S**2>=2.000
      68 -> 72         0.61455
      69 -> 73         0.28894
      71 -> 73        -0.10790
 
 Excited State   4:      Singlet-A      4.6265 eV  267.99 nm  f=0.0636  <S**2>=0.000
      71 -> 72         0.70344
 
 Excited State   5:      Singlet-A      4.8643 eV  254.89 nm  f=0.0381  <S**2>=0.000
      70 -> 72         0.69322
 
 Excited State   6:      Singlet-A      4.9723 eV  249.35 nm  f=0.0017  <S**2>=0.000
      68 -> 72         0.49585
      69 -> 73        -0.37644
      70 -> 73        -0.17322
      71 -> 73         0.27876
 SavETr:  write IOETrn=   770 NScale= 10 NData=  16 NLR=1 NState=    6 LETran=     118.

 **********************************************************************

            Population analysis using the SCF Density.

 **********************************************************************

 Orbital symmetries:
       Occupied  (A) (A) (A) (A) (A) (A) (A) (A) (A) (A) (A) (A)
                 (A) (A) (A) (A) (A) (A) (A) (A) (A) (A) (A) (A)
                 (A) (A) (A) (A) (A) (A) (A) (A) (A) (A) (A) (A)
                 (A) (A) (A) (A) (A) (A) (A) (A) (A) (A) (A) (A)
                 (A) (A) (A) (A) (A) (A) (A) (A) (A) (A) (A) (A)
                 (A) (A) (A) (A) (A) (A) (A) (A) (A) (A) (A)
       Virtual   (A) (A) (A) (A) (A) (A) (A) (A) (A) (A) (A) (A)
                 (A) (A) (A) (A) (A) (A) (A) (A) (A) (A) (A) (A)
                 (A) (A) (A) (A) (A) (A) (A) (A) (A) (A) (A) (A)
                 (A) (A) (A) (A) (A) (A) (A) (A) (A) (A) (A) (A)
                 (A) (A) (A) (A) (A) (A) (A) (A) (A) (A) (A) (A)
                 (A) (A) (A) (A) (A) (A) (A) (A) (A) (A) (A) (A)
                 (A) (A) (A) (A) (A) (A) (A) (A) (A) (A) (A) (A)
                 (A) (A) (A) (A) (A) (A) (A) (A) (A) (A) (A) (A)
                 (A) (A) (A) (A) (A) (A) (A) (A) (A) (A) (A) (A)
                 (A) (A) (A) (A) (A) (A) (A) (A) (A) (A) (A) (A)
                 (A) (A) (A) (A) (A) (A) (A) (A) (A) (A) (A) (A)
                 (A) (A) (A) (A) (A) (A) (A) (A) (A) (A) (A) (A)
                 (A) (A) (A) (A) (A) (A) (A) (A) (A) (A) (A) (A)
                 (A) (A) (A) (A) (A) (A) (A) (A) (A) (A) (A) (A)
                 (A) (A) (A) (A) (A) (A) (A) (A) (A) (A) (A) (A)
                 (A) (A) (A) (A) (A) (A) (A) (A) (A) (A) (A) (A)
                 (A) (A) (A) (A) (A) (A) (A) (A) (A) (A) (A) (A)
                 (A) (A) (A) (A) (A) (A) (A) (A) (A) (A) (A) (A)
                 (A) (A) (A) (A) (A) (A) (A) (A) (A) (A) (A) (A)
                 (A) (A) (A) (A) (A) (A) (A) (A) (A) (A) (A) (A)
                 (A) (A) (A) (A) (A) (A) (A) (A) (A) (A) (A) (A)
                 (A) (A) (A) (A) (A) (A) (A) (A) (A) (A) (A) (A)
                 (A) (A) (A) (A) (A) (A) (A) (A) (A) (A) (A) (A)
                 (A) (A) (A) (A) (A) (A) (A) (A) (A) (A) (A) (A)
                 (A) (A) (A) (A) (A) (A) (A) (A) (A) (A) (A) (A)
                 (A) (A) (A) (A) (A) (A) (A) (A) (A) (A) (A) (A)
                 (A) (A) (A) (A) (A) (A) (A) (A) (A) (A) (A) (A)
                 (A) (A) (A) (A) (A) (A) (A) (A) (A) (A) (A) (A)
                 (A) (A) (A) (A) (A) (A) (A) (A) (A) (A) (A) (A)
                 (A) (A) (A) (A) (A) (A) (A) (A) (A) (A) (A) (A)
                 (A) (A) (A) (A) (A) (A) (A) (A) (A) (A) (A) (A)
                 (A) (A) (A) (A) (A) (A) (A) (A) (A) (A) (A) (A)
                 (A) (A) (A) (A) (A) (A) (A) (A) (A) (A) (A) (A)
                 (A) (A) (A) (A) (A) (A) (A) (A) (A) (A) (A) (A)
                 (A) (A) (A) (A) (A)
 The electronic state is 1-A.
 Alpha  occ. eigenvalues --  -14.34569 -10.24741 -10.23765 -10.22859 -10.22735
 Alpha  occ. eigenvalues --  -10.22719 -10.21845 -10.21827 -10.21417 -10.20845
 Alpha  occ. eigenvalues --  -10.20690 -10.20541 -10.20492 -10.20112 -10.19758
 Alpha  occ. eigenvalues --  -10.19672 -10.19640 -10.18854 -10.18489 -10.18463
 Alpha  occ. eigenvalues --   -0.91560  -0.88811  -0.87160  -0.83181  -0.80807
 Alpha  occ. eigenvalues --   -0.78675  -0.77697  -0.74616  -0.73298  -0.71049
 Alpha  occ. eigenvalues --   -0.69160  -0.65215  -0.63878  -0.63036  -0.61239
 Alpha  occ. eigenvalues --   -0.59752  -0.57094  -0.54922  -0.51664  -0.50131
 Alpha  occ. eigenvalues --   -0.49376  -0.48155  -0.46918  -0.45642  -0.45480
 Alpha  occ. eigenvalues --   -0.44937  -0.44377  -0.43123  -0.42872  -0.42194
 Alpha  occ. eigenvalues --   -0.41702  -0.40877  -0.39606  -0.39338  -0.38768
 Alpha  occ. eigenvalues --   -0.37816  -0.37685  -0.37099  -0.36641  -0.36155
 Alpha  occ. eigenvalues --   -0.35298  -0.34794  -0.34513  -0.34091  -0.33797
 Alpha  occ. eigenvalues --   -0.33257  -0.32420  -0.28277  -0.26813  -0.25666
 Alpha  occ. eigenvalues --   -0.24804
 Alpha virt. eigenvalues --   -0.06193  -0.03846  -0.01877  -0.01813  -0.00998
 Alpha virt. eigenvalues --   -0.00088   0.00165   0.01253   0.01353   0.01634
 Alpha virt. eigenvalues --    0.02224   0.02586   0.02726   0.03175   0.03327
 Alpha virt. eigenvalues --    0.03952   0.04682   0.04867   0.05204   0.05386
 Alpha virt. eigenvalues --    0.05891   0.06254   0.06427   0.06878   0.07164
 Alpha virt. eigenvalues --    0.07494   0.07614   0.08424   0.08587   0.08788
 Alpha virt. eigenvalues --    0.09098   0.09503   0.09933   0.10251   0.10446
 Alpha virt. eigenvalues --    0.11002   0.11218   0.11610   0.12014   0.12335
 Alpha virt. eigenvalues --    0.12519   0.13185   0.13546   0.13847   0.14144
 Alpha virt. eigenvalues --    0.14597   0.14830   0.15028   0.15627   0.15880
 Alpha virt. eigenvalues --    0.16262   0.16571   0.17218   0.17575   0.17674
 Alpha virt. eigenvalues --    0.18186   0.18398   0.18586   0.18881   0.19017
 Alpha virt. eigenvalues --    0.19312   0.19411   0.19654   0.20346   0.20563
 Alpha virt. eigenvalues --    0.20867   0.20990   0.21369   0.21738   0.21926
 Alpha virt. eigenvalues --    0.22297   0.22543   0.22871   0.23298   0.23657
 Alpha virt. eigenvalues --    0.23877   0.24119   0.24323   0.24552   0.25073
 Alpha virt. eigenvalues --    0.25665   0.25772   0.26112   0.26205   0.26415
 Alpha virt. eigenvalues --    0.26594   0.27088   0.27483   0.27778   0.28065
 Alpha virt. eigenvalues --    0.28203   0.28471   0.28758   0.29012   0.29213
 Alpha virt. eigenvalues --    0.29378   0.29893   0.30280   0.30471   0.30888
 Alpha virt. eigenvalues --    0.31360   0.31810   0.32439   0.32540   0.33244
 Alpha virt. eigenvalues --    0.34221   0.34361   0.34550   0.34718   0.36022
 Alpha virt. eigenvalues --    0.36827   0.37117   0.37432   0.37643   0.38426
 Alpha virt. eigenvalues --    0.39498   0.39857   0.40126   0.41435   0.41838
 Alpha virt. eigenvalues --    0.44450   0.46171   0.48643   0.49540   0.54878
 Alpha virt. eigenvalues --    0.58106   0.58903   0.59839   0.63727   0.64209
 Alpha virt. eigenvalues --    0.64413   0.65960   0.66611   0.66923   0.67488
 Alpha virt. eigenvalues --    0.68216   0.68744   0.69678   0.69924   0.70360
 Alpha virt. eigenvalues --    0.71393   0.71623   0.72164   0.72622   0.73345
 Alpha virt. eigenvalues --    0.73927   0.74376   0.75238   0.75802   0.76241
 Alpha virt. eigenvalues --    0.76376   0.77154   0.77700   0.77852   0.79072
 Alpha virt. eigenvalues --    0.79531   0.79981   0.80221   0.80820   0.81675
 Alpha virt. eigenvalues --    0.82489   0.83133   0.83597   0.83941   0.84242
 Alpha virt. eigenvalues --    0.86244   0.87356   0.87677   0.88267   0.88873
 Alpha virt. eigenvalues --    0.89412   0.90393   0.91542   0.92857   0.93627
 Alpha virt. eigenvalues --    0.93969   0.95302   0.95737   0.96810   0.97727
 Alpha virt. eigenvalues --    0.98477   0.99032   0.99719   0.99850   1.00119
 Alpha virt. eigenvalues --    1.00987   1.01704   1.02152   1.03243   1.03878
 Alpha virt. eigenvalues --    1.04278   1.06017   1.07282   1.07794   1.08073
 Alpha virt. eigenvalues --    1.09362   1.10373   1.11829   1.12535   1.13875
 Alpha virt. eigenvalues --    1.14815   1.15317   1.16154   1.17621   1.18514
 Alpha virt. eigenvalues --    1.19225   1.20237   1.21192   1.21641   1.22855
 Alpha virt. eigenvalues --    1.24854   1.25245   1.26108   1.26497   1.27091
 Alpha virt. eigenvalues --    1.28232   1.29614   1.30800   1.31088   1.31896
 Alpha virt. eigenvalues --    1.35235   1.36386   1.36917   1.37333   1.37849
 Alpha virt. eigenvalues --    1.38704   1.39177   1.40202   1.40831   1.41923
 Alpha virt. eigenvalues --    1.44598   1.45457   1.46822   1.49530   1.50848
 Alpha virt. eigenvalues --    1.52713   1.53673   1.55221   1.55683   1.56241
 Alpha virt. eigenvalues --    1.57825   1.64071   1.64618   1.67314   1.70683
 Alpha virt. eigenvalues --    1.71712   1.75646   1.76280   1.77510   1.78597
 Alpha virt. eigenvalues --    1.79727   1.80816   1.82277   1.82964   1.85511
 Alpha virt. eigenvalues --    1.85646   1.85903   1.86414   1.86960   1.87651
 Alpha virt. eigenvalues --    1.88533   1.89658   1.90035   1.91275   1.92161
 Alpha virt. eigenvalues --    1.93332   1.93801   1.94304   1.94729   1.95518
 Alpha virt. eigenvalues --    1.97014   1.98158   1.98888   1.99654   2.02497
 Alpha virt. eigenvalues --    2.03016   2.03166   2.04218   2.04994   2.05587
 Alpha virt. eigenvalues --    2.06513   2.07632   2.08758   2.09460   2.11228
 Alpha virt. eigenvalues --    2.11760   2.12354   2.13372   2.13547   2.13948
 Alpha virt. eigenvalues --    2.14440   2.15437   2.16884   2.17036   2.17555
 Alpha virt. eigenvalues --    2.18339   2.20213   2.23350   2.24089   2.27171
 Alpha virt. eigenvalues --    2.27249   2.28221   2.30287   2.31749   2.32947
 Alpha virt. eigenvalues --    2.33371   2.34403   2.35096   2.37205   2.37729
 Alpha virt. eigenvalues --    2.38001   2.38980   2.39684   2.41602   2.43257
 Alpha virt. eigenvalues --    2.44173   2.45193   2.46670   2.48459   2.49381
 Alpha virt. eigenvalues --    2.49941   2.51524   2.52000   2.53287   2.54484
 Alpha virt. eigenvalues --    2.55199   2.56871   2.57045   2.57727   2.57931
 Alpha virt. eigenvalues --    2.59525   2.60525   2.62183   2.62561   2.63004
 Alpha virt. eigenvalues --    2.64748   2.67080   2.67825   2.69966   2.70846
 Alpha virt. eigenvalues --    2.71734   2.72517   2.73253   2.75151   2.75989
 Alpha virt. eigenvalues --    2.76699   2.77225   2.78110   2.80090   2.80780
 Alpha virt. eigenvalues --    2.83071   2.83798   2.84949   2.86341   2.87314
 Alpha virt. eigenvalues --    2.88038   2.88285   2.89366   2.89941   2.91667
 Alpha virt. eigenvalues --    2.98105   2.98978   3.04200   3.05293   3.06156
 Alpha virt. eigenvalues --    3.06598   3.08127   3.18721   3.19580   3.26442
 Alpha virt. eigenvalues --    3.26596   3.26828   3.26859   3.27382   3.28429
 Alpha virt. eigenvalues --    3.30883   3.32650   3.33613   3.37171   3.38580
 Alpha virt. eigenvalues --    3.41223   3.43621   3.44182   3.46547   3.48452
 Alpha virt. eigenvalues --    3.49068   3.50729   3.51629   3.52468   3.55293
 Alpha virt. eigenvalues --    3.57150   3.81324   3.83580   4.24468   4.28197
 Alpha virt. eigenvalues --    4.30147   4.32435   4.34668   4.37235   4.43805
 Alpha virt. eigenvalues --    4.44765   4.45380   4.47619   4.48327   4.52220
 Alpha virt. eigenvalues --    4.53541   4.54561   4.59324   4.65268   4.71912
 Alpha virt. eigenvalues --    4.76655   4.86814   4.91120
          Condensed to atoms (all electrons):
               1          2          3          4          5          6
     1  C    5.471594  -0.070715  -0.176600   0.096888  -0.088585  -0.038195
     2  C   -0.070715   8.036129  -0.109590  -1.499344   0.224554   0.447981
     3  C   -0.176600  -0.109590   5.537984   0.145316  -0.122417  -0.088398
     4  C    0.096888  -1.499344   0.145316  11.218415  -1.051871  -0.594036
     5  C   -0.088585   0.224554  -0.122417  -1.051871   9.288948   0.124174
     6  C   -0.038195   0.447981  -0.088398  -0.594036   0.124174   7.327446
     7  C    0.025552  -0.186975   0.067653  -2.093648   0.510292  -0.067253
     8  C    0.035912  -0.716442   0.010023  -0.184674  -1.837717  -0.790522
     9  C    0.000318  -0.514466  -0.054904  -0.610776   0.415601   0.474150
    10  C    0.010376  -0.022876  -0.007537  -0.068497   0.052804  -0.010498
    11  C   -0.006905  -0.018231   0.010212  -0.345276   0.031025  -0.176790
    12  C   -0.002360   0.032539  -0.000343   0.412273  -0.020047   0.189077
    13  C    0.000173   0.004605   0.000493   0.129690  -0.014506  -0.148555
    14  C    0.000041   0.000289  -0.000196   0.007646   0.000073  -0.004033
    15  C   -0.000033  -0.000188  -0.000032   0.000812  -0.000664   0.000783
    16  C   -0.000003   0.000031  -0.000001   0.000914  -0.000050   0.000079
    17  N    0.000000  -0.000000  -0.000000  -0.000001  -0.000000  -0.000000
    18  C   -0.000230   0.004197   0.000252   0.017848  -0.002577  -0.006366
    19  C   -0.000387  -0.012029  -0.002148  -0.192453   0.003464   0.102705
    20  C   -0.009111   0.103690   0.036492   0.990692  -1.459907  -0.695414
    21  H    0.420545  -0.032878  -0.004468  -0.051964   0.025671  -0.002091
    22  H    0.461547  -0.069877  -0.012984   0.034695  -0.120907  -0.000035
    23  H    0.439140  -0.095543  -0.004775   0.027795   0.054177   0.005518
    24  H    0.009173   0.419867   0.009564  -0.193723  -0.106379  -0.011442
    25  H   -0.003448  -0.106590   0.448219   0.033695   0.060574   0.004581
    26  H   -0.002348  -0.035992   0.419419  -0.049236   0.030783  -0.001387
    27  H   -0.011316  -0.075631   0.460317   0.042475  -0.120678  -0.001865
    28  H   -0.001819  -0.134500  -0.000433   0.145465   0.277431  -0.020329
    29  H    0.000218   0.003586  -0.000133   0.065234  -0.095009   0.329001
    30  H   -0.000256   0.008797  -0.000100   0.069279  -0.067257  -0.045449
    31  H    0.000102  -0.004620  -0.000382   0.026611   0.004659  -0.006124
    32  H   -0.000015  -0.000418   0.000003  -0.004078   0.002437  -0.004213
    33  H    0.000158   0.000375  -0.000053  -0.018918  -0.001628   0.017912
    34  H    0.000037   0.000037  -0.000013   0.010437  -0.005785  -0.010251
    35  H    0.000015  -0.000362  -0.000026   0.003791  -0.002473  -0.009799
    36  H   -0.000048   0.000692   0.000282  -0.011944   0.001383  -0.004125
    37  H    0.000000  -0.000007  -0.000000  -0.000175   0.000063   0.000195
    38  H   -0.000000  -0.000000  -0.000000  -0.000000   0.000000   0.000003
    39  H    0.000000  -0.000000  -0.000000  -0.000009  -0.000000   0.000000
    40  H   -0.000001   0.000210   0.000006   0.000482  -0.000119   0.000275
    41  H    0.006700  -0.010693   0.002019  -0.070944  -0.013920   0.006264
               7          8          9         10         11         12
     1  C    0.025552   0.035912   0.000318   0.010376  -0.006905  -0.002360
     2  C   -0.186975  -0.716442  -0.514466  -0.022876  -0.018231   0.032539
     3  C    0.067653   0.010023  -0.054904  -0.007537   0.010212  -0.000343
     4  C   -2.093648  -0.184674  -0.610776  -0.068497  -0.345276   0.412273
     5  C    0.510292  -1.837717   0.415601   0.052804   0.031025  -0.020047
     6  C   -0.067253  -0.790522   0.474150  -0.010498  -0.176790   0.189077
     7  C   10.716402  -2.687540   1.300633   0.066677   0.411360  -0.245590
     8  C   -2.687540  14.159571  -4.170683  -0.361694  -0.083473   0.010722
     9  C    1.300633  -4.170683  12.538944  -0.218592  -0.345011  -0.094828
    10  C    0.066677  -0.361694  -0.218592   6.122529  -0.451987   0.136891
    11  C    0.411360  -0.083473  -0.345011  -0.451987  21.236444 -13.694805
    12  C   -0.245590   0.010722  -0.094828   0.136891 -13.694805  24.861550
    13  C   -0.917673   1.460461  -1.355920   0.060957   1.194272  -4.177010
    14  C   -0.015754   0.011246   0.025292   0.031453  -0.150131   0.968221
    15  C   -0.012137   0.006659  -0.031826   0.058515  -0.974958  -0.647283
    16  C   -0.001999   0.021854  -0.014999   0.001795  -1.116034  -0.446089
    17  N   -0.000009  -0.000040   0.000094  -0.000036   0.014271   0.060892
    18  C   -0.099175   0.325713  -0.180794  -0.214782   0.499583   0.209283
    19  C    0.798266  -1.442740   1.557818   0.166478  -0.860250  -1.600721
    20  C   -1.571960   2.261446  -2.874818  -0.162509   0.391172  -0.220615
    21  H    0.001659  -0.003714  -0.000287  -0.000004   0.000012  -0.000006
    22  H   -0.003551   0.003721  -0.000502  -0.000001  -0.000008  -0.000001
    23  H   -0.001313  -0.013959   0.000302   0.000013  -0.000025  -0.000014
    24  H    0.012202   0.013419  -0.011805  -0.000091   0.000204  -0.000157
    25  H   -0.000459  -0.018066  -0.000623  -0.000013  -0.000213   0.000104
    26  H    0.001828  -0.004011   0.000031   0.000006  -0.000046   0.000009
    27  H   -0.004135   0.004705  -0.000424  -0.000005   0.000033  -0.000001
    28  H   -0.053486   0.072076   0.008871  -0.000090  -0.000617  -0.000267
    29  H   -0.040395   0.046655  -0.010196  -0.000655   0.000787   0.000673
    30  H    0.192306   0.194081  -0.109394  -0.004999  -0.036184   0.038249
    31  H   -0.123140  -0.076411   0.295365   0.025903   0.159093  -0.105251
    32  H    0.034757  -0.136491   0.018382   0.439326  -0.031527   0.035236
    33  H    0.050903   0.043864  -0.175012   0.486834   0.021285  -0.013719
    34  H   -0.135673   0.115119  -0.140393   0.466752   0.039059  -0.098269
    35  H   -0.092574   0.067841  -0.059135  -0.028036   0.713640  -0.393754
    36  H    0.035560   0.023566  -0.066046  -0.002244   0.377576  -0.076864
    37  H    0.003152  -0.016382   0.013121   0.009670  -0.092706   0.178856
    38  H    0.000074  -0.000270   0.000409   0.000060  -0.003794   0.025197
    39  H    0.000012  -0.000180  -0.000070   0.000243  -0.000520   0.024752
    40  H   -0.001184   0.024944  -0.008989  -0.005642  -0.012218   0.136375
    41  H   -0.007807  -0.056307   0.041552   0.000754   0.033951  -0.033746
              13         14         15         16         17         18
     1  C    0.000173   0.000041  -0.000033  -0.000003   0.000000  -0.000230
     2  C    0.004605   0.000289  -0.000188   0.000031  -0.000000   0.004197
     3  C    0.000493  -0.000196  -0.000032  -0.000001  -0.000000   0.000252
     4  C    0.129690   0.007646   0.000812   0.000914  -0.000001   0.017848
     5  C   -0.014506   0.000073  -0.000664  -0.000050  -0.000000  -0.002577
     6  C   -0.148555  -0.004033   0.000783   0.000079  -0.000000  -0.006366
     7  C   -0.917673  -0.015754  -0.012137  -0.001999  -0.000009  -0.099175
     8  C    1.460461   0.011246   0.006659   0.021854  -0.000040   0.325713
     9  C   -1.355920   0.025292  -0.031826  -0.014999   0.000094  -0.180794
    10  C    0.060957   0.031453   0.058515   0.001795  -0.000036  -0.214782
    11  C    1.194272  -0.150131  -0.974958  -1.116034   0.014271   0.499583
    12  C   -4.177010   0.968221  -0.647283  -0.446089   0.060892   0.209283
    13  C   20.507683  -5.045734   1.170645   0.151111  -0.016912   2.367857
    14  C   -5.045734  12.015108  -0.735993  -0.130462  -0.025704  -3.943334
    15  C    1.170645  -0.735993  10.747368  -5.192958   1.009862  -0.972142
    16  C    0.151111  -0.130462  -5.192958  13.866308  -0.819546   0.103894
    17  N   -0.016912  -0.025704   1.009862  -0.819546   7.366265  -0.043809
    18  C    2.367857  -3.943334  -0.972142   0.103894  -0.043809  12.704513
    19  C  -10.095435   2.946416   1.113161  -0.166487  -0.007019  -4.837216
    20  C    0.597071  -0.036543  -0.020617  -0.001798   0.000008   0.100468
    21  H    0.000000   0.000000  -0.000000  -0.000000   0.000000  -0.000000
    22  H    0.000000  -0.000000   0.000000   0.000000   0.000000  -0.000000
    23  H    0.000000   0.000000  -0.000000  -0.000000   0.000000   0.000001
    24  H    0.000022   0.000000  -0.000001  -0.000000   0.000000  -0.000026
    25  H    0.000012  -0.000001   0.000000   0.000000  -0.000000  -0.000004
    26  H    0.000001   0.000000  -0.000000   0.000000   0.000000   0.000000
    27  H    0.000000  -0.000000   0.000000  -0.000000   0.000000  -0.000000
    28  H   -0.000012  -0.000001  -0.000000  -0.000000  -0.000000  -0.000001
    29  H    0.000046   0.000004   0.000001   0.000000   0.000000   0.000006
    30  H    0.012720   0.000174   0.000175   0.000007   0.000000   0.000666
    31  H    0.043413   0.008246  -0.011181  -0.001270   0.000001  -0.012986
    32  H   -0.011809  -0.009850   0.009887   0.001493  -0.000000  -0.017168
    33  H    0.002937   0.002753  -0.000822  -0.000075   0.000000  -0.003574
    34  H    0.043653   0.004265  -0.000003  -0.000280   0.000000  -0.002410
    35  H    0.130077   0.039473  -0.010331  -0.001708   0.000001  -0.007093
    36  H   -0.104429  -0.017589   0.000030  -0.000366   0.000000   0.060729
    37  H    0.169015   0.022993  -0.020416  -0.002349   0.000026  -0.017431
    38  H   -0.054051   0.243513   0.080793  -0.035966   0.000489   0.049475
    39  H   -0.000661   0.047846   0.073328  -0.035841   0.000532   0.225163
    40  H    0.078133  -0.017223  -0.029595  -0.003219   0.000033  -0.031070
    41  H   -0.004676   0.000194  -0.000207  -0.000012  -0.000000   0.002672
              19         20         21         22         23         24
     1  C   -0.000387  -0.009111   0.420545   0.461547   0.439140   0.009173
     2  C   -0.012029   0.103690  -0.032878  -0.069877  -0.095543   0.419867
     3  C   -0.002148   0.036492  -0.004468  -0.012984  -0.004775   0.009564
     4  C   -0.192453   0.990692  -0.051964   0.034695   0.027795  -0.193723
     5  C    0.003464  -1.459907   0.025671  -0.120907   0.054177  -0.106379
     6  C    0.102705  -0.695414  -0.002091  -0.000035   0.005518  -0.011442
     7  C    0.798266  -1.571960   0.001659  -0.003551  -0.001313   0.012202
     8  C   -1.442740   2.261446  -0.003714   0.003721  -0.013959   0.013419
     9  C    1.557818  -2.874818  -0.000287  -0.000502   0.000302  -0.011805
    10  C    0.166478  -0.162509  -0.000004  -0.000001   0.000013  -0.000091
    11  C   -0.860250   0.391172   0.000012  -0.000008  -0.000025   0.000204
    12  C   -1.600721  -0.220615  -0.000006  -0.000001  -0.000014  -0.000157
    13  C  -10.095435   0.597071   0.000000   0.000000   0.000000   0.000022
    14  C    2.946416  -0.036543   0.000000  -0.000000   0.000000   0.000000
    15  C    1.113161  -0.020617  -0.000000   0.000000  -0.000000  -0.000001
    16  C   -0.166487  -0.001798  -0.000000   0.000000  -0.000000  -0.000000
    17  N   -0.007019   0.000008   0.000000   0.000000   0.000000   0.000000
    18  C   -4.837216   0.100468  -0.000000  -0.000000   0.000001  -0.000026
    19  C   18.772357  -0.717458  -0.000001   0.000001   0.000001  -0.000144
    20  C   -0.717458   8.763846   0.000655   0.054213  -0.050219   0.116705
    21  H   -0.000001   0.000655   0.562314  -0.029351  -0.026937  -0.004175
    22  H    0.000001   0.054213  -0.029351   0.555650  -0.028096   0.005417
    23  H    0.000001  -0.050219  -0.026937  -0.028096   0.549359  -0.004240
    24  H   -0.000144   0.116705  -0.004175   0.005417  -0.004240   0.626298
    25  H   -0.000096  -0.056649   0.000098   0.000025  -0.000146  -0.004181
    26  H   -0.000002  -0.005800   0.002771  -0.000147   0.000096  -0.004151
    27  H   -0.000003   0.052959  -0.000152   0.003169   0.000026   0.005412
    28  H    0.000006   0.007540  -0.000031   0.000285   0.000046   0.000080
    29  H    0.000053   0.009311  -0.000000   0.000003  -0.000000   0.000002
    30  H   -0.006937   0.049994  -0.000000   0.000000   0.000000  -0.000000
    31  H   -0.061722   0.091417  -0.000000   0.000000  -0.000000  -0.000002
    32  H    0.045804  -0.014750  -0.000000   0.000000   0.000000  -0.000000
    33  H   -0.012953  -0.041724   0.000000  -0.000000   0.000000   0.000000
    34  H   -0.002041   0.060516   0.000000  -0.000000  -0.000000   0.000000
    35  H   -0.088704   0.040006  -0.000000  -0.000000  -0.000000  -0.000000
    36  H    0.105233  -0.010952  -0.000000  -0.000000  -0.000000  -0.000000
    37  H    0.051852  -0.001689   0.000000  -0.000000   0.000000  -0.000000
    38  H   -0.000267  -0.000003  -0.000000   0.000000   0.000000  -0.000000
    39  H   -0.029063  -0.000076  -0.000000  -0.000000  -0.000000   0.000000
    40  H    0.159550   0.008514   0.000000   0.000000  -0.000000   0.000000
    41  H    0.014029   0.366614  -0.000013  -0.000007   0.000017   0.005119
              25         26         27         28         29         30
     1  C   -0.003448  -0.002348  -0.011316  -0.001819   0.000218  -0.000256
     2  C   -0.106590  -0.035992  -0.075631  -0.134500   0.003586   0.008797
     3  C    0.448219   0.419419   0.460317  -0.000433  -0.000133  -0.000100
     4  C    0.033695  -0.049236   0.042475   0.145465   0.065234   0.069279
     5  C    0.060574   0.030783  -0.120678   0.277431  -0.095009  -0.067257
     6  C    0.004581  -0.001387  -0.001865  -0.020329   0.329001  -0.045449
     7  C   -0.000459   0.001828  -0.004135  -0.053486  -0.040395   0.192306
     8  C   -0.018066  -0.004011   0.004705   0.072076   0.046655   0.194081
     9  C   -0.000623   0.000031  -0.000424   0.008871  -0.010196  -0.109394
    10  C   -0.000013   0.000006  -0.000005  -0.000090  -0.000655  -0.004999
    11  C   -0.000213  -0.000046   0.000033  -0.000617   0.000787  -0.036184
    12  C    0.000104   0.000009  -0.000001  -0.000267   0.000673   0.038249
    13  C    0.000012   0.000001   0.000000  -0.000012   0.000046   0.012720
    14  C   -0.000001   0.000000  -0.000000  -0.000001   0.000004   0.000174
    15  C    0.000000  -0.000000   0.000000  -0.000000   0.000001   0.000175
    16  C    0.000000   0.000000  -0.000000  -0.000000   0.000000   0.000007
    17  N   -0.000000   0.000000   0.000000  -0.000000   0.000000   0.000000
    18  C   -0.000004   0.000000  -0.000000  -0.000001   0.000006   0.000666
    19  C   -0.000096  -0.000002  -0.000003   0.000006   0.000053  -0.006937
    20  C   -0.056649  -0.005800   0.052959   0.007540   0.009311   0.049994
    21  H    0.000098   0.002771  -0.000152  -0.000031  -0.000000  -0.000000
    22  H    0.000025  -0.000147   0.003169   0.000285   0.000003   0.000000
    23  H   -0.000146   0.000096   0.000026   0.000046  -0.000000   0.000000
    24  H   -0.004181  -0.004151   0.005412   0.000080   0.000002  -0.000000
    25  H    0.550550  -0.027025  -0.028290   0.000052  -0.000000  -0.000000
    26  H   -0.027025   0.562247  -0.029309  -0.000029  -0.000000   0.000000
    27  H   -0.028290  -0.029309   0.555646   0.000293   0.000003   0.000000
    28  H    0.000052  -0.000029   0.000293   0.589319  -0.005621  -0.000163
    29  H   -0.000000  -0.000000   0.000003  -0.005621   0.577532  -0.005766
    30  H   -0.000000   0.000000   0.000000  -0.000163  -0.005766   0.598550
    31  H    0.000000  -0.000000   0.000000  -0.000000   0.000002   0.000034
    32  H    0.000000   0.000000  -0.000000  -0.000000  -0.000000  -0.000029
    33  H   -0.000000  -0.000000  -0.000000  -0.000000  -0.000000   0.000043
    34  H   -0.000000  -0.000000   0.000000   0.000000   0.000004   0.000299
    35  H   -0.000000   0.000000  -0.000000   0.000000   0.000002   0.000202
    36  H    0.000000   0.000000  -0.000000  -0.000000  -0.000000   0.000167
    37  H   -0.000000  -0.000000  -0.000000   0.000000  -0.000000   0.000001
    38  H    0.000000   0.000000   0.000000   0.000000   0.000000  -0.000000
    39  H   -0.000000   0.000000   0.000000   0.000000   0.000000   0.000000
    40  H    0.000000  -0.000000   0.000000   0.000000  -0.000000  -0.000000
    41  H    0.000001  -0.000012  -0.000007  -0.000170   0.000017  -0.000176
              31         32         33         34         35         36
     1  C    0.000102  -0.000015   0.000158   0.000037   0.000015  -0.000048
     2  C   -0.004620  -0.000418   0.000375   0.000037  -0.000362   0.000692
     3  C   -0.000382   0.000003  -0.000053  -0.000013  -0.000026   0.000282
     4  C    0.026611  -0.004078  -0.018918   0.010437   0.003791  -0.011944
     5  C    0.004659   0.002437  -0.001628  -0.005785  -0.002473   0.001383
     6  C   -0.006124  -0.004213   0.017912  -0.010251  -0.009799  -0.004125
     7  C   -0.123140   0.034757   0.050903  -0.135673  -0.092574   0.035560
     8  C   -0.076411  -0.136491   0.043864   0.115119   0.067841   0.023566
     9  C    0.295365   0.018382  -0.175012  -0.140393  -0.059135  -0.066046
    10  C    0.025903   0.439326   0.486834   0.466752  -0.028036  -0.002244
    11  C    0.159093  -0.031527   0.021285   0.039059   0.713640   0.377576
    12  C   -0.105251   0.035236  -0.013719  -0.098269  -0.393754  -0.076864
    13  C    0.043413  -0.011809   0.002937   0.043653   0.130077  -0.104429
    14  C    0.008246  -0.009850   0.002753   0.004265   0.039473  -0.017589
    15  C   -0.011181   0.009887  -0.000822  -0.000003  -0.010331   0.000030
    16  C   -0.001270   0.001493  -0.000075  -0.000280  -0.001708  -0.000366
    17  N    0.000001  -0.000000   0.000000   0.000000   0.000001   0.000000
    18  C   -0.012986  -0.017168  -0.003574  -0.002410  -0.007093   0.060729
    19  C   -0.061722   0.045804  -0.012953  -0.002041  -0.088704   0.105233
    20  C    0.091417  -0.014750  -0.041724   0.060516   0.040006  -0.010952
    21  H   -0.000000  -0.000000   0.000000   0.000000  -0.000000  -0.000000
    22  H    0.000000   0.000000  -0.000000  -0.000000  -0.000000  -0.000000
    23  H   -0.000000   0.000000   0.000000  -0.000000  -0.000000  -0.000000
    24  H   -0.000002  -0.000000   0.000000   0.000000  -0.000000  -0.000000
    25  H    0.000000   0.000000  -0.000000  -0.000000  -0.000000   0.000000
    26  H   -0.000000   0.000000  -0.000000  -0.000000   0.000000   0.000000
    27  H    0.000000  -0.000000  -0.000000   0.000000  -0.000000  -0.000000
    28  H   -0.000000  -0.000000  -0.000000   0.000000   0.000000  -0.000000
    29  H    0.000002  -0.000000  -0.000000   0.000004   0.000002  -0.000000
    30  H    0.000034  -0.000029   0.000043   0.000299   0.000202   0.000167
    31  H    0.623601  -0.003622  -0.004049   0.005510   0.005724  -0.005138
    32  H   -0.003622   0.549524  -0.026320  -0.030014  -0.000020  -0.000004
    33  H   -0.004049  -0.026320   0.548062  -0.027061   0.000114  -0.000142
    34  H    0.005510  -0.030014  -0.027061   0.557407   0.003316  -0.000044
    35  H    0.005724  -0.000020   0.000114   0.003316   0.578533  -0.033067
    36  H   -0.005138  -0.000004  -0.000142  -0.000044  -0.033067   0.569191
    37  H   -0.000003  -0.000166   0.000015  -0.000143   0.003689   0.000129
    38  H    0.000000  -0.000007   0.000000   0.000000  -0.000004   0.000002
    39  H    0.000003  -0.000001   0.000000   0.000000   0.000002  -0.000004
    40  H    0.000537  -0.000017   0.000004  -0.000001   0.000143   0.001427
    41  H    0.005455  -0.000010  -0.000000  -0.000008  -0.000013  -0.000006
              37         38         39         40         41
     1  C    0.000000  -0.000000   0.000000  -0.000001   0.006700
     2  C   -0.000007  -0.000000  -0.000000   0.000210  -0.010693
     3  C   -0.000000  -0.000000  -0.000000   0.000006   0.002019
     4  C   -0.000175  -0.000000  -0.000009   0.000482  -0.070944
     5  C    0.000063   0.000000  -0.000000  -0.000119  -0.013920
     6  C    0.000195   0.000003   0.000000   0.000275   0.006264
     7  C    0.003152   0.000074   0.000012  -0.001184  -0.007807
     8  C   -0.016382  -0.000270  -0.000180   0.024944  -0.056307
     9  C    0.013121   0.000409  -0.000070  -0.008989   0.041552
    10  C    0.009670   0.000060   0.000243  -0.005642   0.000754
    11  C   -0.092706  -0.003794  -0.000520  -0.012218   0.033951
    12  C    0.178856   0.025197   0.024752   0.136375  -0.033746
    13  C    0.169015  -0.054051  -0.000661   0.078133  -0.004676
    14  C    0.022993   0.243513   0.047846  -0.017223   0.000194
    15  C   -0.020416   0.080793   0.073328  -0.029595  -0.000207
    16  C   -0.002349  -0.035966  -0.035841  -0.003219  -0.000012
    17  N    0.000026   0.000489   0.000532   0.000033  -0.000000
    18  C   -0.017431   0.049475   0.225163  -0.031070   0.002672
    19  C    0.051852  -0.000267  -0.029063   0.159550   0.014029
    20  C   -0.001689  -0.000003  -0.000076   0.008514   0.366614
    21  H    0.000000  -0.000000  -0.000000   0.000000  -0.000013
    22  H   -0.000000   0.000000  -0.000000   0.000000  -0.000007
    23  H    0.000000   0.000000  -0.000000  -0.000000   0.000017
    24  H   -0.000000  -0.000000   0.000000   0.000000   0.005119
    25  H   -0.000000   0.000000  -0.000000   0.000000   0.000001
    26  H   -0.000000   0.000000   0.000000  -0.000000  -0.000012
    27  H   -0.000000   0.000000   0.000000   0.000000  -0.000007
    28  H    0.000000   0.000000   0.000000   0.000000  -0.000170
    29  H   -0.000000   0.000000   0.000000  -0.000000   0.000017
    30  H    0.000001  -0.000000   0.000000  -0.000000  -0.000176
    31  H   -0.000003   0.000000   0.000003   0.000537   0.005455
    32  H   -0.000166  -0.000007  -0.000001  -0.000017  -0.000010
    33  H    0.000015   0.000000   0.000000   0.000004  -0.000000
    34  H   -0.000143   0.000000   0.000000  -0.000001  -0.000008
    35  H    0.003689  -0.000004   0.000002   0.000143  -0.000013
    36  H    0.000129   0.000002  -0.000004   0.001427  -0.000006
    37  H    0.578163  -0.005056   0.000016  -0.000167   0.000000
    38  H   -0.005056   0.552242  -0.000147   0.000017  -0.000000
    39  H    0.000016  -0.000147   0.552714  -0.005060  -0.000000
    40  H   -0.000167   0.000017  -0.005060   0.578937  -0.000004
    41  H    0.000000  -0.000000  -0.000000  -0.000004   0.608923
 Mulliken charges:
               1
     1  C   -0.566114
     2  C    0.430386
     3  C   -0.562719
     4  C   -0.438885
     5  C    0.024383
     6  C   -0.292977
     7  C    0.134145
     8  C   -0.312280
     9  C    0.359610
    10  C   -0.577249
    11  C   -0.732271
    12  C    0.550841
    13  C   -0.177665
    14  C   -0.242697
    15  C    0.389366
    16  C   -0.175972
    17  N   -0.539395
    18  C   -0.280129
    19  C    0.299081
    20  C   -0.150716
    21  H    0.142349
    22  H    0.146740
    23  H    0.148775
    24  H    0.117035
    25  H    0.147895
    26  H    0.142304
    27  H    0.146776
    28  H    0.116106
    29  H    0.124636
    30  H    0.110965
    31  H    0.120224
    32  H    0.153681
    33  H    0.150793
    34  H    0.145976
    35  H    0.140528
    36  H    0.157051
    37  H    0.125730
    38  H    0.147289
    39  H    0.147021
    40  H    0.124924
    41  H    0.104458
 Sum of Mulliken charges =  -0.00000
 Mulliken charges with hydrogens summed into heavy atoms:
               1
     1  C   -0.128251
     2  C    0.547421
     3  C   -0.125744
     4  C   -0.438885
     5  C    0.140489
     6  C   -0.168341
     7  C    0.245111
     8  C   -0.312280
     9  C    0.479834
    10  C   -0.126798
    11  C   -0.434693
    12  C    0.550841
    13  C   -0.051935
    14  C   -0.095408
    15  C    0.389366
    16  C   -0.175972
    17  N   -0.539395
    18  C   -0.133108
    19  C    0.424004
    20  C   -0.046258
 Electronic spatial extent (au):  <R**2>=           9740.2067
 Charge=              0.0000 electrons
 Dipole moment (field-independent basis, Debye):
    X=              5.4235    Y=              1.0700    Z=             -0.5660  Tot=              5.5570
 Quadrupole moment (field-independent basis, Debye-Ang):
   XX=           -169.3992   YY=           -113.9596   ZZ=           -125.9663
   XY=            -13.4604   XZ=              2.9282   YZ=             -1.7191
 Traceless Quadrupole moment (field-independent basis, Debye-Ang):
   XX=            -32.9575   YY=             22.4821   ZZ=             10.4754
   XY=            -13.4604   XZ=              2.9282   YZ=             -1.7191
 Octapole moment (field-independent basis, Debye-Ang**2):
  XXX=            523.6748  YYY=              4.7781  ZZZ=              6.0750  XYY=              5.8218
  XXY=             94.9927  XXZ=            -36.3736  XZZ=              6.7126  YZZ=             -1.1540
  YYZ=             -6.5384  XYZ=            -11.3315
 Hexadecapole moment (field-independent basis, Debye-Ang**3):
 XXXX=         -15953.8429 YYYY=          -1278.8829 ZZZZ=           -570.4799 XXXY=           -831.7276
 XXXZ=            195.0634 YYYX=            -17.0760 YYYZ=            -24.0994 ZZZX=              4.2059
 ZZZY=              3.6600 XXYY=          -2223.4364 XXZZ=          -2185.9515 YYZZ=           -327.9994
 XXYZ=             -0.5708 YYXZ=             -0.4733 ZZXY=             -8.8995
 N-N= 1.356809197822D+03 E-N=-4.543374328962D+03  KE= 7.836744706511D+02
 Unable to Open any file for archive entry.
 1\1\GINC-N1\SP\RB3LYP TD-FC\6-31+G(d,p)\C19H21N1\HPCMGAC13\26-Aug-2025
 \0\\# td=(50-50,nstates=3) b3lyp/6-31+g(d,p) geom=connectivity\\Title 
 Card Required\\0,1\C,0,-5.781814,-1.144613,-1.241184\C,0,-4.681502,-1.
 44259,-0.203702\C,0,-5.293353,-1.916922,1.129002\C,0,-3.744742,-0.2562
 95,-0.011029\C,0,-4.206468,0.970468,0.488281\C,0,-3.329291,2.044003,0.
 652294\C,0,-1.978817,1.91302,0.321713\C,0,-1.486027,0.699306,-0.178368
 \C,0,-0.016747,0.522352,-0.539297\C,0,0.432007,1.499359,-1.641218\C,0,
 0.877355,0.622732,0.733311\C,0,2.322531,0.236415,0.508077\C,0,3.335042
 ,1.204471,0.426244\C,0,4.663974,0.846921,0.207849\C,0,5.008981,-0.5073
 84,0.065907\C,0,6.374568,-0.885876,-0.157935\N,0,7.482448,-1.19346,-0.
 34076\C,0,4.006695,-1.490434,0.149876\C,0,2.685102,-1.114243,0.369732\
 C,0,-2.384865,-0.365768,-0.33442\H,0,-6.40011,-2.033141,-1.412277\H,0,
 -6.442809,-0.340046,-0.899462\H,0,-5.350992,-0.838279,-2.199958\H,0,-4
 .073911,-2.268038,-0.597977\H,0,-4.514676,-2.160742,1.85909\H,0,-5.908
 203,-2.810671,0.973445\H,0,-5.934442,-1.144912,1.569475\H,0,-5.253835,
 1.093611,0.750107\H,0,-3.700157,2.989429,1.038964\H,0,-1.313769,2.7623
 38,0.453213\H,0,0.098138,-0.496059,-0.932996\H,0,1.467177,1.307748,-1.
 940587\H,0,-0.202955,1.398339,-2.526785\H,0,0.36723,2.539791,-1.303002
 \H,0,0.828479,1.645427,1.12464\H,0,0.447131,-0.028238,1.503461\H,0,3.0
 80343,2.25466,0.539097\H,0,5.435829,1.60726,0.148899\H,0,4.272047,-2.5
 37674,0.048578\H,0,1.920813,-1.883621,0.442961\H,0,-2.01423,-1.312494,
 -0.724366\\Version=ES64L-G16RevC.02\State=1-A\HF=-791.4866439\RMSD=3.5
 96e-09\PG=C01 [X(C19H21N1)]\\@
 The archive entry for this job was punched.


 MANHOOD BEGINS BY TRYING TO SHAVE FACE,
 AND ENDS BY TRYING TO SAVE FACE.
 Job cpu time:       0 days  1 hours 53 minutes 18.4 seconds.
 Elapsed time:       0 days  0 hours  7 minutes 15.5 seconds.
 File lengths (MBytes):  RWF=   1273 Int=      0 D2E=      0 Chk=     60 Scr=      2
 Normal termination of Gaussian 16 at Tue Aug 26 09:06:29 2025.
