 Entering Gaussian System, Link 0=g16
 Input=M729E.gjf
 Output=M729E.log
 Initial command:
 /hpc/softwares/Gaussian/g16/l1.exe "/hpc/home/hpcmgac13/pbs.13477.admin1.x8z/Gau-461127.inp" -scrdir="/hpc/home/hpcmgac13/pbs.13477.admin1.x8z/"
 Default linda workers: n1
 Default is to use  16 SMP processors on each worker.
 Entering Link 1 = /hpc/softwares/Gaussian/g16/l1.exe PID=    461128.
  
 Copyright (c) 1988-2021, Gaussian, Inc.  All Rights Reserved.
  
 This is part of the Gaussian(R) 16 program.  It is based on
 the Gaussian(R) 09 system (copyright 2009, Gaussian, Inc.),
 the Gaussian(R) 03 system (copyright 2003, Gaussian, Inc.),
 the Gaussian(R) 98 system (copyright 1998, Gaussian, Inc.),
 the Gaussian(R) 94 system (copyright 1995, Gaussian, Inc.),
 the Gaussian 92(TM) system (copyright 1992, Gaussian, Inc.),
 the Gaussian 90(TM) system (copyright 1990, Gaussian, Inc.),
 the Gaussian 88(TM) system (copyright 1988, Gaussian, Inc.),
 the Gaussian 86(TM) system (copyright 1986, Carnegie Mellon
 University), and the Gaussian 82(TM) system (copyright 1983,
 Carnegie Mellon University). Gaussian is a federally registered
 trademark of Gaussian, Inc.
  
 This software contains proprietary and confidential information,
 including trade secrets, belonging to Gaussian, Inc.
  
 This software is provided under written license and may be
 used, copied, transmitted, or stored only in accord with that
 written license.
  
 The following legend is applicable only to US Government
 contracts under FAR:
  
                    RESTRICTED RIGHTS LEGEND
  
 Use, reproduction and disclosure by the US Government is
 subject to restrictions as set forth in subparagraphs (a)
 and (c) of the Commercial Computer Software - Restricted
 Rights clause in FAR 52.227-19.
  
 Gaussian, Inc.
 340 Quinnipiac St., Bldg. 40, Wallingford CT 06492
  
  
 ---------------------------------------------------------------
 Warning -- This program may not be used in any manner that
 competes with the business of Gaussian, Inc. or will provide
 assistance to any competitor of Gaussian, Inc.  The licensee
 of this program is prohibited from giving any competitor of
 Gaussian, Inc. access to this program.  By using this program,
 the user acknowledges that Gaussian, Inc. is engaged in the
 business of creating and licensing software in the field of
 computational chemistry and represents and warrants to the
 licensee that it is not a competitor of Gaussian, Inc. and that
 it will not use this program in any manner prohibited above.
 ---------------------------------------------------------------
  

 Cite this work as:
 Gaussian 16, Revision C.02,
 M. J. Frisch, G. W. Trucks, H. B. Schlegel, G. E. Scuseria, 
 M. A. Robb, J. R. Cheeseman, G. Scalmani, V. Barone, 
 G. A. Petersson, H. Nakatsuji, X. Li, M. Caricato, A. V. Marenich, 
 J. Bloino, B. G. Janesko, R. Gomperts, B. Mennucci, H. P. Hratchian, 
 J. V. Ortiz, A. F. Izmaylov, J. L. Sonnenberg, D. Williams-Young, 
 F. Ding, F. Lipparini, F. Egidi, J. Goings, B. Peng, A. Petrone, 
 T. Henderson, D. Ranasinghe, V. G. Zakrzewski, J. Gao, N. Rega, 
 G. Zheng, W. Liang, M. Hada, M. Ehara, K. Toyota, R. Fukuda, 
 J. Hasegawa, M. Ishida, T. Nakajima, Y. Honda, O. Kitao, H. Nakai, 
 T. Vreven, K. Throssell, J. A. Montgomery, Jr., J. E. Peralta, 
 F. Ogliaro, M. J. Bearpark, J. J. Heyd, E. N. Brothers, K. N. Kudin, 
 V. N. Staroverov, T. A. Keith, R. Kobayashi, J. Normand, 
 K. Raghavachari, A. P. Rendell, J. C. Burant, S. S. Iyengar, 
 J. Tomasi, M. Cossi, J. M. Millam, M. Klene, C. Adamo, R. Cammi, 
 J. W. Ochterski, R. L. Martin, K. Morokuma, O. Farkas, 
 J. B. Foresman, and D. J. Fox, Gaussian, Inc., Wallingford CT, 2019.
 
 ******************************************
 Gaussian 16:  ES64L-G16RevC.02  7-Dec-2021
                26-Aug-2025 
 ******************************************
 SetLPE:    new flags="-opt 'Tsnet.Node.lindarsharg: ssh'  -nodelist 'n1' -env GAUSS_MDEF=4294967296 -env GAUSS_EXEDIR="/hpc/softwares/Gaussian/g16/bsd:/hpc/softwares/Gaussian/g16""
 Will use up to    1 processors via Linda.
 ----------------------------------------------------------
 # td=(50-50,nstates=3) b3lyp/6-31+g(d,p) geom=connectivity
 ----------------------------------------------------------
 1/38=1,57=2,172=1/1;
 2/12=2,17=6,18=5,40=1/2;
 3/5=1,6=6,7=111,11=9,25=1,30=1,74=-5/1,2,3,8;
 4//1;
 5/5=2,38=5/2;
 8/6=1,10=2,108=3/1;
 9/41=3,42=1,48=2,70=2/14;
 6/7=2,8=2,9=2,10=2/1;
 99/5=1,9=1/99;
 -------------------
 Title Card Required
 -------------------
 Symbolic Z-matrix:
 Charge =  0 Multiplicity = 1
 C                    -5.59318   0.90767   0.96658 
 O                    -4.70873  -0.15934   0.61729 
 C                    -3.4379    0.11468   0.27075 
 C                    -2.89594   1.36374   0.21769 
 C                    -1.52257   1.61659  -0.16489 
 C                    -1.04014   2.91285  -0.22673 
 C                     0.34567   3.38134  -0.61756 
 C                    -1.93961   3.97087   0.11409 
 N                    -2.64487   4.85952   0.38634 
 C                    -0.71908   0.42926  -0.47803 
 O                     0.569     0.66416  -0.81032 
 C                     1.41231  -0.44342  -1.20193 
 O                     2.62963   0.07086  -1.59013 
 C                     3.57333   0.34002  -0.53788 
 C                     4.49068  -0.86456  -0.39034 
 Br                    5.92692  -0.4868    0.89201 
 C                    -1.26653  -0.82325  -0.42933 
 C                    -2.6352   -1.06084  -0.0617 
 C                    -3.13399  -2.3615   -0.03078 
 C                    -4.46122  -2.75977   0.31457 
 N                    -5.50807  -3.20007   0.57575 
 C                    -2.26945  -3.44954  -0.36938 
 N                    -1.54039  -4.31513  -0.64884 
 H                    -6.54184   0.42793   1.20421 
 H                    -5.21928   1.45174   1.84109 
 H                    -5.72274   1.59659   0.12447 
 H                    -3.50719   2.22181   0.46266 
 H                     0.63024   3.00499  -1.60307 
 H                     0.37836   4.47181  -0.6312 
 H                     1.09749   3.02088   0.0912 
 H                     1.49097  -1.13618  -0.35193 
 H                     0.96576  -0.93949  -2.06888 
 H                     4.14001   1.21982  -0.8494 
 H                     3.05846   0.5731    0.40034 
 H                     3.9687   -1.74518  -0.0152 
 H                     4.97649  -1.09934  -1.33672 
 H                    -0.66659  -1.69088  -0.66609 
 
                          Input orientation:                          
 ---------------------------------------------------------------------
 Center     Atomic      Atomic             Coordinates (Angstroms)
 Number     Number       Type             X           Y           Z
 ---------------------------------------------------------------------
      1          6           0       -5.593175    0.907669    0.966578
      2          8           0       -4.708733   -0.159338    0.617285
      3          6           0       -3.437903    0.114677    0.270752
      4          6           0       -2.895936    1.363739    0.217688
      5          6           0       -1.522570    1.616592   -0.164894
      6          6           0       -1.040143    2.912846   -0.226728
      7          6           0        0.345668    3.381342   -0.617559
      8          6           0       -1.939605    3.970866    0.114088
      9          7           0       -2.644866    4.859519    0.386338
     10          6           0       -0.719078    0.429258   -0.478025
     11          8           0        0.568998    0.664161   -0.810324
     12          6           0        1.412310   -0.443424   -1.201934
     13          8           0        2.629626    0.070861   -1.590131
     14          6           0        3.573326    0.340019   -0.537875
     15          6           0        4.490684   -0.864557   -0.390342
     16         35           0        5.926919   -0.486800    0.892010
     17          6           0       -1.266525   -0.823251   -0.429326
     18          6           0       -2.635199   -1.060844   -0.061704
     19          6           0       -3.133992   -2.361501   -0.030780
     20          6           0       -4.461221   -2.759769    0.314570
     21          7           0       -5.508071   -3.200071    0.575752
     22          6           0       -2.269453   -3.449542   -0.369379
     23          7           0       -1.540388   -4.315134   -0.648839
     24          1           0       -6.541837    0.427929    1.204213
     25          1           0       -5.219282    1.451737    1.841094
     26          1           0       -5.722744    1.596591    0.124470
     27          1           0       -3.507193    2.221812    0.462663
     28          1           0        0.630235    3.004993   -1.603073
     29          1           0        0.378364    4.471809   -0.631195
     30          1           0        1.097490    3.020876    0.091195
     31          1           0        1.490974   -1.136182   -0.351926
     32          1           0        0.965757   -0.939491   -2.068883
     33          1           0        4.140006    1.219817   -0.849402
     34          1           0        3.058464    0.573104    0.400335
     35          1           0        3.968698   -1.745177   -0.015199
     36          1           0        4.976491   -1.099339   -1.336715
     37          1           0       -0.666590   -1.690877   -0.666085
 ---------------------------------------------------------------------
                    Distance matrix (angstroms):
                    1          2          3          4          5
     1  C    0.000000
     2  O    1.429247   0.000000
     3  C    2.399627   1.345429   0.000000
     4  C    2.836183   2.401182   1.362608   0.000000
     5  C    4.283996   3.730599   2.472658   1.447908   0.000000
     6  C    5.116133   4.858933   3.718399   2.457886   1.384498
     7  C    6.625587   6.293506   5.076968   3.908498   2.609514
     8  C    4.843396   4.997986   4.140004   2.778923   2.407147
     9  N    4.964506   5.431557   4.812047   3.508840   3.475627
    10  C    5.106131   4.178935   2.837541   2.469004   1.467451
    11  O    6.417870   5.529074   4.186396   3.681302   2.387124
    12  C    7.456857   6.391982   5.099495   4.882842   3.732645
    13  O    8.651674   7.666628   6.346630   5.955802   4.654172
    14  C    9.306468   8.377127   7.061302   6.593196   5.266584
    15  C   10.327934   9.281267   8.016136   7.739325   6.508929
    16  Br  11.604425  10.644238   9.404660   9.040021   7.812566
    17  C    4.864620   3.658548   2.466719   2.802951   2.467452
    18  C    3.698923   2.360780   1.461749   2.454516   2.901251
    19  C    4.210674   2.783760   2.512915   3.741099   4.294169
    20  C    3.893140   2.629665   3.051482   4.411669   5.293212
    21  N    4.127168   3.144316   3.919971   5.270657   6.295476
    22  C    5.640673   4.212960   3.805089   4.889254   5.124974
    23  N    6.805316   5.376999   4.906061   5.902371   5.951461
    24  H    1.089303   2.012371   3.256360   3.891217   5.336705
    25  H    1.095712   2.086608   2.725255   2.835688   4.209138
    26  H    1.095695   2.086713   2.727263   2.837914   4.210177
    27  H    2.516391   2.671607   2.116991   1.081636   2.167683
    28  H    7.052142   6.591476   5.330562   4.294504   2.937786
    29  H    7.135492   6.991765   5.861911   4.593663   3.461683
    30  H    7.070851   6.640991   5.389622   4.325454   2.983674
    31  H    7.490057   6.350587   5.123105   5.081244   4.085853
    32  H    7.459599   6.326450   5.096801   5.044398   4.043576
    33  H    9.906060   9.074879   7.739560   7.117856   5.717582
    34  H    8.676602   7.804671   6.513811   6.009438   4.732254
    35  H    9.971504   8.843796   7.641895   7.539416   6.440336
    36  H   11.002322   9.924983   8.652156   8.393928   7.140535
    37  H    5.804246   4.509054   3.437712   3.883519   3.453005
                    6          7          8          9         10
     6  C    0.000000
     7  C    1.514170   0.000000
     8  C    1.429893   2.470894   0.000000
     9  N    2.596251   3.483692   1.166712   0.000000
    10  C    2.516832   3.141330   3.792528   4.907443   0.000000
    11  O    2.826040   2.733150   4.252285   5.418667   1.350830
    12  C    4.269672   4.013484   5.696771   6.863271   2.414215
    13  O    4.837660   4.137831   6.244379   7.393101   3.546695
    14  C    5.291535   4.435513   6.633288   7.742478   4.293749
    15  C    6.699671   5.938050   8.061289   9.180651   5.368730
    16  Br   7.832568   6.956413   9.075139  10.115055   6.847294
    17  C    3.748428   4.507017   4.871539   5.904152   1.367790
    18  C    4.285049   5.378435   5.082604   5.937300   2.462772
    19  C    5.678145   6.740370   6.445651   7.249577   3.717549
    20  C    6.646453   7.854189   7.190284   7.833125   4.980134
    21  N    7.614073   8.888490   8.023056   8.555163   6.100568
    22  C    6.481630   7.318567   7.443453   8.351798   4.178583
    23  N    7.257556   7.924262   8.330620   9.298695   4.817985
    24  H    6.204115   7.712278   5.909426   5.957709   6.060895
    25  H    4.886300   6.382556   4.481612   4.511863   5.164844
    26  H    4.876743   6.368796   4.466479   4.493173   5.173233
    27  H    2.653135   4.166045   2.374453   2.776136   3.445538
    28  H    2.166329   1.092637   3.238152   4.257148   3.117818
    29  H    2.146188   1.091042   2.485834   3.213349   4.191665
    30  H    2.163844   1.094305   3.182287   4.180065   3.215651
    31  H    4.776699   4.668009   6.169925   7.321109   2.711242
    32  H    4.717804   4.600049   6.108854   7.259010   2.691277
    33  H    5.485254   4.372979   6.742274   7.798011   4.936963
    34  H    4.760901   4.035043   6.050406   7.134530   3.880983
    35  H    6.843275   6.306376   8.221795   9.355344   5.188219
    36  H    7.316391   6.483688   8.697367   9.826596   5.959317
    37  H    4.639703   5.172468   5.855303   6.923067   2.129106
                   11         12         13         14         15
    11  O    0.000000
    12  C    1.446125   0.000000
    13  O    2.281730   1.377332   0.000000
    14  C    3.034021   2.392644   1.438839   0.000000
    15  C    4.230010   3.211296   2.403755   1.521287   0.000000
    16  Br   5.738464   4.976764   4.164631   2.875344   1.962116
    17  C    2.393052   2.813778   4.162559   4.978869   5.757489
    18  C    3.715233   4.250137   5.597788   6.382393   7.136157
    19  C    4.845044   5.071438   6.447267   7.248687   7.778548
    20  C    6.188036   6.493351   7.868956   8.653860   9.177436
    21  N    7.333776   7.658390   9.033945   9.810411  10.313247
    22  C    5.017349   4.825482   6.155034   6.966149   7.237544
    23  N    5.410080   4.900457   6.124704   6.916128   6.953210
    24  H    7.394467   8.355672   9.594352  10.264459  11.221838
    25  H    6.415176   7.538545   8.676721   9.176348  10.228781
    26  H    6.428785   7.538568   8.661974   9.403967  10.518384
    27  H    4.545559   5.837455   6.819172   7.394320   8.615064
    28  H    2.472184   3.558670   3.550614   4.110781   5.598857
    29  H    3.816623   5.055126   5.035482   5.223809   6.741364
    30  H    2.578012   3.711155   3.725169   3.703038   5.180949
    31  H    2.073982   1.099370   2.070419   2.559284   3.012228
    32  H    2.076798   1.094117   2.004613   3.283374   3.904898
    33  H    3.614191   3.214183   2.037162   1.091888   2.162944
    34  H    2.769734   2.512055   2.097166   1.095285   2.177910
    35  H    4.242062   3.104516   2.751639   2.185761   1.090272
    36  H    4.776297   3.626538   2.634647   2.163046   1.089382
    37  H    2.663398   2.482962   3.850016   4.702963   5.230326
                   16         17         18         19         20
    16  Br   0.000000
    17  C    7.321527   0.000000
    18  C    8.634174   1.436964   0.000000
    19  C    9.298718   2.452037   1.393363   0.000000
    20  C   10.649567   3.809142   2.522357   1.428083   0.000000
    21  N   11.756737   4.964894   3.638136   2.589852   1.165323
    22  C    8.806217   2.811914   2.436044   1.430353   2.397378
    23  N    8.531766   3.509478   3.483352   2.595814   3.446532
    24  H   12.506162   5.662404   4.368159   4.573788   3.909200
    25  H   11.353259   5.094572   4.075683   4.732138   4.543315
    26  H   11.859354   5.101001   4.077935   4.732043   4.539323
    27  H    9.824632   3.884411   3.436738   4.624881   5.074273
    28  H    6.817105   4.430670   5.437822   6.740977   7.926712
    29  H    7.595684   5.548340   6.325830   7.706573   8.752815
    30  H    6.022332   4.542777   5.533243   6.847649   8.022781
    31  H    4.652599   2.776278   4.137053   4.795295   6.205552
    32  H    5.795252   2.772137   4.124364   4.794155   6.200512
    33  H    3.022932   5.794926   7.192029   8.149051   9.548458
    34  H    3.097285   4.619921   5.941470   6.866169   8.225634
    35  H    2.498233   5.331886   6.639422   7.129397   8.497157
    36  H    2.499146   6.314652   7.717834   8.311345   9.723897
    37  H    6.881266   1.081088   2.153518   2.634658   4.062442
                   21         22         23         24         25
    21  N    0.000000
    22  C    3.382921   0.000000
    23  N    4.299476   1.165711   0.000000
    24  H    3.824398   5.980321   7.137572   0.000000
    25  H    4.829473   6.132717   7.279480   1.789679   0.000000
    26  H    4.822624   6.134539   7.282761   1.789561   1.794785
    27  H    5.780408   5.864175   6.916316   3.602357   2.329020
    28  H    8.996049   7.182702   7.694571   8.121621   6.963601
    29  H    9.744977   8.356272   8.994014   8.222583   6.823979
    30  H    9.086716   7.308539   7.830906   8.143801   6.739878
    31  H    7.355736   4.415059   4.402618   8.330310   7.518923
    32  H    7.349474   4.433425   4.437595   8.303431   7.698091
    33  H   10.707561   7.944463   7.933649  10.906246   9.741090
    34  H    9.362326   6.720182   6.793017   9.634992   8.448009
    35  H    9.605992   6.476483   6.111972  10.801884   9.903790
    36  H   10.862626   7.678730   7.299604  11.893727  10.979993
    37  H    5.221088   2.397938   2.765962   6.519653   6.073629
                   26         27         28         29         30
    26  H    0.000000
    27  H    2.326788   0.000000
    28  H    6.732633   4.690304   0.000000
    29  H    6.786857   4.621316   1.777508   0.000000
    30  H    6.967445   4.688240   1.757590   1.773188   0.000000
    31  H    7.728695   6.076294   4.410847   5.724112   4.199085
    32  H    7.481882   6.034057   3.986039   5.629755   4.513070
    33  H    9.917874   7.823373   4.009160   4.977250   3.658612
    34  H    8.844956   6.769784   3.977942   4.842199   3.151599
    35  H   10.252364   8.476692   6.019202   7.205613   5.565107
    36  H   11.129992   9.286587   5.983847   7.257976   5.836244
    37  H    6.082525   4.965101   4.960937   6.250748   5.087835
                   31         32         33         34         35
    31  H    0.000000
    32  H    1.806234   0.000000
    33  H    3.579886   4.028101   0.000000
    34  H    2.438151   3.572731   1.774771   0.000000
    35  H    2.573592   3.726178   3.084871   2.524999   0.000000
    36  H    3.622153   4.080148   2.513099   3.081110   1.783019
    37  H    2.249770   2.279689   5.622198   4.487637   4.681078
                   36         37
    36  H    0.000000
    37  H    5.713495   0.000000
 Stoichiometry    C16H14BrN3O3
 Framework group  C1[X(C16H14BrN3O3)]
 Deg. of freedom   105
 Full point group                 C1      NOp   1
 Largest Abelian subgroup         C1      NOp   1
 Largest concise Abelian subgroup C1      NOp   1
                         Standard orientation:                         
 ---------------------------------------------------------------------
 Center     Atomic      Atomic             Coordinates (Angstroms)
 Number     Number       Type             X           Y           Z
 ---------------------------------------------------------------------
      1          6           0        5.593175    0.907669   -0.966578
      2          8           0        4.708733   -0.159338   -0.617285
      3          6           0        3.437903    0.114677   -0.270752
      4          6           0        2.895936    1.363739   -0.217688
      5          6           0        1.522570    1.616592    0.164894
      6          6           0        1.040143    2.912846    0.226728
      7          6           0       -0.345668    3.381342    0.617559
      8          6           0        1.939605    3.970866   -0.114088
      9          7           0        2.644866    4.859519   -0.386338
     10          6           0        0.719078    0.429258    0.478025
     11          8           0       -0.568998    0.664161    0.810324
     12          6           0       -1.412310   -0.443424    1.201934
     13          8           0       -2.629626    0.070861    1.590131
     14          6           0       -3.573326    0.340019    0.537875
     15          6           0       -4.490684   -0.864557    0.390342
     16         35           0       -5.926919   -0.486800   -0.892010
     17          6           0        1.266525   -0.823251    0.429326
     18          6           0        2.635199   -1.060844    0.061704
     19          6           0        3.133992   -2.361501    0.030780
     20          6           0        4.461221   -2.759769   -0.314570
     21          7           0        5.508071   -3.200071   -0.575752
     22          6           0        2.269453   -3.449542    0.369379
     23          7           0        1.540388   -4.315134    0.648839
     24          1           0        6.541837    0.427929   -1.204213
     25          1           0        5.219282    1.451737   -1.841094
     26          1           0        5.722744    1.596591   -0.124470
     27          1           0        3.507193    2.221812   -0.462663
     28          1           0       -0.630235    3.004993    1.603073
     29          1           0       -0.378364    4.471809    0.631195
     30          1           0       -1.097490    3.020876   -0.091195
     31          1           0       -1.490974   -1.136182    0.351926
     32          1           0       -0.965757   -0.939491    2.068883
     33          1           0       -4.140006    1.219817    0.849402
     34          1           0       -3.058464    0.573104   -0.400335
     35          1           0       -3.968698   -1.745177    0.015199
     36          1           0       -4.976491   -1.099339    1.336715
     37          1           0        0.666590   -1.690877    0.666085
 ---------------------------------------------------------------------
 Rotational constants (GHZ):           0.2739123           0.0867127           0.0693988
 Standard basis: 6-31+G(d,p) (6D, 7F)
 There are   522 symmetry adapted cartesian basis functions of A   symmetry.
 There are   522 symmetry adapted basis functions of A   symmetry.
   522 basis functions,   889 primitive gaussians,   522 cartesian basis functions
    95 alpha electrons       95 beta electrons
       nuclear repulsion energy      2100.1113516271 Hartrees.
 NAtoms=   37 NActive=   37 NUniq=   37 SFac= 1.00D+00 NAtFMM=   60 NAOKFM=F Big=F
 Integral buffers will be    131072 words long.
 Regular integral format.
 Two-electron integral symmetry is turned on.
 One-electron integrals computed using PRISM.
 NBasis=   522 RedAO= T EigKep=  1.11D-06  NBF=   522
 NBsUse=   516 1.00D-06 EigRej=  8.28D-07 NBFU=   516
 ExpMin= 3.50D-02 ExpMax= 5.74D+05 ExpMxC= 5.74D+03 IAcc=3 IRadAn=         5 AccDes= 0.00D+00
 Harris functional with IExCor=  402 and IRadAn=       5 diagonalized for initial guess.
 HarFok:  IExCor=  402 AccDes= 0.00D+00 IRadAn=         5 IDoV= 1 UseB2=F ITyADJ=14
 ICtDFT=  3500011 ScaDFX=  1.000000  1.000000  1.000000  1.000000
 FoFCou: FMM=F IPFlag=           0 FMFlag=      100000 FMFlg1=           0
         NFxFlg=           0 DoJE=T BraDBF=F KetDBF=T FulRan=T
         wScrn=  0.000000 ICntrl=       500 IOpCl=  0 I1Cent=   200000004 NGrid=           0
         NMat0=    1 NMatS0=      1 NMatT0=    0 NMatD0=    1 NMtDS0=    0 NMtDT0=    0
 Petite list used in FoFCou.
 Requested convergence on RMS density matrix=1.00D-08 within 128 cycles.
 Requested convergence on MAX density matrix=1.00D-06.
 Requested convergence on             energy=1.00D-06.
 No special actions if energy rises.
 SCF Done:  E(RB3LYP) =  -3579.71952645     A.U. after   17 cycles
            NFock= 17  Conv=0.23D-08     -V/T= 2.0072
 DoSCS=F DFT=T ScalE2(SS,OS)=  1.000000  1.000000
 ExpMin= 3.50D-02 ExpMax= 5.74D+05 ExpMxC= 5.74D+03 IAcc=3 IRadAn=         5 AccDes= 0.00D+00
 HarFok:  IExCor=  205 AccDes= 0.00D+00 IRadAn=         5 IDoV=-2 UseB2=F ITyADJ=14
 ICtDFT= 12500011 ScaDFX=  1.000000  1.000000  1.000000  1.000000
 GSVD:  LWork=       -1584 too small for GESVD, short by        7020 words or        7020 for optimal perf.
 Range of M.O.s used for correlation:    37   516
 NBasis=   522 NAE=    95 NBE=    95 NFC=    36 NFV=     0
 NROrb=    480 NOA=    59 NOB=    59 NVA=   421 NVB=   421

 **** Warning!!: The largest alpha MO coefficient is  0.20267781D+03


 **** Warning!!: The smallest alpha delta epsilon is  0.98313358D-01

 Orbital symmetries:
       Occupied  (A) (A) (A) (A) (A) (A) (A) (A) (A) (A) (A) (A)
                 (A) (A) (A) (A) (A) (A) (A) (A) (A) (A) (A) (A)
                 (A) (A) (A) (A) (A) (A) (A) (A) (A) (A) (A) (A)
                 (A) (A) (A) (A) (A) (A) (A) (A) (A) (A) (A) (A)
                 (A) (A) (A) (A) (A) (A) (A) (A) (A) (A) (A) (A)
                 (A) (A) (A) (A) (A) (A) (A) (A) (A) (A) (A) (A)
                 (A) (A) (A) (A) (A) (A) (A) (A) (A) (A) (A) (A)
                 (A) (A) (A) (A) (A) (A) (A) (A) (A) (A) (A)
       Virtual   (A) (A) (A) (A) (A) (A) (A) (A) (A) (A) (A) (A)
                 (A) (A) (A) (A) (A) (A) (A) (A) (A) (A) (A) (A)
                 (A) (A) (A) (A) (A) (A) (A) (A) (A) (A) (A) (A)
                 (A) (A) (A) (A) (A) (A) (A) (A) (A) (A) (A) (A)
                 (A) (A) (A) (A) (A) (A) (A) (A) (A) (A) (A) (A)
                 (A) (A) (A) (A) (A) (A) (A) (A) (A) (A) (A) (A)
                 (A) (A) (A) (A) (A) (A) (A) (A) (A) (A) (A) (A)
                 (A) (A) (A) (A) (A) (A) (A) (A) (A) (A) (A) (A)
                 (A) (A) (A) (A) (A) (A) (A) (A) (A) (A) (A) (A)
                 (A) (A) (A) (A) (A) (A) (A) (A) (A) (A) (A) (A)
                 (A) (A) (A) (A) (A) (A) (A) (A) (A) (A) (A) (A)
                 (A) (A) (A) (A) (A) (A) (A) (A) (A) (A) (A) (A)
                 (A) (A) (A) (A) (A) (A) (A) (A) (A) (A) (A) (A)
                 (A) (A) (A) (A) (A) (A) (A) (A) (A) (A) (A) (A)
                 (A) (A) (A) (A) (A) (A) (A) (A) (A) (A) (A) (A)
                 (A) (A) (A) (A) (A) (A) (A) (A) (A) (A) (A) (A)
                 (A) (A) (A) (A) (A) (A) (A) (A) (A) (A) (A) (A)
                 (A) (A) (A) (A) (A) (A) (A) (A) (A) (A) (A) (A)
                 (A) (A) (A) (A) (A) (A) (A) (A) (A) (A) (A) (A)
                 (A) (A) (A) (A) (A) (A) (A) (A) (A) (A) (A) (A)
                 (A) (A) (A) (A) (A) (A) (A) (A) (A) (A) (A) (A)
                 (A) (A) (A) (A) (A) (A) (A) (A) (A) (A) (A) (A)
                 (A) (A) (A) (A) (A) (A) (A) (A) (A) (A) (A) (A)
                 (A) (A) (A) (A) (A) (A) (A) (A) (A) (A) (A) (A)
                 (A) (A) (A) (A) (A) (A) (A) (A) (A) (A) (A) (A)
                 (A) (A) (A) (A) (A) (A) (A) (A) (A) (A) (A) (A)
                 (A) (A) (A) (A) (A) (A) (A) (A) (A) (A) (A) (A)
                 (A) (A) (A) (A) (A) (A) (A) (A) (A) (A) (A) (A)
                 (A) (A) (A) (A) (A) (A) (A) (A) (A) (A) (A) (A)
                 (A) (A) (A) (A) (A) (A) (A) (A) (A) (A) (A) (A)
                 (A) (A) (A) (A) (A) (A) (A) (A) (A) (A) (A) (A)
                 (A) (A) (A) (A) (A) (A) (A) (A) (A) (A) (A) (A)
                 (A) (A) (A) (A) (A) (A) (A) (A) (A) (A) (A) (A)
                 (A) (A) (A) (A) (A) (A) (A) (A) (A) (A) (A) (A)
                 (A) (A) (A) (A) (A) (A) (A) (A) (A) (A) (A) (A)
                 (A)
    24 initial guesses have been made.
 Convergence on wavefunction:    0.001000000000000
 Iteration     1 Dimension    24 NMult     0 NNew     24
 CISAX will form    24 AO SS matrices at one time.
 New state      1 was old state      2
 New state      2 was old state      4
 New state      4 was old state     10
 New state      5 was old state      1
 New state      7 was old state      5
 New state      9 was old state      7
 New state     10 was old state     16
 New state     11 was old state     14
 New state     12 was old state     13
 Vector   6 SDiff=1.52D+01 TDiff=1.54D+01 assumed to be singlet.
 Vector  12 SDiff=1.52D+01 TDiff=1.54D+01 assumed to be singlet.
 Iteration     2 Dimension    36 NMult    24 NNew     12
 New state      4 was old state      5
 New state      5 was old state      4
 New state      6 was old state      7
 Iteration     3 Dimension    48 NMult    36 NNew     12
 Iteration     4 Dimension    60 NMult    48 NNew     12
 Iteration     5 Dimension    72 NMult    60 NNew     12
 Iteration     6 Dimension    76 NMult    72 NNew      4
 ***********************************************************************
 Excited states from <AA,BB:AA,BB> singles matrix:
 ***********************************************************************
 
 Ground to excited state transition densities written to RWF  633
 Ground to excited state transition electric dipole moments (Au):
       state          X           Y           Z        Dip. S.      Osc.
         1         0.0000      0.0000      0.0000      0.0000      0.0000
         2         0.0000     -0.0000     -0.0000      0.0000      0.0000
         3         0.0860     -0.8453      0.0069      0.7220      0.0478
         4         1.3006     -3.1110     -0.0922     11.3785      0.8403
         5        -0.0000      0.0000      0.0000      0.0000      0.0000
         6        -0.0254     -0.0415      0.0013      0.0024      0.0002
 Ground to excited state transition velocity dipole moments (Au):
       state          X           Y           Z        Dip. S.      Osc.
         1        -0.0000      0.0000     -0.0000      0.0000      0.0000
         2         0.0000     -0.0000      0.0000      0.0000      0.0000
         3        -0.0070      0.0807     -0.0009      0.0066      0.0440
         4        -0.1394      0.3316      0.0102      0.1295      0.7793
         5         0.0000     -0.0000     -0.0000      0.0000      0.0000
         6         0.0035      0.0056     -0.0001      0.0000      0.0002
 Ground to excited state transition magnetic dipole moments (Au):
       state          X           Y           Z
         1        -0.0000     -0.0000      0.0000
         2        -0.0000      0.0000     -0.0000
         3         0.0935      0.0609      0.7312
         4        -0.1264     -0.1095      1.1999
         5         0.0000     -0.0000     -0.0000
         6        -0.0163      0.0156      0.0098
 Ground to excited state transition velocity quadrupole moments (Au):
       state          XX          YY          ZZ          XY          XZ          YZ
         1         0.0000     -0.0000     -0.0000     -0.0000      0.0000      0.0000
         2        -0.0000      0.0000     -0.0000     -0.0000      0.0000     -0.0000
         3        -0.4322      0.5641     -0.0165      0.2424      0.0661      0.0041
         4        -1.0601      0.0507      0.0209      1.5799      0.0355      0.0349
         5         0.0000     -0.0000     -0.0000     -0.0000      0.0000      0.0000
         6        -0.0173      0.0188     -0.0013      0.0167     -0.0042     -0.0012
 <0|del|b> * <b|rxdel|0> + <0|del|b> * <b|delr+rdel|0>
 Rotatory Strengths (R) in cgs (10**-40 erg-esu-cm/Gauss)
       state          XX          YY          ZZ    R(velocity)    E-M Angle
         1         0.0000     -0.0000      0.0000     -0.0000       90.00
         2        -0.0000     -0.0000     -0.0000     -0.0000       90.00
         3        -4.4589     -3.9074     34.2410      8.6249       86.52
         4       -63.2213     28.3748     -6.5357    -13.7941       90.85
         5         0.0000     -0.0000     -0.0000      0.0000       90.00
         6         0.2743     -0.1521      0.0293      0.0505       90.00
 1/2[<0|r|b>*<b|rxdel|0> + (<0|rxdel|b>*<b|r|0>)*]
 Rotatory Strengths (R) in cgs (10**-40 erg-esu-cm/Gauss)
       state          XX          YY          ZZ     R(length)
         1         0.0000      0.0000     -0.0000      0.0000
         2         0.0000      0.0000     -0.0000      0.0000
         3        -5.6831     36.3957     -3.5488      9.0546
         4       116.2444   -240.8791     78.2550    -15.4599
         5         0.0000      0.0000      0.0000      0.0000
         6        -0.2933      0.4590     -0.0091      0.0522
  1/2[<0|del|b>*<b|r|0> + (<0|r|b>*<b|del|0>)*] (Au)
       state          X           Y           Z        Dip. S.   Osc.(frdel)
         1        -0.0000      0.0000     -0.0000     -0.0000     -0.0000
         2         0.0000      0.0000     -0.0000     -0.0000     -0.0000
         3        -0.0006     -0.0682     -0.0000      0.0688      0.0459
         4        -0.1813     -1.0316     -0.0009      1.2138      0.8092
         5        -0.0000     -0.0000     -0.0000      0.0000      0.0000
         6        -0.0001     -0.0002     -0.0000      0.0003      0.0002

 Excitation energies and oscillator strengths:
 
 Excited State   1:      Triplet-A      0.9293 eV 1334.20 nm  f=0.0000  <S**2>=2.000
      95 -> 96         0.74337
      95 <- 96         0.25779
 This state for optimization and/or second-order correction.
 Total Energy, E(TD-HF/TD-DFT) =  -3579.68537622    
 Copying the excited state density for this state as the 1-particle RhoCI density.
 
 Excited State   2:      Triplet-A      2.0647 eV  600.49 nm  f=0.0000  <S**2>=2.000
      94 -> 96         0.69629
 
 Excited State   3:      Singlet-A      2.7037 eV  458.56 nm  f=0.0478  <S**2>=0.000
      94 -> 96         0.65737
      95 -> 96         0.24761
 
 Excited State   4:      Singlet-A      3.0142 eV  411.33 nm  f=0.8403  <S**2>=0.000
      94 -> 96        -0.24638
      95 -> 96         0.66997
      95 <- 96        -0.14491
 
 Excited State   5:      Triplet-A      3.3259 eV  372.78 nm  f=0.0000  <S**2>=2.000
      91 -> 96         0.58431
      95 -> 97         0.36854
 
 Excited State   6:      Singlet-A      3.8663 eV  320.68 nm  f=0.0002  <S**2>=0.000
      92 -> 96         0.17179
      93 -> 96         0.68549
 SavETr:  write IOETrn=   770 NScale= 10 NData=  16 NLR=1 NState=    6 LETran=     118.

 **********************************************************************

            Population analysis using the SCF Density.

 **********************************************************************

 Orbital symmetries:
       Occupied  (A) (A) (A) (A) (A) (A) (A) (A) (A) (A) (A) (A)
                 (A) (A) (A) (A) (A) (A) (A) (A) (A) (A) (A) (A)
                 (A) (A) (A) (A) (A) (A) (A) (A) (A) (A) (A) (A)
                 (A) (A) (A) (A) (A) (A) (A) (A) (A) (A) (A) (A)
                 (A) (A) (A) (A) (A) (A) (A) (A) (A) (A) (A) (A)
                 (A) (A) (A) (A) (A) (A) (A) (A) (A) (A) (A) (A)
                 (A) (A) (A) (A) (A) (A) (A) (A) (A) (A) (A) (A)
                 (A) (A) (A) (A) (A) (A) (A) (A) (A) (A) (A)
       Virtual   (A) (A) (A) (A) (A) (A) (A) (A) (A) (A) (A) (A)
                 (A) (A) (A) (A) (A) (A) (A) (A) (A) (A) (A) (A)
                 (A) (A) (A) (A) (A) (A) (A) (A) (A) (A) (A) (A)
                 (A) (A) (A) (A) (A) (A) (A) (A) (A) (A) (A) (A)
                 (A) (A) (A) (A) (A) (A) (A) (A) (A) (A) (A) (A)
                 (A) (A) (A) (A) (A) (A) (A) (A) (A) (A) (A) (A)
                 (A) (A) (A) (A) (A) (A) (A) (A) (A) (A) (A) (A)
                 (A) (A) (A) (A) (A) (A) (A) (A) (A) (A) (A) (A)
                 (A) (A) (A) (A) (A) (A) (A) (A) (A) (A) (A) (A)
                 (A) (A) (A) (A) (A) (A) (A) (A) (A) (A) (A) (A)
                 (A) (A) (A) (A) (A) (A) (A) (A) (A) (A) (A) (A)
                 (A) (A) (A) (A) (A) (A) (A) (A) (A) (A) (A) (A)
                 (A) (A) (A) (A) (A) (A) (A) (A) (A) (A) (A) (A)
                 (A) (A) (A) (A) (A) (A) (A) (A) (A) (A) (A) (A)
                 (A) (A) (A) (A) (A) (A) (A) (A) (A) (A) (A) (A)
                 (A) (A) (A) (A) (A) (A) (A) (A) (A) (A) (A) (A)
                 (A) (A) (A) (A) (A) (A) (A) (A) (A) (A) (A) (A)
                 (A) (A) (A) (A) (A) (A) (A) (A) (A) (A) (A) (A)
                 (A) (A) (A) (A) (A) (A) (A) (A) (A) (A) (A) (A)
                 (A) (A) (A) (A) (A) (A) (A) (A) (A) (A) (A) (A)
                 (A) (A) (A) (A) (A) (A) (A) (A) (A) (A) (A) (A)
                 (A) (A) (A) (A) (A) (A) (A) (A) (A) (A) (A) (A)
                 (A) (A) (A) (A) (A) (A) (A) (A) (A) (A) (A) (A)
                 (A) (A) (A) (A) (A) (A) (A) (A) (A) (A) (A) (A)
                 (A) (A) (A) (A) (A) (A) (A) (A) (A) (A) (A) (A)
                 (A) (A) (A) (A) (A) (A) (A) (A) (A) (A) (A) (A)
                 (A) (A) (A) (A) (A) (A) (A) (A) (A) (A) (A) (A)
                 (A) (A) (A) (A) (A) (A) (A) (A) (A) (A) (A) (A)
                 (A) (A) (A) (A) (A) (A) (A) (A) (A) (A) (A) (A)
                 (A) (A) (A) (A) (A) (A) (A) (A) (A) (A) (A) (A)
                 (A) (A) (A) (A) (A) (A) (A) (A) (A) (A) (A) (A)
                 (A) (A) (A) (A) (A) (A) (A) (A) (A) (A) (A) (A)
                 (A) (A) (A) (A) (A) (A) (A) (A) (A) (A) (A) (A)
                 (A) (A) (A) (A) (A) (A) (A) (A) (A) (A) (A) (A)
                 (A) (A) (A) (A) (A) (A) (A) (A) (A) (A) (A) (A)
                 (A)
 The electronic state is 1-A.
 Alpha  occ. eigenvalues -- -482.93761 -61.89823 -56.41544 -56.41169 -56.41151
 Alpha  occ. eigenvalues --  -19.24053 -19.22820 -19.21838 -14.37079 -14.36649
 Alpha  occ. eigenvalues --  -14.35442 -10.34154 -10.31789 -10.30612 -10.28745
 Alpha  occ. eigenvalues --  -10.28518 -10.28203 -10.28054 -10.27221 -10.27134
 Alpha  occ. eigenvalues --  -10.27085 -10.26034 -10.26029 -10.25171 -10.24078
 Alpha  occ. eigenvalues --  -10.23687 -10.22545  -8.60483  -6.55733  -6.54464
 Alpha  occ. eigenvalues --   -6.54438  -2.67282  -2.66930  -2.66909  -2.65896
 Alpha  occ. eigenvalues --   -2.65896  -1.14342  -1.11635  -1.08755  -0.94157
 Alpha  occ. eigenvalues --   -0.93930  -0.91980  -0.91139  -0.87318  -0.84889
 Alpha  occ. eigenvalues --   -0.82614  -0.80730  -0.77941  -0.77141  -0.74120
 Alpha  occ. eigenvalues --   -0.71959  -0.69874  -0.67443  -0.65223  -0.63792
 Alpha  occ. eigenvalues --   -0.60840  -0.59154  -0.57688  -0.56327  -0.55746
 Alpha  occ. eigenvalues --   -0.55072  -0.52727  -0.50848  -0.50499  -0.49721
 Alpha  occ. eigenvalues --   -0.49081  -0.47179  -0.46796  -0.46706  -0.45261
 Alpha  occ. eigenvalues --   -0.44834  -0.43854  -0.43601  -0.42180  -0.41687
 Alpha  occ. eigenvalues --   -0.40774  -0.39981  -0.39689  -0.39255  -0.38944
 Alpha  occ. eigenvalues --   -0.38775  -0.38413  -0.37824  -0.37171  -0.36145
 Alpha  occ. eigenvalues --   -0.35844  -0.35800  -0.34408  -0.33754  -0.33572
 Alpha  occ. eigenvalues --   -0.32952  -0.30233  -0.30118  -0.27035  -0.24466
 Alpha virt. eigenvalues --   -0.14634  -0.05266  -0.04168  -0.02551  -0.02046
 Alpha virt. eigenvalues --   -0.01798  -0.01192  -0.00548   0.00129   0.00289
 Alpha virt. eigenvalues --    0.00736   0.01203   0.01674   0.01844   0.02317
 Alpha virt. eigenvalues --    0.02981   0.03263   0.03465   0.03717   0.04270
 Alpha virt. eigenvalues --    0.04359   0.04606   0.04890   0.05161   0.05614
 Alpha virt. eigenvalues --    0.05696   0.06239   0.06432   0.06529   0.06860
 Alpha virt. eigenvalues --    0.07036   0.07395   0.07520   0.08121   0.08366
 Alpha virt. eigenvalues --    0.09006   0.09136   0.09577   0.10014   0.10301
 Alpha virt. eigenvalues --    0.10534   0.10707   0.10968   0.11406   0.12029
 Alpha virt. eigenvalues --    0.12189   0.12460   0.12582   0.13185   0.13656
 Alpha virt. eigenvalues --    0.13810   0.14507   0.14512   0.14976   0.15202
 Alpha virt. eigenvalues --    0.15444   0.15732   0.16171   0.16707   0.16918
 Alpha virt. eigenvalues --    0.17365   0.17586   0.17816   0.18148   0.18473
 Alpha virt. eigenvalues --    0.18694   0.19358   0.19728   0.20318   0.20890
 Alpha virt. eigenvalues --    0.21118   0.21470   0.21589   0.22022   0.22261
 Alpha virt. eigenvalues --    0.22777   0.23100   0.23527   0.23800   0.24350
 Alpha virt. eigenvalues --    0.24632   0.24684   0.24917   0.25294   0.25397
 Alpha virt. eigenvalues --    0.25717   0.25925   0.26277   0.26534   0.26943
 Alpha virt. eigenvalues --    0.27036   0.27219   0.27577   0.27836   0.28368
 Alpha virt. eigenvalues --    0.28588   0.28707   0.28848   0.29616   0.29839
 Alpha virt. eigenvalues --    0.29967   0.30002   0.30330   0.30883   0.31350
 Alpha virt. eigenvalues --    0.31883   0.32029   0.32520   0.32912   0.33315
 Alpha virt. eigenvalues --    0.33994   0.34287   0.34792   0.35450   0.35836
 Alpha virt. eigenvalues --    0.36179   0.37238   0.37779   0.38618   0.40874
 Alpha virt. eigenvalues --    0.41649   0.42330   0.43283   0.43861   0.45553
 Alpha virt. eigenvalues --    0.46026   0.46376   0.47239   0.48430   0.48809
 Alpha virt. eigenvalues --    0.48967   0.49308   0.50773   0.53957   0.55154
 Alpha virt. eigenvalues --    0.57594   0.59384   0.61178   0.61586   0.62400
 Alpha virt. eigenvalues --    0.63767   0.64741   0.65130   0.65709   0.66690
 Alpha virt. eigenvalues --    0.66746   0.67685   0.67880   0.68276   0.68918
 Alpha virt. eigenvalues --    0.69703   0.70787   0.71537   0.71842   0.72317
 Alpha virt. eigenvalues --    0.73076   0.73500   0.74115   0.74555   0.75754
 Alpha virt. eigenvalues --    0.76111   0.76832   0.78269   0.78421   0.78980
 Alpha virt. eigenvalues --    0.79444   0.80594   0.81395   0.82271   0.82732
 Alpha virt. eigenvalues --    0.84127   0.85393   0.85512   0.86438   0.87304
 Alpha virt. eigenvalues --    0.87571   0.88427   0.90071   0.90458   0.90771
 Alpha virt. eigenvalues --    0.91825   0.92400   0.94381   0.95010   0.96370
 Alpha virt. eigenvalues --    0.97267   0.98519   0.99390   0.99731   1.00038
 Alpha virt. eigenvalues --    1.01677   1.02204   1.02557   1.03022   1.03314
 Alpha virt. eigenvalues --    1.03998   1.04738   1.05621   1.06041   1.06738
 Alpha virt. eigenvalues --    1.07033   1.07473   1.08956   1.09543   1.10643
 Alpha virt. eigenvalues --    1.11284   1.11918   1.12370   1.13443   1.15472
 Alpha virt. eigenvalues --    1.16733   1.17485   1.18491   1.18850   1.19116
 Alpha virt. eigenvalues --    1.20872   1.21239   1.21834   1.22791   1.23018
 Alpha virt. eigenvalues --    1.24259   1.24741   1.25293   1.26742   1.28095
 Alpha virt. eigenvalues --    1.29827   1.30459   1.31171   1.31666   1.32585
 Alpha virt. eigenvalues --    1.33037   1.34908   1.35854   1.37183   1.37483
 Alpha virt. eigenvalues --    1.39172   1.41058   1.42817   1.44412   1.44531
 Alpha virt. eigenvalues --    1.44675   1.47337   1.48371   1.50096   1.50618
 Alpha virt. eigenvalues --    1.51291   1.52599   1.52662   1.56201   1.57644
 Alpha virt. eigenvalues --    1.58433   1.59116   1.60144   1.61068   1.61673
 Alpha virt. eigenvalues --    1.64567   1.66164   1.67135   1.67823   1.68162
 Alpha virt. eigenvalues --    1.68597   1.69761   1.71531   1.74006   1.74975
 Alpha virt. eigenvalues --    1.75580   1.75800   1.77535   1.80426   1.80735
 Alpha virt. eigenvalues --    1.81587   1.81794   1.82179   1.83714   1.85155
 Alpha virt. eigenvalues --    1.86016   1.86573   1.88687   1.88985   1.89890
 Alpha virt. eigenvalues --    1.90454   1.91280   1.91527   1.91815   1.92986
 Alpha virt. eigenvalues --    1.93436   1.95100   1.95268   1.96158   1.97200
 Alpha virt. eigenvalues --    1.98035   1.98322   1.99483   1.99948   2.01046
 Alpha virt. eigenvalues --    2.02232   2.03409   2.03687   2.04538   2.05293
 Alpha virt. eigenvalues --    2.06409   2.07063   2.07250   2.08002   2.09330
 Alpha virt. eigenvalues --    2.10244   2.12012   2.12412   2.13508   2.14144
 Alpha virt. eigenvalues --    2.15486   2.16856   2.17322   2.18014   2.18855
 Alpha virt. eigenvalues --    2.20918   2.21678   2.22485   2.23701   2.27282
 Alpha virt. eigenvalues --    2.27756   2.29566   2.29963   2.31193   2.32675
 Alpha virt. eigenvalues --    2.35516   2.36038   2.40127   2.42310   2.43038
 Alpha virt. eigenvalues --    2.46388   2.47799   2.48540   2.50011   2.50876
 Alpha virt. eigenvalues --    2.52889   2.55438   2.56558   2.56959   2.57839
 Alpha virt. eigenvalues --    2.60335   2.61211   2.62405   2.63814   2.64257
 Alpha virt. eigenvalues --    2.65685   2.66238   2.67736   2.70553   2.71948
 Alpha virt. eigenvalues --    2.73501   2.73697   2.74557   2.75048   2.75721
 Alpha virt. eigenvalues --    2.78766   2.80177   2.81602   2.81702   2.82858
 Alpha virt. eigenvalues --    2.83296   2.83791   2.85134   2.85429   2.88485
 Alpha virt. eigenvalues --    2.90838   2.93939   2.97273   2.99483   3.00130
 Alpha virt. eigenvalues --    3.02805   3.04174   3.05745   3.07671   3.09159
 Alpha virt. eigenvalues --    3.10731   3.14552   3.19018   3.20610   3.23400
 Alpha virt. eigenvalues --    3.24150   3.24367   3.27943   3.29637   3.29971
 Alpha virt. eigenvalues --    3.32920   3.39151   3.39374   3.40619   3.42101
 Alpha virt. eigenvalues --    3.43213   3.45261   3.47260   3.48507   3.49812
 Alpha virt. eigenvalues --    3.53049   3.64009   4.21381   4.23362   4.26586
 Alpha virt. eigenvalues --    4.28624   4.30996   4.32687   4.33585   4.33971
 Alpha virt. eigenvalues --    4.35921   4.40690   4.46328   4.46905   4.53189
 Alpha virt. eigenvalues --    4.55722   4.59896   4.62228   4.63416   4.64263
 Alpha virt. eigenvalues --    4.72999   4.77466   4.84500   5.00802   8.85779
 Alpha virt. eigenvalues --   78.19198
          Condensed to atoms (all electrons):
               1          2          3          4          5          6
     1  C    4.995098   0.037965  -0.138815   0.039258   0.067802   0.071144
     2  O    0.037965   8.531540   0.312891   0.229253   0.113470   0.005676
     3  C   -0.138815   0.312891  12.666020  -1.130849  -1.103453  -3.863560
     4  C    0.039258   0.229253  -1.130849  11.865014   4.090548  -1.968541
     5  C    0.067802   0.113470  -1.103453   4.090548  21.250284  -3.344692
     6  C    0.071144   0.005676  -3.863560  -1.968541  -3.344692  18.994025
     7  C    0.000710  -0.002771  -0.290077  -0.930753   0.432939  -0.045876
     8  C    0.014029  -0.007244  -0.556870   0.207097  -0.391448  -1.068797
     9  N   -0.000280  -0.000016   0.028911   0.065311   0.094235   0.353424
    10  C   -0.030766  -0.016233   0.515599  -0.393465  -1.419013   1.352920
    11  O    0.000792   0.000305  -0.020657   0.024863  -0.364753   0.047345
    12  C   -0.003604   0.000420  -0.093418   0.002330  -0.020608  -0.113705
    13  O    0.000030  -0.000004   0.000843  -0.000115   0.012845   0.010892
    14  C   -0.000035   0.000013  -0.002820  -0.001574   0.024376  -0.000704
    15  C    0.000006  -0.000002   0.000910  -0.003432  -0.007747  -0.002151
    16  Br  -0.000002   0.000000  -0.000073   0.000211   0.001444  -0.002274
    17  C   -0.018270   0.033278  -0.250243   0.864400  -2.381422   0.071347
    18  C   -0.157810  -0.480900   1.678286  -3.183667  -5.105375  -4.613847
    19  C   -0.032762  -0.128622   0.599600  -2.002405  -5.144409  -0.537193
    20  C    0.066126  -0.084438  -0.021741  -0.824395  -0.466975  -0.100761
    21  N   -0.004417   0.017174  -0.081745  -0.002098  -0.004959  -0.000192
    22  C   -0.025531  -0.058643  -2.203206  -0.544948  -0.609563  -0.311840
    23  N    0.000557   0.000067   0.150322   0.017227   0.025129   0.008708
    24  H    0.416431  -0.070025   0.110490  -0.128914  -0.021390  -0.007172
    25  H    0.407830  -0.038685  -0.123844   0.116750   0.032280   0.019145
    26  H    0.407674  -0.038533  -0.125020   0.117487   0.033922   0.019707
    27  H    0.003164  -0.017296   0.108984   0.327803  -0.088101  -0.147565
    28  H   -0.000003  -0.000000  -0.000679  -0.024037   0.037793  -0.106333
    29  H    0.000000  -0.000001   0.002641   0.008502   0.038889  -0.154617
    30  H   -0.000014  -0.000000  -0.001490  -0.026195  -0.000506  -0.090324
    31  H   -0.000026   0.000002  -0.003802   0.001040  -0.018272  -0.004936
    32  H   -0.000015   0.000001  -0.002197   0.000040  -0.032191  -0.004051
    33  H    0.000000   0.000000  -0.000027  -0.000726  -0.008241   0.001572
    34  H   -0.000000  -0.000000   0.000591   0.001213   0.025603  -0.010717
    35  H    0.000000  -0.000000   0.000032  -0.000110  -0.001239   0.000400
    36  H   -0.000000  -0.000000  -0.000002   0.000022   0.000580  -0.000366
    37  H    0.000388  -0.000753   0.010478   0.003493   0.052819  -0.000849
               7          8          9         10         11         12
     1  C    0.000710   0.014029  -0.000280  -0.030766   0.000792  -0.003604
     2  O   -0.002771  -0.007244  -0.000016  -0.016233   0.000305   0.000420
     3  C   -0.290077  -0.556870   0.028911   0.515599  -0.020657  -0.093418
     4  C   -0.930753   0.207097   0.065311  -0.393465   0.024863   0.002330
     5  C    0.432939  -0.391448   0.094235  -1.419013  -0.364753  -0.020608
     6  C   -0.045876  -1.068797   0.353424   1.352920   0.047345  -0.113705
     7  C    7.202271   0.071937  -0.074816  -0.261306  -0.019844  -0.018309
     8  C    0.071937  11.546611  -0.436818  -1.585882  -0.043274  -0.003454
     9  N   -0.074816  -0.436818   7.321613   0.099618   0.000280  -0.000237
    10  C   -0.261306  -1.585882   0.099618   9.040136   0.473570  -0.224313
    11  O   -0.019844  -0.043274   0.000280   0.473570   8.736326  -0.118634
    12  C   -0.018309  -0.003454  -0.000237  -0.224313  -0.118634   5.435176
    13  O   -0.005593  -0.003279   0.000020   0.053327  -0.019983   0.265562
    14  C    0.013265   0.010205  -0.000027  -0.052926  -0.021393  -0.168887
    15  C    0.007200  -0.000925   0.000002   0.019467   0.019472   0.009006
    16  Br   0.001061   0.000008  -0.000001  -0.007025   0.000215  -0.014424
    17  C   -0.400135  -0.292758   0.007120  -0.208399  -0.103132  -0.078962
    18  C   -0.443055  -0.717583   0.023228   1.029562  -0.004490   0.098389
    19  C   -0.153211  -0.265656   0.005471  -2.226606  -0.028399  -0.063774
    20  C    0.006212  -0.010446  -0.000292  -0.070934  -0.004093  -0.027682
    21  N   -0.000149   0.000015   0.000004  -0.001823   0.000011   0.000307
    22  C    0.002183  -0.040686   0.000363  -0.064455  -0.007244   0.053837
    23  N   -0.000128   0.000536  -0.000001  -0.011701   0.000252  -0.003285
    24  H   -0.000153   0.000140  -0.000004   0.001158  -0.000000   0.000009
    25  H    0.000611   0.001433   0.000123  -0.002769   0.000001  -0.000040
    26  H    0.000709   0.000356   0.000186  -0.003341   0.000003  -0.000013
    27  H   -0.004917   0.052626   0.001265   0.011730  -0.000658   0.000769
    28  H    0.495346  -0.012110  -0.000131  -0.012606  -0.002422  -0.000234
    29  H    0.471272  -0.009826   0.002421  -0.004298  -0.000352  -0.000556
    30  H    0.493047  -0.012654  -0.000449   0.002521  -0.001294   0.000717
    31  H   -0.002363  -0.000593  -0.000000  -0.047407  -0.058927   0.404994
    32  H   -0.001927  -0.000823   0.000000  -0.072458  -0.053635   0.461735
    33  H    0.002117  -0.000093   0.000000   0.009474  -0.002938  -0.001040
    34  H    0.002399   0.001030  -0.000001  -0.014156   0.012264  -0.015246
    35  H    0.000043  -0.000007  -0.000000  -0.000414  -0.002035   0.022282
    36  H    0.000148  -0.000001  -0.000000  -0.001885   0.000863  -0.009797
    37  H    0.000788  -0.000008   0.000002   0.034255  -0.018047   0.015077
              13         14         15         16         17         18
     1  C    0.000030  -0.000035   0.000006  -0.000002  -0.018270  -0.157810
     2  O   -0.000004   0.000013  -0.000002   0.000000   0.033278  -0.480900
     3  C    0.000843  -0.002820   0.000910  -0.000073  -0.250243   1.678286
     4  C   -0.000115  -0.001574  -0.003432   0.000211   0.864400  -3.183667
     5  C    0.012845   0.024376  -0.007747   0.001444  -2.381422  -5.105375
     6  C    0.010892  -0.000704  -0.002151  -0.002274   0.071347  -4.613847
     7  C   -0.005593   0.013265   0.007200   0.001061  -0.400135  -0.443055
     8  C   -0.003279   0.010205  -0.000925   0.000008  -0.292758  -0.717583
     9  N    0.000020  -0.000027   0.000002  -0.000001   0.007120   0.023228
    10  C    0.053327  -0.052926   0.019467  -0.007025  -0.208399   1.029562
    11  O   -0.019983  -0.021393   0.019472   0.000215  -0.103132  -0.004490
    12  C    0.265562  -0.168887   0.009006  -0.014424  -0.078962   0.098389
    13  O    8.214204   0.150972  -0.095549   0.015642  -0.080410  -0.006179
    14  C    0.150972   5.432550  -0.010543  -0.019481  -0.038503  -0.006722
    15  C   -0.095549  -0.010543   5.457797   0.235282   0.008732  -0.002120
    16  Br   0.015642  -0.019481   0.235282  34.961790   0.000593   0.000154
    17  C   -0.080410  -0.038503   0.008732   0.000593   9.117313   2.047714
    18  C   -0.006179  -0.006722  -0.002120   0.000154   2.047714  18.396819
    19  C   -0.006536  -0.002036   0.000631   0.000314  -1.331883  -1.504694
    20  C   -0.000215   0.000901  -0.000023   0.000040  -1.506258  -1.620471
    21  N   -0.000000  -0.000003   0.000001   0.000000   0.060602   0.168702
    22  C    0.000732   0.000372  -0.000555  -0.000022   0.419722   0.197011
    23  N   -0.000034   0.000403  -0.000008   0.000036   0.001710   0.056287
    24  H   -0.000000  -0.000000  -0.000000   0.000000  -0.002380   0.035726
    25  H   -0.000000  -0.000000  -0.000000  -0.000000   0.000193  -0.041526
    26  H    0.000000   0.000000   0.000000   0.000000   0.001260  -0.042080
    27  H   -0.000002  -0.000003   0.000004   0.000000  -0.005099   0.069460
    28  H   -0.000283   0.001275   0.000289   0.000002  -0.015878  -0.007034
    29  H    0.000036  -0.000608  -0.000146   0.000001  -0.000906   0.000963
    30  H   -0.001109  -0.000394   0.001023   0.000005  -0.008314  -0.004756
    31  H   -0.043916   0.022849  -0.005825   0.000254   0.037904   0.010309
    32  H   -0.065255  -0.022312   0.004581  -0.000404   0.086009   0.010281
    33  H   -0.044578   0.392387  -0.015962   0.001888  -0.000877  -0.000061
    34  H   -0.050366   0.390426  -0.023831   0.004272  -0.005799  -0.002010
    35  H    0.002907  -0.043421   0.369230  -0.037509  -0.000735   0.000301
    36  H   -0.001965  -0.049494   0.411691  -0.034053   0.000997  -0.000056
    37  H    0.001318   0.000337   0.000185   0.000015   0.329282  -0.059719
              19         20         21         22         23         24
     1  C   -0.032762   0.066126  -0.004417  -0.025531   0.000557   0.416431
     2  O   -0.128622  -0.084438   0.017174  -0.058643   0.000067  -0.070025
     3  C    0.599600  -0.021741  -0.081745  -2.203206   0.150322   0.110490
     4  C   -2.002405  -0.824395  -0.002098  -0.544948   0.017227  -0.128914
     5  C   -5.144409  -0.466975  -0.004959  -0.609563   0.025129  -0.021390
     6  C   -0.537193  -0.100761  -0.000192  -0.311840   0.008708  -0.007172
     7  C   -0.153211   0.006212  -0.000149   0.002183  -0.000128  -0.000153
     8  C   -0.265656  -0.010446   0.000015  -0.040686   0.000536   0.000140
     9  N    0.005471  -0.000292   0.000004   0.000363  -0.000001  -0.000004
    10  C   -2.226606  -0.070934  -0.001823  -0.064455  -0.011701   0.001158
    11  O   -0.028399  -0.004093   0.000011  -0.007244   0.000252  -0.000000
    12  C   -0.063774  -0.027682   0.000307   0.053837  -0.003285   0.000009
    13  O   -0.006536  -0.000215  -0.000000   0.000732  -0.000034  -0.000000
    14  C   -0.002036   0.000901  -0.000003   0.000372   0.000403  -0.000000
    15  C    0.000631  -0.000023   0.000001  -0.000555  -0.000008  -0.000000
    16  Br   0.000314   0.000040   0.000000  -0.000022   0.000036   0.000000
    17  C   -1.331883  -1.506258   0.060602   0.419722   0.001710  -0.002380
    18  C   -1.504694  -1.620471   0.168702   0.197011   0.056287   0.035726
    19  C   19.804066  -0.894065   0.318843  -2.101028   0.261453   0.031793
    20  C   -0.894065  12.676409  -0.241907  -0.826097  -0.026703  -0.004846
    21  N    0.318843  -0.241907   7.310828  -0.020888   0.001107   0.002557
    22  C   -2.101028  -0.826097  -0.020888  12.939829  -0.316411   0.002823
    23  N    0.261453  -0.026703   0.001107  -0.316411   7.314091  -0.000003
    24  H    0.031793  -0.004846   0.002557   0.002823  -0.000003   0.515797
    25  H   -0.014693   0.001755  -0.000298  -0.001381   0.000002  -0.026518
    26  H   -0.015953   0.002238  -0.000319  -0.001275   0.000002  -0.026494
    27  H   -0.004018   0.000600  -0.000013   0.000014   0.000002   0.000128
    28  H   -0.001143   0.000006  -0.000000  -0.000001  -0.000000  -0.000000
    29  H   -0.000003   0.000004  -0.000000  -0.000004  -0.000000  -0.000000
    30  H   -0.000585   0.000004  -0.000000  -0.000007   0.000000  -0.000000
    31  H    0.008646  -0.000105   0.000001   0.001071   0.000207   0.000000
    32  H    0.019622   0.000171   0.000002   0.000339   0.000083   0.000000
    33  H   -0.000050  -0.000001  -0.000000   0.000003  -0.000000  -0.000000
    34  H    0.000106   0.000043  -0.000000  -0.000076   0.000005   0.000000
    35  H   -0.000226  -0.000014   0.000000   0.000151  -0.000026  -0.000000
    36  H    0.000066   0.000002   0.000000  -0.000039   0.000002  -0.000000
    37  H   -0.146324  -0.002982  -0.000065   0.086457   0.000733  -0.000000
              25         26         27         28         29         30
     1  C    0.407830   0.407674   0.003164  -0.000003   0.000000  -0.000014
     2  O   -0.038685  -0.038533  -0.017296  -0.000000  -0.000001  -0.000000
     3  C   -0.123844  -0.125020   0.108984  -0.000679   0.002641  -0.001490
     4  C    0.116750   0.117487   0.327803  -0.024037   0.008502  -0.026195
     5  C    0.032280   0.033922  -0.088101   0.037793   0.038889  -0.000506
     6  C    0.019145   0.019707  -0.147565  -0.106333  -0.154617  -0.090324
     7  C    0.000611   0.000709  -0.004917   0.495346   0.471272   0.493047
     8  C    0.001433   0.000356   0.052626  -0.012110  -0.009826  -0.012654
     9  N    0.000123   0.000186   0.001265  -0.000131   0.002421  -0.000449
    10  C   -0.002769  -0.003341   0.011730  -0.012606  -0.004298   0.002521
    11  O    0.000001   0.000003  -0.000658  -0.002422  -0.000352  -0.001294
    12  C   -0.000040  -0.000013   0.000769  -0.000234  -0.000556   0.000717
    13  O   -0.000000   0.000000  -0.000002  -0.000283   0.000036  -0.001109
    14  C   -0.000000   0.000000  -0.000003   0.001275  -0.000608  -0.000394
    15  C   -0.000000   0.000000   0.000004   0.000289  -0.000146   0.001023
    16  Br  -0.000000   0.000000   0.000000   0.000002   0.000001   0.000005
    17  C    0.000193   0.001260  -0.005099  -0.015878  -0.000906  -0.008314
    18  C   -0.041526  -0.042080   0.069460  -0.007034   0.000963  -0.004756
    19  C   -0.014693  -0.015953  -0.004018  -0.001143  -0.000003  -0.000585
    20  C    0.001755   0.002238   0.000600   0.000006   0.000004   0.000004
    21  N   -0.000298  -0.000319  -0.000013  -0.000000  -0.000000  -0.000000
    22  C   -0.001381  -0.001275   0.000014  -0.000001  -0.000004  -0.000007
    23  N    0.000002   0.000002   0.000002  -0.000000  -0.000000   0.000000
    24  H   -0.026518  -0.026494   0.000128  -0.000000  -0.000000  -0.000000
    25  H    0.554118  -0.040202  -0.000563  -0.000000   0.000000   0.000000
    26  H   -0.040202   0.553608  -0.000554   0.000000   0.000000  -0.000000
    27  H   -0.000563  -0.000554   0.543173  -0.000008  -0.000001  -0.000008
    28  H   -0.000000   0.000000  -0.000008   0.507560  -0.026024  -0.024416
    29  H    0.000000   0.000000  -0.000001  -0.026024   0.532573  -0.026695
    30  H    0.000000  -0.000000  -0.000008  -0.024416  -0.026695   0.521110
    31  H   -0.000000   0.000000  -0.000000   0.000003   0.000000  -0.000022
    32  H    0.000000  -0.000000  -0.000000  -0.000046   0.000000   0.000003
    33  H   -0.000000   0.000000   0.000000  -0.000002  -0.000001  -0.000003
    34  H   -0.000000  -0.000000   0.000000  -0.000011   0.000001   0.000211
    35  H    0.000000   0.000000  -0.000000  -0.000000  -0.000000   0.000000
    36  H   -0.000000   0.000000  -0.000000   0.000000   0.000000   0.000000
    37  H   -0.000000  -0.000000   0.000010   0.000001  -0.000000   0.000001
              31         32         33         34         35         36
     1  C   -0.000026  -0.000015   0.000000  -0.000000   0.000000  -0.000000
     2  O    0.000002   0.000001   0.000000  -0.000000  -0.000000  -0.000000
     3  C   -0.003802  -0.002197  -0.000027   0.000591   0.000032  -0.000002
     4  C    0.001040   0.000040  -0.000726   0.001213  -0.000110   0.000022
     5  C   -0.018272  -0.032191  -0.008241   0.025603  -0.001239   0.000580
     6  C   -0.004936  -0.004051   0.001572  -0.010717   0.000400  -0.000366
     7  C   -0.002363  -0.001927   0.002117   0.002399   0.000043   0.000148
     8  C   -0.000593  -0.000823  -0.000093   0.001030  -0.000007  -0.000001
     9  N   -0.000000   0.000000   0.000000  -0.000001  -0.000000  -0.000000
    10  C   -0.047407  -0.072458   0.009474  -0.014156  -0.000414  -0.001885
    11  O   -0.058927  -0.053635  -0.002938   0.012264  -0.002035   0.000863
    12  C    0.404994   0.461735  -0.001040  -0.015246   0.022282  -0.009797
    13  O   -0.043916  -0.065255  -0.044578  -0.050366   0.002907  -0.001965
    14  C    0.022849  -0.022312   0.392387   0.390426  -0.043421  -0.049494
    15  C   -0.005825   0.004581  -0.015962  -0.023831   0.369230   0.411691
    16  Br   0.000254  -0.000404   0.001888   0.004272  -0.037509  -0.034053
    17  C    0.037904   0.086009  -0.000877  -0.005799  -0.000735   0.000997
    18  C    0.010309   0.010281  -0.000061  -0.002010   0.000301  -0.000056
    19  C    0.008646   0.019622  -0.000050   0.000106  -0.000226   0.000066
    20  C   -0.000105   0.000171  -0.000001   0.000043  -0.000014   0.000002
    21  N    0.000001   0.000002  -0.000000  -0.000000   0.000000   0.000000
    22  C    0.001071   0.000339   0.000003  -0.000076   0.000151  -0.000039
    23  N    0.000207   0.000083  -0.000000   0.000005  -0.000026   0.000002
    24  H    0.000000   0.000000  -0.000000   0.000000  -0.000000  -0.000000
    25  H   -0.000000   0.000000  -0.000000  -0.000000   0.000000  -0.000000
    26  H    0.000000  -0.000000   0.000000  -0.000000   0.000000   0.000000
    27  H   -0.000000  -0.000000   0.000000   0.000000  -0.000000  -0.000000
    28  H    0.000003  -0.000046  -0.000002  -0.000011  -0.000000   0.000000
    29  H    0.000000   0.000000  -0.000001   0.000001  -0.000000   0.000000
    30  H   -0.000022   0.000003  -0.000003   0.000211   0.000000   0.000000
    31  H    0.617314  -0.049424  -0.000199   0.001300   0.000094   0.000156
    32  H   -0.049424   0.570560  -0.000193  -0.000098  -0.000075  -0.000009
    33  H   -0.000199  -0.000193   0.536044  -0.031982   0.004436  -0.006075
    34  H    0.001300  -0.000098  -0.031982   0.559728  -0.007037   0.004481
    35  H    0.000094  -0.000075   0.004436  -0.007037   0.548033  -0.033857
    36  H    0.000156  -0.000009  -0.006075   0.004481  -0.033857   0.518744
    37  H   -0.000821  -0.000853  -0.000000   0.000008  -0.000004   0.000000
              37
     1  C    0.000388
     2  O   -0.000753
     3  C    0.010478
     4  C    0.003493
     5  C    0.052819
     6  C   -0.000849
     7  C    0.000788
     8  C   -0.000008
     9  N    0.000002
    10  C    0.034255
    11  O   -0.018047
    12  C    0.015077
    13  O    0.001318
    14  C    0.000337
    15  C    0.000185
    16  Br   0.000015
    17  C    0.329282
    18  C   -0.059719
    19  C   -0.146324
    20  C   -0.002982
    21  N   -0.000065
    22  C    0.086457
    23  N    0.000733
    24  H   -0.000000
    25  H   -0.000000
    26  H   -0.000000
    27  H    0.000010
    28  H    0.000001
    29  H   -0.000000
    30  H    0.000001
    31  H   -0.000821
    32  H   -0.000853
    33  H   -0.000000
    34  H    0.000008
    35  H   -0.000004
    36  H    0.000000
    37  H    0.548210
 Mulliken charges:
               1
     1  C   -0.116654
     2  O   -0.337889
     3  C   -0.172010
     4  C   -0.815637
     5  C    0.199398
     6  C    1.544762
     7  C   -0.548875
     8  C   -0.444789
     9  N   -0.490523
    10  C    0.090841
    11  O   -0.420359
    12  C    0.209613
    13  O   -0.303958
    14  C    0.001558
    15  C   -0.376690
    16  Br  -0.107957
    17  C   -0.357812
    18  C    0.180965
    19  C    1.555664
    20  C   -0.019064
    21  N   -0.521275
    22  C   -0.571005
    23  N   -0.480618
    24  H    0.170849
    25  H    0.156277
    26  H    0.156632
    27  H    0.149076
    28  H    0.191126
    29  H    0.166736
    30  H    0.180594
    31  H    0.130493
    32  H    0.152536
    33  H    0.165129
    34  H    0.157650
    35  H    0.178799
    36  H    0.199848
    37  H    0.146570
 Sum of Mulliken charges =  -0.00000
 Mulliken charges with hydrogens summed into heavy atoms:
               1
     1  C    0.367105
     2  O   -0.337889
     3  C   -0.172010
     4  C   -0.666561
     5  C    0.199398
     6  C    1.544762
     7  C   -0.010419
     8  C   -0.444789
     9  N   -0.490523
    10  C    0.090841
    11  O   -0.420359
    12  C    0.492642
    13  O   -0.303958
    14  C    0.324337
    15  C    0.001957
    16  Br  -0.107957
    17  C   -0.211242
    18  C    0.180965
    19  C    1.555664
    20  C   -0.019064
    21  N   -0.521275
    22  C   -0.571005
    23  N   -0.480618
 Electronic spatial extent (au):  <R**2>=          13631.4113
 Charge=             -0.0000 electrons
 Dipole moment (field-independent basis, Debye):
    X=             -3.5423    Y=              3.7771    Z=              0.8289  Tot=              5.2442
 Quadrupole moment (field-independent basis, Debye-Ang):
   XX=           -166.1737   YY=           -190.7021   ZZ=           -148.7647
   XY=             14.6302   XZ=             -3.0653   YZ=              1.4510
 Traceless Quadrupole moment (field-independent basis, Debye-Ang):
   XX=              2.3732   YY=            -22.1553   ZZ=             19.7821
   XY=             14.6302   XZ=             -3.0653   YZ=              1.4510
 Octapole moment (field-independent basis, Debye-Ang**2):
  XXX=           -221.7501  YYY=              9.9349  ZZZ=            -24.8800  XYY=           -232.4620
  XXY=            113.3341  XXZ=             10.0118  XZZ=            -63.9099  YZZ=              0.0285
  YYZ=              5.6025  XYZ=             -4.4525
 Hexadecapole moment (field-independent basis, Debye-Ang**3):
 XXXX=         -12303.8687 YYYY=          -5808.3549 ZZZZ=           -592.8713 XXXY=            891.2107
 XXXZ=             25.3076 YYYX=            -23.7207 YYYZ=            175.7317 ZZZX=            138.8543
 ZZZY=             12.9176 XXYY=          -3295.6277 XXZZ=          -2001.9907 YYZZ=           -877.3536
 XXYZ=           -124.4814 YYXZ=            100.2983 ZZXY=             54.6989
 N-N= 2.100111351627D+03 E-N=-1.267423896559D+04  KE= 3.554261610367D+03
 Unable to Open any file for archive entry.
 1\1\GINC-N1\SP\RB3LYP TD-FC\6-31+G(d,p)\C16H14Br1N3O3\HPCMGAC13\26-Aug
 -2025\0\\# td=(50-50,nstates=3) b3lyp/6-31+g(d,p) geom=connectivity\\T
 itle Card Required\\0,1\C,0,-5.593175,0.907669,0.966578\O,0,-4.708733,
 -0.159338,0.617285\C,0,-3.437903,0.114677,0.270752\C,0,-2.895936,1.363
 739,0.217688\C,0,-1.52257,1.616592,-0.164894\C,0,-1.040143,2.912846,-0
 .226728\C,0,0.345668,3.381342,-0.617559\C,0,-1.939605,3.970866,0.11408
 8\N,0,-2.644866,4.859519,0.386338\C,0,-0.719078,0.429258,-0.478025\O,0
 ,0.568998,0.664161,-0.810324\C,0,1.41231,-0.443424,-1.201934\O,0,2.629
 626,0.070861,-1.590131\C,0,3.573326,0.340019,-0.537875\C,0,4.490684,-0
 .864557,-0.390342\Br,0,5.926919,-0.4868,0.89201\C,0,-1.266525,-0.82325
 1,-0.429326\C,0,-2.635199,-1.060844,-0.061704\C,0,-3.133992,-2.361501,
 -0.03078\C,0,-4.461221,-2.759769,0.31457\N,0,-5.508071,-3.200071,0.575
 752\C,0,-2.269453,-3.449542,-0.369379\N,0,-1.540388,-4.315134,-0.64883
 9\H,0,-6.541837,0.427929,1.204213\H,0,-5.219282,1.451737,1.841094\H,0,
 -5.722744,1.596591,0.12447\H,0,-3.507193,2.221812,0.462663\H,0,0.63023
 5,3.004993,-1.603073\H,0,0.378364,4.471809,-0.631195\H,0,1.09749,3.020
 876,0.091195\H,0,1.490974,-1.136182,-0.351926\H,0,0.965757,-0.939491,-
 2.068883\H,0,4.140006,1.219817,-0.849402\H,0,3.058464,0.573104,0.40033
 5\H,0,3.968698,-1.745177,-0.015199\H,0,4.976491,-1.099339,-1.336715\H,
 0,-0.66659,-1.690877,-0.666085\\Version=ES64L-G16RevC.02\State=1-A\HF=
 -3579.7195265\RMSD=2.254e-09\PG=C01 [X(C16H14Br1N3O3)]\\@
 The archive entry for this job was punched.


 ART, GLORY, FREEDOM FAIL, BUT NATURE STILL IS FAIR.

                                           -- BYRON
 Job cpu time:       0 days  1 hours 53 minutes 13.7 seconds.
 Elapsed time:       0 days  0 hours  7 minutes 16.4 seconds.
 File lengths (MBytes):  RWF=   1434 Int=      0 D2E=      0 Chk=     70 Scr=      2
 Normal termination of Gaussian 16 at Tue Aug 26 09:05:05 2025.
