 Entering Gaussian System, Link 0=g16
 Input=M739E.gjf
 Output=M739E.log
 Initial command:
 /hpc/softwares/Gaussian/g16/l1.exe "/hpc/home/hpcmgac13/pbs.13424.admin1.x8z/Gau-375841.inp" -scrdir="/hpc/home/hpcmgac13/pbs.13424.admin1.x8z/"
 Default linda workers: n1
 Default is to use  16 SMP processors on each worker.
 Entering Link 1 = /hpc/softwares/Gaussian/g16/l1.exe PID=    375842.
  
 Copyright (c) 1988-2021, Gaussian, Inc.  All Rights Reserved.
  
 This is part of the Gaussian(R) 16 program.  It is based on
 the Gaussian(R) 09 system (copyright 2009, Gaussian, Inc.),
 the Gaussian(R) 03 system (copyright 2003, Gaussian, Inc.),
 the Gaussian(R) 98 system (copyright 1998, Gaussian, Inc.),
 the Gaussian(R) 94 system (copyright 1995, Gaussian, Inc.),
 the Gaussian 92(TM) system (copyright 1992, Gaussian, Inc.),
 the Gaussian 90(TM) system (copyright 1990, Gaussian, Inc.),
 the Gaussian 88(TM) system (copyright 1988, Gaussian, Inc.),
 the Gaussian 86(TM) system (copyright 1986, Carnegie Mellon
 University), and the Gaussian 82(TM) system (copyright 1983,
 Carnegie Mellon University). Gaussian is a federally registered
 trademark of Gaussian, Inc.
  
 This software contains proprietary and confidential information,
 including trade secrets, belonging to Gaussian, Inc.
  
 This software is provided under written license and may be
 used, copied, transmitted, or stored only in accord with that
 written license.
  
 The following legend is applicable only to US Government
 contracts under FAR:
  
                    RESTRICTED RIGHTS LEGEND
  
 Use, reproduction and disclosure by the US Government is
 subject to restrictions as set forth in subparagraphs (a)
 and (c) of the Commercial Computer Software - Restricted
 Rights clause in FAR 52.227-19.
  
 Gaussian, Inc.
 340 Quinnipiac St., Bldg. 40, Wallingford CT 06492
  
  
 ---------------------------------------------------------------
 Warning -- This program may not be used in any manner that
 competes with the business of Gaussian, Inc. or will provide
 assistance to any competitor of Gaussian, Inc.  The licensee
 of this program is prohibited from giving any competitor of
 Gaussian, Inc. access to this program.  By using this program,
 the user acknowledges that Gaussian, Inc. is engaged in the
 business of creating and licensing software in the field of
 computational chemistry and represents and warrants to the
 licensee that it is not a competitor of Gaussian, Inc. and that
 it will not use this program in any manner prohibited above.
 ---------------------------------------------------------------
  

 Cite this work as:
 Gaussian 16, Revision C.02,
 M. J. Frisch, G. W. Trucks, H. B. Schlegel, G. E. Scuseria, 
 M. A. Robb, J. R. Cheeseman, G. Scalmani, V. Barone, 
 G. A. Petersson, H. Nakatsuji, X. Li, M. Caricato, A. V. Marenich, 
 J. Bloino, B. G. Janesko, R. Gomperts, B. Mennucci, H. P. Hratchian, 
 J. V. Ortiz, A. F. Izmaylov, J. L. Sonnenberg, D. Williams-Young, 
 F. Ding, F. Lipparini, F. Egidi, J. Goings, B. Peng, A. Petrone, 
 T. Henderson, D. Ranasinghe, V. G. Zakrzewski, J. Gao, N. Rega, 
 G. Zheng, W. Liang, M. Hada, M. Ehara, K. Toyota, R. Fukuda, 
 J. Hasegawa, M. Ishida, T. Nakajima, Y. Honda, O. Kitao, H. Nakai, 
 T. Vreven, K. Throssell, J. A. Montgomery, Jr., J. E. Peralta, 
 F. Ogliaro, M. J. Bearpark, J. J. Heyd, E. N. Brothers, K. N. Kudin, 
 V. N. Staroverov, T. A. Keith, R. Kobayashi, J. Normand, 
 K. Raghavachari, A. P. Rendell, J. C. Burant, S. S. Iyengar, 
 J. Tomasi, M. Cossi, J. M. Millam, M. Klene, C. Adamo, R. Cammi, 
 J. W. Ochterski, R. L. Martin, K. Morokuma, O. Farkas, 
 J. B. Foresman, and D. J. Fox, Gaussian, Inc., Wallingford CT, 2019.
 
 ******************************************
 Gaussian 16:  ES64L-G16RevC.02  7-Dec-2021
                25-Aug-2025 
 ******************************************
 SetLPE:    new flags="-opt 'Tsnet.Node.lindarsharg: ssh'  -nodelist 'n1' -env GAUSS_MDEF=4294967296 -env GAUSS_EXEDIR="/hpc/softwares/Gaussian/g16/bsd:/hpc/softwares/Gaussian/g16""
 Will use up to    1 processors via Linda.
 ----------------------------------------------------------
 # td=(50-50,nstates=3) b3lyp/6-31+g(d,p) geom=connectivity
 ----------------------------------------------------------
 1/38=1,57=2,172=1/1;
 2/12=2,17=6,18=5,40=1/2;
 3/5=1,6=6,7=111,11=9,25=1,30=1,74=-5/1,2,3,8;
 4//1;
 5/5=2,38=5/2;
 8/6=1,10=2,108=3/1;
 9/41=3,42=1,48=2,70=2/14;
 6/7=2,8=2,9=2,10=2/1;
 99/5=1,9=1/99;
 -------------------
 Title Card Required
 -------------------
 Symbolic Z-matrix:
 Charge =  0 Multiplicity = 1
 C                     6.79212  -0.523    -0.39216 
 C                     5.29897  -0.31126  -0.297 
 C                     4.70385   0.84725  -0.80962 
 C                     3.32089   1.05305  -0.75874 
 C                     2.72619   2.31973  -1.33392 
 C                     2.50425   0.06116  -0.17206 
 C                     1.033     0.26655  -0.10215 
 C                     0.07525  -0.0805   -0.97904 
 C                    -1.26689   0.40822  -0.49259 
 C                    -2.39057  -0.61816  -0.37986 
 C                    -2.07938  -1.98175  -0.30787 
 C                    -3.07716  -2.95166  -0.19278 
 C                    -4.41378  -2.56048  -0.1524 
 C                    -4.73993  -1.20414  -0.22238 
 C                    -3.74691  -0.22472  -0.3315 
 C                    -4.10715   1.25882  -0.38541 
 C                    -5.54214   1.54586  -0.34582 
 N                    -6.677     1.79135  -0.31964 
 C                    -0.90548   1.06769   0.86173 
 O                    -1.66787   1.60757   1.6543 
 N                     0.45902   0.95217   1.00934 
 C                     1.17525   1.4434    2.17508 
 C                     3.08082  -1.11351   0.3556 
 C                     2.23013  -2.19676   0.98181 
 C                     4.4697   -1.27623   0.28394 
 H                     7.33677   0.4219   -0.30013 
 H                     7.15064  -1.20006   0.38892 
 H                     7.06481  -0.96382  -1.35934 
 H                     5.33176   1.61307  -1.25975 
 H                     3.51183   2.98728  -1.69721 
 H                     2.05389   2.1003   -2.17048 
 H                     2.13668   2.8695   -0.59136 
 H                     0.24376  -0.59264  -1.9167 
 H                    -1.60175   1.23117  -1.14143 
 H                    -1.03746  -2.28378  -0.34267 
 H                    -2.80746  -4.00223  -0.13706 
 H                    -5.20357  -3.30075  -0.06649 
 H                    -5.78233  -0.9031   -0.1882 
 H                    -3.62746   1.7794    0.45297 
 H                    -3.71516   1.71567  -1.30448 
 H                     1.6621    0.62436   2.7139 
 H                     1.93677   2.17515   1.88901 
 H                     0.44115   1.91891   2.82706 
 H                     2.85665  -2.95014   1.46659 
 H                     1.54061  -1.79743   1.73313 
 H                     1.61697  -2.70513   0.22915 
 H                     4.91343  -2.18024   0.69511 
 
                          Input orientation:                          
 ---------------------------------------------------------------------
 Center     Atomic      Atomic             Coordinates (Angstroms)
 Number     Number       Type             X           Y           Z
 ---------------------------------------------------------------------
      1          6           0        6.792121   -0.522996   -0.392163
      2          6           0        5.298968   -0.311259   -0.297000
      3          6           0        4.703846    0.847252   -0.809619
      4          6           0        3.320886    1.053051   -0.758735
      5          6           0        2.726187    2.319725   -1.333916
      6          6           0        2.504254    0.061163   -0.172058
      7          6           0        1.033005    0.266549   -0.102153
      8          6           0        0.075251   -0.080495   -0.979043
      9          6           0       -1.266887    0.408216   -0.492593
     10          6           0       -2.390574   -0.618158   -0.379861
     11          6           0       -2.079381   -1.981753   -0.307868
     12          6           0       -3.077157   -2.951658   -0.192776
     13          6           0       -4.413784   -2.560478   -0.152396
     14          6           0       -4.739927   -1.204141   -0.222377
     15          6           0       -3.746912   -0.224720   -0.331503
     16          6           0       -4.107152    1.258816   -0.385406
     17          6           0       -5.542140    1.545858   -0.345821
     18          7           0       -6.676999    1.791345   -0.319644
     19          6           0       -0.905476    1.067694    0.861732
     20          8           0       -1.667867    1.607574    1.654296
     21          7           0        0.459021    0.952167    1.009336
     22          6           0        1.175251    1.443404    2.175080
     23          6           0        3.080819   -1.113514    0.355600
     24          6           0        2.230126   -2.196756    0.981811
     25          6           0        4.469700   -1.276229    0.283936
     26          1           0        7.336770    0.421902   -0.300128
     27          1           0        7.150642   -1.200056    0.388917
     28          1           0        7.064813   -0.963822   -1.359338
     29          1           0        5.331761    1.613073   -1.259746
     30          1           0        3.511833    2.987283   -1.697209
     31          1           0        2.053886    2.100299   -2.170484
     32          1           0        2.136680    2.869502   -0.591363
     33          1           0        0.243759   -0.592640   -1.916695
     34          1           0       -1.601753    1.231168   -1.141429
     35          1           0       -1.037459   -2.283784   -0.342667
     36          1           0       -2.807463   -4.002226   -0.137056
     37          1           0       -5.203575   -3.300749   -0.066492
     38          1           0       -5.782334   -0.903095   -0.188198
     39          1           0       -3.627459    1.779403    0.452971
     40          1           0       -3.715155    1.715667   -1.304481
     41          1           0        1.662104    0.624362    2.713896
     42          1           0        1.936770    2.175145    1.889005
     43          1           0        0.441150    1.918908    2.827059
     44          1           0        2.856653   -2.950138    1.466591
     45          1           0        1.540606   -1.797428    1.733134
     46          1           0        1.616974   -2.705128    0.229147
     47          1           0        4.913434   -2.180236    0.695108
 ---------------------------------------------------------------------
                    Distance matrix (angstroms):
                    1          2          3          4          5
     1  C    0.000000
     2  C    1.511090   0.000000
     3  C    2.532339   1.399677   0.000000
     4  C    3.829853   2.446906   1.399114   0.000000
     5  C    5.049731   3.823150   2.520754   1.512932   0.000000
     6  C    4.333070   2.822186   2.421286   1.412416   2.549563
     7  C    5.820215   4.309323   3.783226   2.506808   2.932514
     8  C    6.756965   5.273107   4.723697   3.444940   3.593668
     9  C    8.113252   6.608052   5.995241   4.640507   4.506255
    10  C    9.183196   7.696110   7.256922   5.962991   5.976840
    11  C    8.991030   7.565098   7.366627   6.210974   6.530618
    12  C   10.165668   8.783054   8.680796   7.569211   7.922656
    13  C   11.392152   9.970830   9.755806   8.558642   8.728778
    14  C   11.553394  10.078801   9.681834   8.388045   8.330427
    15  C   10.543428   9.046360   8.531883   7.195067   7.027093
    16  C   11.043960   9.536668   8.830800   7.440260   6.979951
    17  C   12.506650  10.999131  10.280243   8.886315   8.363040
    18  N   13.666698  12.159163  11.430443  10.034719   9.472478
    19  C    7.959620   6.460596   5.857175   4.526396   4.424639
    20  O    8.960955   7.485070   6.873696   5.569369   5.361369
    21  N    6.651952   5.169898   4.619323   3.365490   3.535688
    22  C    6.481257   5.118111   4.659915   3.655598   3.935276
    23  C    3.831661   2.447383   2.799385   2.448138   3.842832
    24  C    5.049859   3.822074   4.312134   3.844542   5.099732
    25  C    2.533399   1.398692   2.399971   2.798657   4.311400
    26  H    1.094507   2.165680   2.715289   4.090965   5.091947
    27  H    1.094090   2.165442   3.408045   4.589186   5.910399
    28  H    1.097322   2.161622   3.025945   4.294821   5.441140
    29  H    2.729128   2.151978   1.087830   2.146685   2.700717
    30  H    4.978503   4.004350   2.605464   2.158344   1.093094
    31  H    5.700436   4.456020   3.231775   2.166807   1.095437
    32  H    5.763840   4.494881   3.275282   2.174822   1.095974
    33  H    6.723845   5.315800   4.815733   3.676667   3.870911
    34  H    8.607881   7.121242   6.325984   4.940704   4.466886
    35  H    8.025282   6.636509   6.556219   5.504794   6.028259
    36  H   10.213821   8.908594   8.966021   7.968624   8.486508
    37  H   12.317414  10.922161  10.766389   9.596938   9.801899
    38  H   12.581852  11.097629  10.649406   9.328485   9.170287
    39  H   10.704342   9.198610   8.477835   7.090509   6.622215
    40  H   10.781780   9.293969   8.478125   7.088214   6.469671
    41  H    6.105826   4.813280   4.660154   3.872273   4.515674
    42  H    6.004842   4.718601   4.086879   3.191457   3.321340
    43  H    7.527358   6.191267   5.704774   4.679798   4.764007
    44  H    4.983362   4.004852   4.797231   4.603598   5.969197
    45  H    5.806847   4.522768   4.844173   4.183783   5.269094
    46  H    5.650652   4.423180   4.819462   4.243010   5.377980
    47  H    2.730946   2.150811   3.387302   3.886388   5.399133
                    6          7          8          9         10
     6  C    0.000000
     7  C    1.487160   0.000000
     8  C    2.563464   1.344124   0.000000
     9  C    3.800617   2.337096   1.508909   0.000000
    10  C    4.946110   3.546931   2.593915   1.526049   0.000000
    11  C    5.020125   3.845013   2.950881   2.531051   1.400505
    12  C    6.342686   5.220967   4.335835   3.828279   2.439594
    13  C    7.398151   6.136947   5.194718   4.339567   2.813845
    14  C    7.354025   5.958534   5.002106   3.838583   2.426445
    15  C    6.259731   4.810567   3.879309   2.564582   1.413076
    16  C    6.722394   5.242713   4.431552   2.966836   2.543561
    17  C    8.184068   6.702875   5.882268   4.426461   3.823152
    18  N    9.344020   7.862345   7.037860   5.586794   4.917598
    19  C    3.702443   2.308380   2.380886   1.549105   2.566937
    20  O    4.809735   3.489724   3.580853   2.491661   3.100642
    21  N    2.524393   1.426512   2.273174   2.351687   3.537793
    22  C    3.030824   2.567297   3.671615   3.761932   4.846944
    23  C    1.410927   2.511504   3.447004   4.683764   5.542781
    24  C    2.550443   2.945496   3.600971   4.603134   5.069220
    25  C    2.420646   3.786833   4.726106   6.028995   6.923658
    26  H    4.847654   6.308786   7.310471   8.605820   9.783113
    27  H    4.847091   6.310116   7.292866   8.615010   9.589809
    28  H    4.822751   6.283075   7.055414   8.488284   9.512266
    29  H    3.403863   4.651070   5.529726   6.751471   8.086226
    30  H    3.450142   4.011382   4.662308   5.562270   7.040811
    31  H    2.890435   2.946664   3.176538   4.087297   5.509044
    32  H    2.863162   2.869284   3.619705   4.201423   5.718788
    33  H    2.929344   2.157238   1.081609   2.304741   3.049954
    34  H    4.378114   2.992079   2.135222   1.100170   2.149937
    35  H    4.251072   3.293762   2.549035   2.705916   2.146302
    36  H    6.687802   5.742199   4.939530   4.685273   3.418284
    37  H    8.409770   7.184832   6.250503   5.425449   3.899676
    38  H    8.342517   6.915513   5.967697   4.711842   3.409100
    39  H    6.398509   4.931208   4.384056   2.889039   2.823436
    40  H    6.534586   5.107892   4.207052   2.891817   2.838340
    41  H    3.058617   2.907564   4.080775   4.348250   5.247798
    42  H    3.006483   2.902454   4.096201   4.365486   5.628161
    43  H    4.086847   3.414801   4.314847   4.027365   4.973902
    44  H    3.446344   4.016681   4.685315   5.667497   6.031659
    45  H    2.830677   2.808191   3.528601   4.207225   4.616232
    46  H    2.932677   3.046579   3.274955   4.304704   4.559252
    47  H    3.402939   4.656191   5.533508   6.804931   7.546137
                   11         12         13         14         15
    11  C    0.000000
    12  C    1.396252   0.000000
    13  C    2.410090   1.393278   0.000000
    14  C    2.773174   2.412363   1.396752   0.000000
    15  C    2.422475   2.811407   2.435685   1.399019   0.000000
    16  C    3.823500   4.338904   3.838662   2.548164   1.527599
    17  C    4.943296   5.131005   4.262933   2.867277   2.521507
    18  N    5.947646   5.955756   4.908001   3.568563   3.556693
    19  C    3.470611   4.688643   5.147845   4.586888   3.341841
    20  O    4.111289   5.117067   5.308187   4.567844   3.409271
    21  N    4.097121   5.402729   6.118213   5.761583   4.568674
    22  C    5.337543   6.557918   7.258480   6.909893   5.770033
    23  C    5.274627   6.449818   7.649891   7.842598   6.919536
    24  C    4.503482   5.487876   6.749834   7.142618   6.429518
    25  C    6.613506   7.745280   8.986433   9.223816   8.306452
    26  H    9.718103  10.947251  12.124023  12.185921  11.102572
    27  H    9.289235  10.392995  11.656746  11.906273  10.964806
    28  H    9.260565  10.400573  11.651790  11.861801  10.885592
    29  H    8.291795   9.627310  10.659287  10.509602   9.309212
    30  H    7.608105   8.997173   9.796913   9.372017   8.054284
    31  H    6.100523   7.467342   8.223520   7.801945   6.514355
    32  H    6.433523   7.824888   8.519739   8.001153   6.652698
    33  H    3.148800   4.423273   5.355170   5.299224   4.309716
    34  H    3.353478   4.535724   4.823099   4.077195   2.716118
    35  H    1.085373   2.151486   3.392983   3.858545   3.403088
    36  H    2.154435   1.086063   2.158504   3.401614   3.897426
    37  H    3.399794   2.158580   1.085887   2.152913   3.413803
    38  H    3.858715   3.393319   2.149681   1.085546   2.150272
    39  H    4.137840   4.806533   4.451892   3.255029   2.155499
    40  H    4.164122   4.840129   4.483391   3.278168   2.170898
    41  H    5.470064   6.610390   7.434733   7.276752   6.265209
    42  H    6.183488   7.467087   8.180647   7.775332   6.557000
    43  H    5.603213   6.724604   7.246546   6.774663   5.666703
    44  H    5.333939   6.161461   7.458700   7.975534   7.366690
    45  H    4.159804   5.134697   6.292236   6.604628   5.890160
    46  H    3.804563   4.719498   6.044546   6.547292   5.936163
    47  H    7.067165   8.076693   9.373358   9.745867   8.937537
                   16         17         18         19         20
    16  C    0.000000
    17  C    1.463950   0.000000
    18  N    2.625267   1.161402   0.000000
    19  C    3.441309   4.815130   5.935469   0.000000
    20  O    3.198770   4.360535   5.387171   1.225099   0.000000
    21  N    4.784274   6.180846   7.307064   1.377311   2.317150
    22  C    5.873154   7.175568   8.246365   2.489069   2.895080
    23  C    7.605522   9.050949  10.203390   4.572131   5.625029
    24  C    7.346520   8.727994   9.845588   4.528030   5.488125
    25  C    8.968660  10.421022  11.576840   5.892397   6.918377
    26  H   11.474801  12.927942  14.080535   8.348748   9.290268
    27  H   11.549180  13.007175  14.165246   8.382558   9.340775
    28  H   11.432474  12.894223  14.053800   8.519725   9.589253
    29  H    9.485939  10.912447  12.046821   6.610691   7.581983
    30  H    7.921954   9.267059  10.350857   5.453955   6.321825
    31  H    6.469388   7.831757   8.930253   4.361013   5.359400
    32  H    6.451524   7.795935   8.883535   3.822657   4.594565
    33  H    4.970228   6.365332   7.492052   3.434692   4.609472
    34  H    2.617128   4.032204   5.171774   2.127012   2.821725
    35  H    4.687735   5.912556   6.957846   3.563762   4.419043
    36  H    5.424890   6.188964   6.969370   5.506289   5.998123
    37  H    4.700370   4.866441   5.307022   6.198270   6.289195
    38  H    2.742077   2.465747   2.842131   5.363777   5.160144
    39  H    1.097266   2.087730   3.145913   2.843028   2.304931
    40  H    1.098669   2.070202   3.122203   3.606472   3.599644
    41  H    6.579705   7.881126   8.950131   3.196799   3.630174
    42  H    6.522392   7.830999   8.900699   3.218711   3.656588
    43  H    5.607379   6.782779   7.783705   2.529916   2.433157
    44  H    8.345044   9.697347  10.796426   5.537368   6.424893
    45  H    6.762101   8.103389   9.199034   3.866728   4.679162
    46  H    6.989717   8.345920   9.450367   4.582260   5.605411
    47  H    9.714194  11.148378  12.293954   6.666073   7.653827
                   21         22         23         24         25
    21  N    0.000000
    22  C    1.453705   0.000000
    23  C    3.401211   3.671447   0.000000
    24  C    3.612933   3.973338   1.513021   0.000000
    25  C    4.645159   4.671854   1.400215   2.519939   0.000000
    26  H    7.021347   6.718217   4.571717   5.880353   3.383027
    27  H    7.056541   6.773740   4.070879   5.055335   2.684078
    28  H    7.274484   7.278309   4.340003   5.511379   3.087484
    29  H    5.415637   5.394756   3.887205   5.399955   3.387354
    30  H    4.559248   4.778891   4.606119   5.974461   4.797914
    31  H    3.738055   4.481901   4.214770   5.332233   4.822995
    32  H    3.008812   3.257500   4.201494   5.305712   4.836964
    33  H    3.315784   4.664309   3.671995   3.862665   4.813382
    34  H    2.991725   4.330823   5.446569   5.562563   6.721700
    35  H    3.812970   5.012690   4.337894   3.526886   5.633525
    36  H    6.044017   7.131821   6.577175   5.467073   7.782377
    37  H    7.163079   8.259604   8.578656   7.587994   9.889071
    38  H    6.620468   7.713568   8.882312   8.200122  10.269681
    39  H    4.206326   5.113177   7.306124   7.099353   8.656180
    40  H    4.833263   6.008123   7.546217   7.475329   8.858124
    41  H    2.111963   1.094613   3.254923   3.358791   4.171276
    42  H    2.110269   1.094164   3.804663   4.474659   4.572085
    43  H    2.058889   1.090910   4.719274   4.852223   5.736339
    44  H    4.602793   4.757340   2.158180   1.093221   2.608173
    45  H    3.042036   3.291169   2.176602   1.095165   3.309292
    46  H    3.914761   4.603487   2.166118   1.095856   3.191050
    47  H    5.454584   5.412494   2.147473   2.698632   1.087746
                   26         27         28         29         30
    26  H    0.000000
    27  H    1.772054   0.000000
    28  H    1.765253   1.766230   0.000000
    29  H    2.521868   3.733646   3.107053   0.000000
    30  H    4.812812   5.926775   5.324383   2.322060   0.000000
    31  H    5.850138   6.589370   5.929265   3.436757   1.770971
    32  H    5.754694   6.531620   6.290521   3.497698   1.768563
    33  H    7.345297   7.306835   6.853846   5.584310   4.852250
    34  H    9.014427   9.211798   8.942865   6.945032   5.435218
    35  H    8.800583   8.291844   8.271803   7.522865   7.093306
    36  H   11.068196  10.358217  10.401332   9.951833   9.550959
    37  H   13.083309  12.539816  12.555717  11.686009  10.870001
    38  H   13.186320  12.949252  12.900560  11.445629  10.187919
    39  H   11.073585  11.182519  11.186350   9.122976   7.553260
    40  H   11.172627  11.376932  11.108122   9.047608   7.348510
    41  H    6.428621   6.233625   6.950024   5.498524   5.335048
    42  H    6.084913   6.389578   6.833862   4.664389   4.000165
    43  H    7.718154   7.790363   8.349189   6.380720   5.571312
    44  H    5.879064   4.760516   5.444257   5.863614   6.759575
    45  H    6.531087   5.799679   6.385542   5.912842   6.208579
    46  H    6.540223   5.736920   5.935856   5.887555   6.301181
    47  H    3.692448   2.461627   3.213852   4.287849   5.864377
                   31         32         33         34         35
    31  H    0.000000
    32  H    1.758451   0.000000
    33  H    3.254672   4.162461   0.000000
    34  H    3.895900   4.118567   2.707993   0.000000
    35  H    5.667231   6.057505   2.641789   3.648470   0.000000
    36  H    8.062776   8.477711   4.909414   5.463599   2.475527
    37  H    9.288102   9.603480   6.358502   5.887859   4.297326
    38  H    8.623003   8.780992   6.276773   4.789675   4.944088
    39  H    6.266033   5.958544   5.121351   2.635556   4.883711
    40  H    5.846344   6.006983   4.623428   2.174349   4.908233
    41  H    5.117524   4.023756   4.993513   5.087682   5.008745
    42  H    4.061868   2.583471   5.001027   4.753501   5.805898
    43  H    5.254451   3.932437   5.371223   4.516120   5.467730
    44  H    6.275322   6.214640   4.881766   6.645485   4.345291
    45  H    5.540213   5.247745   4.056424   5.225890   3.345431
    46  H    5.388993   5.658607   3.309526   5.266223   2.747820
    47  H    5.891656   5.904678   5.581025   7.580119   6.041591
                   36         37         38         39         40
    36  H    0.000000
    37  H    2.497679   0.000000
    38  H    4.296171   2.469518   0.000000
    39  H    5.869221   5.344336   3.500054   0.000000
    40  H    5.906021   5.377029   3.518129   1.760793   0.000000
    41  H    7.036354   8.382995   8.134798   5.867314   6.800972
    42  H    8.048142   9.208361   8.565915   5.760161   6.507974
    43  H    7.375588   8.214644   7.469085   4.712678   5.863941
    44  H    5.980032   8.212219   9.031102   8.089480   8.522748
    45  H    5.221537   7.140210   7.623437   6.414159   7.013698
    46  H    4.625171   6.852887   7.627009   6.903998   7.094156
    47  H    7.976490  10.207324  10.807903   9.417230   9.676206
                   41         42         43         44         45
    41  H    0.000000
    42  H    1.777868   0.000000
    43  H    1.783083   1.783951   0.000000
    44  H    3.969857   5.224284   5.602958   0.000000
    45  H    2.615669   3.995320   4.026988   1.769679   0.000000
    46  H    4.154698   5.164733   5.432625   1.768644   1.758331
    47  H    4.744726   5.408813   6.430359   2.327721   3.549649
                   46         47
    46  H    0.000000
    47  H    3.370353   0.000000
 Stoichiometry    C22H22N2O
 Framework group  C1[X(C22H22N2O)]
 Deg. of freedom   135
 Full point group                 C1      NOp   1
 Largest Abelian subgroup         C1      NOp   1
 Largest concise Abelian subgroup C1      NOp   1
                         Standard orientation:                         
 ---------------------------------------------------------------------
 Center     Atomic      Atomic             Coordinates (Angstroms)
 Number     Number       Type             X           Y           Z
 ---------------------------------------------------------------------
      1          6           0       -6.792121    0.522996   -0.392163
      2          6           0       -5.298968    0.311259   -0.297000
      3          6           0       -4.703846   -0.847252   -0.809619
      4          6           0       -3.320886   -1.053051   -0.758735
      5          6           0       -2.726187   -2.319725   -1.333916
      6          6           0       -2.504254   -0.061163   -0.172058
      7          6           0       -1.033005   -0.266549   -0.102153
      8          6           0       -0.075251    0.080495   -0.979043
      9          6           0        1.266887   -0.408216   -0.492593
     10          6           0        2.390574    0.618158   -0.379861
     11          6           0        2.079381    1.981753   -0.307868
     12          6           0        3.077157    2.951658   -0.192776
     13          6           0        4.413784    2.560478   -0.152396
     14          6           0        4.739927    1.204141   -0.222377
     15          6           0        3.746912    0.224720   -0.331503
     16          6           0        4.107152   -1.258816   -0.385406
     17          6           0        5.542140   -1.545858   -0.345821
     18          7           0        6.676999   -1.791345   -0.319644
     19          6           0        0.905476   -1.067694    0.861732
     20          8           0        1.667867   -1.607574    1.654296
     21          7           0       -0.459021   -0.952167    1.009336
     22          6           0       -1.175251   -1.443404    2.175080
     23          6           0       -3.080819    1.113514    0.355600
     24          6           0       -2.230126    2.196756    0.981811
     25          6           0       -4.469700    1.276229    0.283936
     26          1           0       -7.336770   -0.421902   -0.300128
     27          1           0       -7.150642    1.200056    0.388917
     28          1           0       -7.064813    0.963822   -1.359338
     29          1           0       -5.331761   -1.613073   -1.259746
     30          1           0       -3.511833   -2.987283   -1.697209
     31          1           0       -2.053886   -2.100299   -2.170484
     32          1           0       -2.136680   -2.869502   -0.591363
     33          1           0       -0.243759    0.592640   -1.916695
     34          1           0        1.601753   -1.231168   -1.141429
     35          1           0        1.037459    2.283784   -0.342667
     36          1           0        2.807463    4.002226   -0.137056
     37          1           0        5.203575    3.300749   -0.066492
     38          1           0        5.782334    0.903095   -0.188198
     39          1           0        3.627459   -1.779403    0.452971
     40          1           0        3.715155   -1.715667   -1.304481
     41          1           0       -1.662104   -0.624362    2.713896
     42          1           0       -1.936770   -2.175145    1.889005
     43          1           0       -0.441150   -1.918908    2.827059
     44          1           0       -2.856653    2.950138    1.466591
     45          1           0       -1.540606    1.797428    1.733134
     46          1           0       -1.616974    2.705128    0.229147
     47          1           0       -4.913434    2.180236    0.695108
 ---------------------------------------------------------------------
 Rotational constants (GHZ):           0.5204077           0.1082905           0.0981790
 Standard basis: 6-31+G(d,p) (6D, 7F)
 There are   585 symmetry adapted cartesian basis functions of A   symmetry.
 There are   585 symmetry adapted basis functions of A   symmetry.
   585 basis functions,   954 primitive gaussians,   585 cartesian basis functions
    88 alpha electrons       88 beta electrons
       nuclear repulsion energy      2051.9475311805 Hartrees.
 NAtoms=   47 NActive=   47 NUniq=   47 SFac= 1.00D+00 NAtFMM=   60 NAOKFM=F Big=F
 Integral buffers will be    131072 words long.
 Regular integral format.
 Two-electron integral symmetry is turned on.
 One-electron integrals computed using PRISM.
 NBasis=   585 RedAO= T EigKep=  1.04D-06  NBF=   585
 NBsUse=   580 1.00D-06 EigRej=  4.53D-07 NBFU=   580
 ExpMin= 4.38D-02 ExpMax= 5.48D+03 ExpMxC= 8.25D+02 IAcc=3 IRadAn=         5 AccDes= 0.00D+00
 Harris functional with IExCor=  402 and IRadAn=       5 diagonalized for initial guess.
 HarFok:  IExCor=  402 AccDes= 0.00D+00 IRadAn=         5 IDoV= 1 UseB2=F ITyADJ=14
 ICtDFT=  3500011 ScaDFX=  1.000000  1.000000  1.000000  1.000000
 FoFCou: FMM=F IPFlag=           0 FMFlag=      100000 FMFlg1=           0
         NFxFlg=           0 DoJE=T BraDBF=F KetDBF=T FulRan=T
         wScrn=  0.000000 ICntrl=       500 IOpCl=  0 I1Cent=   200000004 NGrid=           0
         NMat0=    1 NMatS0=      1 NMatT0=    0 NMatD0=    1 NMtDS0=    0 NMtDT0=    0
 Petite list used in FoFCou.
 Requested convergence on RMS density matrix=1.00D-08 within 128 cycles.
 Requested convergence on MAX density matrix=1.00D-06.
 Requested convergence on             energy=1.00D-06.
 No special actions if energy rises.
 SCF Done:  E(RB3LYP) =  -1036.38912830     A.U. after   18 cycles
            NFock= 18  Conv=0.14D-08     -V/T= 2.0097
 DoSCS=F DFT=T ScalE2(SS,OS)=  1.000000  1.000000
 ExpMin= 4.38D-02 ExpMax= 5.48D+03 ExpMxC= 8.25D+02 IAcc=3 IRadAn=         5 AccDes= 0.00D+00
 HarFok:  IExCor=  205 AccDes= 0.00D+00 IRadAn=         5 IDoV=-2 UseB2=F ITyADJ=14
 ICtDFT= 12500011 ScaDFX=  1.000000  1.000000  1.000000  1.000000
 GSVD:  LWork=        -825 too small for GESVD, short by        3500 words or        3500 for optimal perf.
 Range of M.O.s used for correlation:    26   580
 NBasis=   585 NAE=    88 NBE=    88 NFC=    25 NFV=     0
 NROrb=    555 NOA=    63 NOB=    63 NVA=   492 NVB=   492

 **** Warning!!: The largest alpha MO coefficient is  0.19642275D+03

 Orbital symmetries:
       Occupied  (A) (A) (A) (A) (A) (A) (A) (A) (A) (A) (A) (A)
                 (A) (A) (A) (A) (A) (A) (A) (A) (A) (A) (A) (A)
                 (A) (A) (A) (A) (A) (A) (A) (A) (A) (A) (A) (A)
                 (A) (A) (A) (A) (A) (A) (A) (A) (A) (A) (A) (A)
                 (A) (A) (A) (A) (A) (A) (A) (A) (A) (A) (A) (A)
                 (A) (A) (A) (A) (A) (A) (A) (A) (A) (A) (A) (A)
                 (A) (A) (A) (A) (A) (A) (A) (A) (A) (A) (A) (A)
                 (A) (A) (A) (A)
       Virtual   (A) (A) (A) (A) (A) (A) (A) (A) (A) (A) (A) (A)
                 (A) (A) (A) (A) (A) (A) (A) (A) (A) (A) (A) (A)
                 (A) (A) (A) (A) (A) (A) (A) (A) (A) (A) (A) (A)
                 (A) (A) (A) (A) (A) (A) (A) (A) (A) (A) (A) (A)
                 (A) (A) (A) (A) (A) (A) (A) (A) (A) (A) (A) (A)
                 (A) (A) (A) (A) (A) (A) (A) (A) (A) (A) (A) (A)
                 (A) (A) (A) (A) (A) (A) (A) (A) (A) (A) (A) (A)
                 (A) (A) (A) (A) (A) (A) (A) (A) (A) (A) (A) (A)
                 (A) (A) (A) (A) (A) (A) (A) (A) (A) (A) (A) (A)
                 (A) (A) (A) (A) (A) (A) (A) (A) (A) (A) (A) (A)
                 (A) (A) (A) (A) (A) (A) (A) (A) (A) (A) (A) (A)
                 (A) (A) (A) (A) (A) (A) (A) (A) (A) (A) (A) (A)
                 (A) (A) (A) (A) (A) (A) (A) (A) (A) (A) (A) (A)
                 (A) (A) (A) (A) (A) (A) (A) (A) (A) (A) (A) (A)
                 (A) (A) (A) (A) (A) (A) (A) (A) (A) (A) (A) (A)
                 (A) (A) (A) (A) (A) (A) (A) (A) (A) (A) (A) (A)
                 (A) (A) (A) (A) (A) (A) (A) (A) (A) (A) (A) (A)
                 (A) (A) (A) (A) (A) (A) (A) (A) (A) (A) (A) (A)
                 (A) (A) (A) (A) (A) (A) (A) (A) (A) (A) (A) (A)
                 (A) (A) (A) (A) (A) (A) (A) (A) (A) (A) (A) (A)
                 (A) (A) (A) (A) (A) (A) (A) (A) (A) (A) (A) (A)
                 (A) (A) (A) (A) (A) (A) (A) (A) (A) (A) (A) (A)
                 (A) (A) (A) (A) (A) (A) (A) (A) (A) (A) (A) (A)
                 (A) (A) (A) (A) (A) (A) (A) (A) (A) (A) (A) (A)
                 (A) (A) (A) (A) (A) (A) (A) (A) (A) (A) (A) (A)
                 (A) (A) (A) (A) (A) (A) (A) (A) (A) (A) (A) (A)
                 (A) (A) (A) (A) (A) (A) (A) (A) (A) (A) (A) (A)
                 (A) (A) (A) (A) (A) (A) (A) (A) (A) (A) (A) (A)
                 (A) (A) (A) (A) (A) (A) (A) (A) (A) (A) (A) (A)
                 (A) (A) (A) (A) (A) (A) (A) (A) (A) (A) (A) (A)
                 (A) (A) (A) (A) (A) (A) (A) (A) (A) (A) (A) (A)
                 (A) (A) (A) (A) (A) (A) (A) (A) (A) (A) (A) (A)
                 (A) (A) (A) (A) (A) (A) (A) (A) (A) (A) (A) (A)
                 (A) (A) (A) (A) (A) (A) (A) (A) (A) (A) (A) (A)
                 (A) (A) (A) (A) (A) (A) (A) (A) (A) (A) (A) (A)
                 (A) (A) (A) (A) (A) (A) (A) (A) (A) (A) (A) (A)
                 (A) (A) (A) (A) (A) (A) (A) (A) (A) (A) (A) (A)
                 (A) (A) (A) (A) (A) (A) (A) (A) (A) (A) (A) (A)
                 (A) (A) (A) (A) (A) (A) (A) (A) (A) (A) (A) (A)
                 (A) (A) (A) (A) (A) (A) (A) (A) (A) (A) (A) (A)
                 (A) (A) (A) (A) (A) (A) (A) (A) (A) (A) (A) (A)
    24 initial guesses have been made.
 Convergence on wavefunction:    0.001000000000000
 Iteration     1 Dimension    24 NMult     0 NNew     24
 CISAX will form    24 AO SS matrices at one time.
 New state      1 was old state      4
 New state      2 was old state     18
 New state      3 was old state      2
 New state      4 was old state      1
 New state      5 was old state     22
 New state      7 was old state     16
 New state      8 was old state      5
 New state      9 was old state      8
 New state     10 was old state      7
 New state     11 was old state     10
 New state     12 was old state      9
 Vector   5 SDiff=4.20D-01 TDiff=6.02D+00 assumed to be singlet.
 Vector   6 SDiff=2.61D+00 TDiff=6.97D+00 assumed to be singlet.
 Vector  11 SDiff=4.34D-01 TDiff=5.69D+00 assumed to be singlet.
 Vector  12 SDiff=2.67D+00 TDiff=6.73D+00 assumed to be singlet.
 Iteration     2 Dimension    36 NMult    24 NNew     12
 New state      5 was old state      8
 New state      6 was old state     10
 Iteration     3 Dimension    48 NMult    36 NNew     12
 Iteration     4 Dimension    60 NMult    48 NNew     12
 Iteration     5 Dimension    72 NMult    60 NNew     12
 Iteration     6 Dimension    84 NMult    72 NNew     12
 Iteration     7 Dimension    90 NMult    84 NNew      6
 Iteration     8 Dimension    96 NMult    90 NNew      6
 Iteration     9 Dimension   100 NMult    96 NNew      4
 Iteration    10 Dimension   102 NMult   100 NNew      2
 ***********************************************************************
 Excited states from <AA,BB:AA,BB> singles matrix:
 ***********************************************************************
 
 Ground to excited state transition densities written to RWF  633
 Ground to excited state transition electric dipole moments (Au):
       state          X           Y           Z        Dip. S.      Osc.
         1         0.0000      0.0000      0.0000      0.0000      0.0000
         2         0.0000      0.0000      0.0000      0.0000      0.0000
         3        -0.0000      0.0000      0.0000      0.0000      0.0000
         4        -0.1228     -0.0236     -0.0080      0.0157      0.0018
         5         0.1675     -0.1625      0.3483      0.1758      0.0203
         6        -0.1765     -0.1264      0.1560      0.0715      0.0086
 Ground to excited state transition velocity dipole moments (Au):
       state          X           Y           Z        Dip. S.      Osc.
         1        -0.0000      0.0000      0.0000      0.0000      0.0000
         2        -0.0000      0.0000      0.0000      0.0000      0.0000
         3         0.0000      0.0000      0.0000      0.0000      0.0000
         4         0.0204      0.0086      0.0036      0.0005      0.0020
         5        -0.0224      0.0277     -0.0600      0.0049      0.0187
         6         0.0353      0.0207     -0.0263      0.0024      0.0087
 Ground to excited state transition magnetic dipole moments (Au):
       state          X           Y           Z
         1         0.0000      0.0000      0.0000
         2         0.0000     -0.0000      0.0000
         3        -0.0000     -0.0000      0.0000
         4         0.1611     -0.0834      0.1807
         5        -0.0619     -0.4368     -0.5519
         6        -0.2057     -0.1292     -0.0377
 Ground to excited state transition velocity quadrupole moments (Au):
       state          XX          YY          ZZ          XY          XZ          YZ
         1        -0.0000     -0.0000     -0.0000     -0.0000      0.0000     -0.0000
         2        -0.0000      0.0000     -0.0000      0.0000      0.0000     -0.0000
         3         0.0000      0.0000      0.0000      0.0000     -0.0000     -0.0000
         4         0.0078      0.0281     -0.0168      0.0297      0.0074     -0.0179
         5        -0.1910     -0.1382      0.0323      0.0770     -0.2437      0.1359
         6        -0.0851      0.0753     -0.0028      0.1252     -0.0683      0.0505
 <0|del|b> * <b|rxdel|0> + <0|del|b> * <b|delr+rdel|0>
 Rotatory Strengths (R) in cgs (10**-40 erg-esu-cm/Gauss)
       state          XX          YY          ZZ    R(velocity)    E-M Angle
         1        -0.0000      0.0000     -0.0000     -0.0000       90.00
         2         0.0000      0.0000     -0.0000     -0.0000       90.00
         3         0.0000      0.0000     -0.0000      0.0000       90.00
         4        -0.0684      7.2565      6.2812      4.4898       56.00
         5        47.1736     73.5191    -29.3704     30.4408       62.98
         6        -6.9904     -2.3285    -25.7537    -11.6909      138.38
 1/2[<0|r|b>*<b|rxdel|0> + (<0|rxdel|b>*<b|r|0>)*]
 Rotatory Strengths (R) in cgs (10**-40 erg-esu-cm/Gauss)
       state          XX          YY          ZZ     R(length)
         1        -0.0000     -0.0000     -0.0000     -0.0000
         2        -0.0000      0.0000     -0.0000     -0.0000
         3        -0.0000      0.0000     -0.0000     -0.0000
         4        13.9958     -1.3914      1.0174      4.5406
         5         7.3347    -50.1964    135.9338     31.0240
         6       -25.6661    -11.5454      4.1647    -11.0156
  1/2[<0|del|b>*<b|r|0> + (<0|r|b>*<b|del|0>)*] (Au)
       state          X           Y           Z        Dip. S.   Osc.(frdel)
         1        -0.0000      0.0000      0.0000      0.0000      0.0000
         2        -0.0000      0.0000      0.0000      0.0000      0.0000
         3        -0.0000      0.0000      0.0000      0.0000      0.0000
         4        -0.0025     -0.0002     -0.0000      0.0027      0.0018
         5        -0.0038     -0.0045     -0.0209      0.0291      0.0194
         6        -0.0062     -0.0026     -0.0041      0.0129      0.0086

 Excitation energies and oscillator strengths:
 
 Excited State   1:      Triplet-A      3.2891 eV  376.96 nm  f=0.0000  <S**2>=2.000
      88 -> 90         0.57951
      88 -> 91         0.21210
      88 -> 92        -0.19415
      88 -> 93        -0.12115
 This state for optimization and/or second-order correction.
 Total Energy, E(TD-HF/TD-DFT) =  -1036.26825653    
 Copying the excited state density for this state as the 1-particle RhoCI density.
 
 Excited State   2:      Triplet-A      3.5892 eV  345.44 nm  f=0.0000  <S**2>=2.000
      85 -> 91        -0.23174
      85 -> 92        -0.34951
      86 -> 89         0.49477
      86 -> 90         0.11962
      87 -> 89         0.17702
 
 Excited State   3:      Triplet-A      3.6667 eV  338.14 nm  f=0.0000  <S**2>=2.000
      83 -> 91         0.14032
      84 -> 91         0.10229
      84 -> 93         0.40283
      86 -> 91        -0.12870
      87 -> 89         0.15094
      87 -> 90        -0.23296
      87 -> 91         0.31710
      87 -> 92        -0.18641
      87 -> 93        -0.11789
 
 Excited State   4:      Singlet-A      4.5955 eV  269.80 nm  f=0.0018  <S**2>=0.000
      88 -> 89         0.69922
 
 Excited State   5:      Singlet-A      4.7190 eV  262.73 nm  f=0.0203  <S**2>=0.000
      87 -> 90         0.10679
      88 -> 90         0.67378
 
 Excited State   6:      Singlet-A      4.9006 eV  253.00 nm  f=0.0086  <S**2>=0.000
      87 -> 90         0.20583
      88 -> 91         0.65543
 SavETr:  write IOETrn=   770 NScale= 10 NData=  16 NLR=1 NState=    6 LETran=     118.

 **********************************************************************

            Population analysis using the SCF Density.

 **********************************************************************

 Orbital symmetries:
       Occupied  (A) (A) (A) (A) (A) (A) (A) (A) (A) (A) (A) (A)
                 (A) (A) (A) (A) (A) (A) (A) (A) (A) (A) (A) (A)
                 (A) (A) (A) (A) (A) (A) (A) (A) (A) (A) (A) (A)
                 (A) (A) (A) (A) (A) (A) (A) (A) (A) (A) (A) (A)
                 (A) (A) (A) (A) (A) (A) (A) (A) (A) (A) (A) (A)
                 (A) (A) (A) (A) (A) (A) (A) (A) (A) (A) (A) (A)
                 (A) (A) (A) (A) (A) (A) (A) (A) (A) (A) (A) (A)
                 (A) (A) (A) (A)
       Virtual   (A) (A) (A) (A) (A) (A) (A) (A) (A) (A) (A) (A)
                 (A) (A) (A) (A) (A) (A) (A) (A) (A) (A) (A) (A)
                 (A) (A) (A) (A) (A) (A) (A) (A) (A) (A) (A) (A)
                 (A) (A) (A) (A) (A) (A) (A) (A) (A) (A) (A) (A)
                 (A) (A) (A) (A) (A) (A) (A) (A) (A) (A) (A) (A)
                 (A) (A) (A) (A) (A) (A) (A) (A) (A) (A) (A) (A)
                 (A) (A) (A) (A) (A) (A) (A) (A) (A) (A) (A) (A)
                 (A) (A) (A) (A) (A) (A) (A) (A) (A) (A) (A) (A)
                 (A) (A) (A) (A) (A) (A) (A) (A) (A) (A) (A) (A)
                 (A) (A) (A) (A) (A) (A) (A) (A) (A) (A) (A) (A)
                 (A) (A) (A) (A) (A) (A) (A) (A) (A) (A) (A) (A)
                 (A) (A) (A) (A) (A) (A) (A) (A) (A) (A) (A) (A)
                 (A) (A) (A) (A) (A) (A) (A) (A) (A) (A) (A) (A)
                 (A) (A) (A) (A) (A) (A) (A) (A) (A) (A) (A) (A)
                 (A) (A) (A) (A) (A) (A) (A) (A) (A) (A) (A) (A)
                 (A) (A) (A) (A) (A) (A) (A) (A) (A) (A) (A) (A)
                 (A) (A) (A) (A) (A) (A) (A) (A) (A) (A) (A) (A)
                 (A) (A) (A) (A) (A) (A) (A) (A) (A) (A) (A) (A)
                 (A) (A) (A) (A) (A) (A) (A) (A) (A) (A) (A) (A)
                 (A) (A) (A) (A) (A) (A) (A) (A) (A) (A) (A) (A)
                 (A) (A) (A) (A) (A) (A) (A) (A) (A) (A) (A) (A)
                 (A) (A) (A) (A) (A) (A) (A) (A) (A) (A) (A) (A)
                 (A) (A) (A) (A) (A) (A) (A) (A) (A) (A) (A) (A)
                 (A) (A) (A) (A) (A) (A) (A) (A) (A) (A) (A) (A)
                 (A) (A) (A) (A) (A) (A) (A) (A) (A) (A) (A) (A)
                 (A) (A) (A) (A) (A) (A) (A) (A) (A) (A) (A) (A)
                 (A) (A) (A) (A) (A) (A) (A) (A) (A) (A) (A) (A)
                 (A) (A) (A) (A) (A) (A) (A) (A) (A) (A) (A) (A)
                 (A) (A) (A) (A) (A) (A) (A) (A) (A) (A) (A) (A)
                 (A) (A) (A) (A) (A) (A) (A) (A) (A) (A) (A) (A)
                 (A) (A) (A) (A) (A) (A) (A) (A) (A) (A) (A) (A)
                 (A) (A) (A) (A) (A) (A) (A) (A) (A) (A) (A) (A)
                 (A) (A) (A) (A) (A) (A) (A) (A) (A) (A) (A) (A)
                 (A) (A) (A) (A) (A) (A) (A) (A) (A) (A) (A) (A)
                 (A) (A) (A) (A) (A) (A) (A) (A) (A) (A) (A) (A)
                 (A) (A) (A) (A) (A) (A) (A) (A) (A) (A) (A) (A)
                 (A) (A) (A) (A) (A) (A) (A) (A) (A) (A) (A) (A)
                 (A) (A) (A) (A) (A) (A) (A) (A) (A) (A) (A) (A)
                 (A) (A) (A) (A) (A) (A) (A) (A) (A) (A) (A) (A)
                 (A) (A) (A) (A) (A) (A) (A) (A) (A) (A) (A) (A)
                 (A) (A) (A) (A) (A) (A) (A) (A) (A) (A) (A) (A)
 The electronic state is 1-A.
 Alpha  occ. eigenvalues --  -19.14324 -14.39545 -14.33824 -10.30689 -10.25136
 Alpha  occ. eigenvalues --  -10.23735 -10.23473 -10.23246 -10.22886 -10.22262
 Alpha  occ. eigenvalues --  -10.22061 -10.22055 -10.22028 -10.21688 -10.21587
 Alpha  occ. eigenvalues --  -10.20355 -10.20293 -10.20236 -10.20135 -10.20110
 Alpha  occ. eigenvalues --  -10.20104 -10.20043 -10.20012 -10.19970 -10.19926
 Alpha  occ. eigenvalues --   -1.05957  -0.97847  -0.90816  -0.88200  -0.87875
 Alpha  occ. eigenvalues --   -0.83066  -0.80792  -0.80342  -0.79985  -0.76852
 Alpha  occ. eigenvalues --   -0.73872  -0.72814  -0.71769  -0.70743  -0.69647
 Alpha  occ. eigenvalues --   -0.68347  -0.63315  -0.61149  -0.59480  -0.59366
 Alpha  occ. eigenvalues --   -0.58531  -0.55625  -0.53047  -0.52396  -0.51847
 Alpha  occ. eigenvalues --   -0.50391  -0.48279  -0.47695  -0.47470  -0.46961
 Alpha  occ. eigenvalues --   -0.45605  -0.45292  -0.44995  -0.44021  -0.43807
 Alpha  occ. eigenvalues --   -0.43478  -0.43361  -0.42782  -0.42607  -0.42087
 Alpha  occ. eigenvalues --   -0.42033  -0.41674  -0.40978  -0.40514  -0.40250
 Alpha  occ. eigenvalues --   -0.38717  -0.38268  -0.37167  -0.36459  -0.36020
 Alpha  occ. eigenvalues --   -0.35801  -0.35566  -0.35323  -0.34800  -0.33150
 Alpha  occ. eigenvalues --   -0.32818  -0.32537  -0.28441  -0.26213  -0.25740
 Alpha  occ. eigenvalues --   -0.25580  -0.25172  -0.23067
 Alpha virt. eigenvalues --   -0.03278  -0.03243  -0.02479  -0.02375  -0.02100
 Alpha virt. eigenvalues --   -0.01212  -0.00249   0.00277   0.00766   0.01263
 Alpha virt. eigenvalues --    0.01553   0.02229   0.02496   0.02635   0.02855
 Alpha virt. eigenvalues --    0.02967   0.03537   0.03825   0.04181   0.04585
 Alpha virt. eigenvalues --    0.04878   0.05124   0.05253   0.05604   0.06018
 Alpha virt. eigenvalues --    0.06405   0.06756   0.06991   0.07267   0.07600
 Alpha virt. eigenvalues --    0.07879   0.08422   0.08707   0.09304   0.09495
 Alpha virt. eigenvalues --    0.09594   0.09883   0.10485   0.10976   0.11268
 Alpha virt. eigenvalues --    0.11385   0.11602   0.12080   0.12326   0.12722
 Alpha virt. eigenvalues --    0.12805   0.13294   0.13671   0.13709   0.14067
 Alpha virt. eigenvalues --    0.14487   0.14768   0.15148   0.15301   0.15590
 Alpha virt. eigenvalues --    0.15851   0.16126   0.16177   0.16715   0.17000
 Alpha virt. eigenvalues --    0.17438   0.17657   0.17843   0.18083   0.18134
 Alpha virt. eigenvalues --    0.18423   0.18591   0.18860   0.19023   0.19424
 Alpha virt. eigenvalues --    0.19661   0.20490   0.20612   0.20925   0.21064
 Alpha virt. eigenvalues --    0.21159   0.21306   0.21853   0.22085   0.22438
 Alpha virt. eigenvalues --    0.22695   0.22777   0.23115   0.23231   0.23647
 Alpha virt. eigenvalues --    0.23675   0.24249   0.24670   0.24983   0.25134
 Alpha virt. eigenvalues --    0.25229   0.25557   0.25615   0.26009   0.26351
 Alpha virt. eigenvalues --    0.26399   0.26788   0.27269   0.27404   0.27720
 Alpha virt. eigenvalues --    0.27828   0.28103   0.28543   0.28923   0.29038
 Alpha virt. eigenvalues --    0.29235   0.29549   0.29928   0.30313   0.30632
 Alpha virt. eigenvalues --    0.30845   0.31182   0.31505   0.31682   0.32169
 Alpha virt. eigenvalues --    0.32488   0.32746   0.32934   0.33075   0.33923
 Alpha virt. eigenvalues --    0.34310   0.34403   0.34667   0.35006   0.36102
 Alpha virt. eigenvalues --    0.36577   0.36796   0.37189   0.37600   0.37949
 Alpha virt. eigenvalues --    0.38619   0.38993   0.39374   0.40066   0.40371
 Alpha virt. eigenvalues --    0.40952   0.42077   0.42350   0.42818   0.43481
 Alpha virt. eigenvalues --    0.43624   0.44510   0.45115   0.46208   0.47363
 Alpha virt. eigenvalues --    0.47919   0.48960   0.51186   0.53625   0.55800
 Alpha virt. eigenvalues --    0.58319   0.60224   0.60686   0.63392   0.65011
 Alpha virt. eigenvalues --    0.66884   0.67240   0.67682   0.68230   0.68596
 Alpha virt. eigenvalues --    0.69522   0.69591   0.69843   0.70597   0.70988
 Alpha virt. eigenvalues --    0.71541   0.71781   0.72250   0.73000   0.73352
 Alpha virt. eigenvalues --    0.73906   0.74140   0.74639   0.74778   0.75202
 Alpha virt. eigenvalues --    0.75371   0.76094   0.76305   0.76658   0.77260
 Alpha virt. eigenvalues --    0.77406   0.78698   0.78880   0.79563   0.79763
 Alpha virt. eigenvalues --    0.80469   0.80623   0.80958   0.81767   0.82489
 Alpha virt. eigenvalues --    0.83153   0.83814   0.85261   0.85993   0.86142
 Alpha virt. eigenvalues --    0.87098   0.88115   0.88798   0.89385   0.89738
 Alpha virt. eigenvalues --    0.90757   0.91661   0.91943   0.92073   0.92491
 Alpha virt. eigenvalues --    0.93449   0.93834   0.94749   0.96032   0.96868
 Alpha virt. eigenvalues --    0.97167   0.97430   0.98010   0.98902   0.99821
 Alpha virt. eigenvalues --    1.00172   1.01066   1.02207   1.02454   1.03224
 Alpha virt. eigenvalues --    1.04544   1.04786   1.05297   1.06263   1.06477
 Alpha virt. eigenvalues --    1.06711   1.07784   1.08524   1.09173   1.10490
 Alpha virt. eigenvalues --    1.11375   1.11457   1.12874   1.13724   1.14621
 Alpha virt. eigenvalues --    1.15399   1.16915   1.17951   1.18487   1.19286
 Alpha virt. eigenvalues --    1.19629   1.19888   1.21045   1.21144   1.22795
 Alpha virt. eigenvalues --    1.24060   1.24331   1.24487   1.24927   1.25793
 Alpha virt. eigenvalues --    1.26202   1.28458   1.29209   1.29626   1.30607
 Alpha virt. eigenvalues --    1.31468   1.32021   1.32280   1.33182   1.33944
 Alpha virt. eigenvalues --    1.34216   1.35048   1.36053   1.37011   1.37980
 Alpha virt. eigenvalues --    1.39058   1.39537   1.40507   1.40974   1.41196
 Alpha virt. eigenvalues --    1.42026   1.42683   1.43090   1.44637   1.46762
 Alpha virt. eigenvalues --    1.49413   1.50947   1.52611   1.53286   1.56026
 Alpha virt. eigenvalues --    1.57901   1.58299   1.58846   1.60054   1.62392
 Alpha virt. eigenvalues --    1.64343   1.65561   1.66099   1.68111   1.68788
 Alpha virt. eigenvalues --    1.70907   1.71232   1.71982   1.73682   1.74313
 Alpha virt. eigenvalues --    1.74964   1.76262   1.76534   1.76929   1.77759
 Alpha virt. eigenvalues --    1.78700   1.79646   1.80711   1.81769   1.82637
 Alpha virt. eigenvalues --    1.83013   1.83621   1.84823   1.85495   1.87319
 Alpha virt. eigenvalues --    1.88190   1.89087   1.89985   1.91774   1.92013
 Alpha virt. eigenvalues --    1.92193   1.93814   1.94016   1.94514   1.95874
 Alpha virt. eigenvalues --    1.96058   1.97582   1.98522   1.99105   2.00198
 Alpha virt. eigenvalues --    2.00378   2.00972   2.01439   2.02099   2.02520
 Alpha virt. eigenvalues --    2.02854   2.03571   2.03783   2.04420   2.04615
 Alpha virt. eigenvalues --    2.05039   2.05609   2.07447   2.08874   2.10063
 Alpha virt. eigenvalues --    2.10588   2.11421   2.12157   2.12470   2.13620
 Alpha virt. eigenvalues --    2.14321   2.14988   2.16624   2.17323   2.18610
 Alpha virt. eigenvalues --    2.19177   2.19553   2.20073   2.22011   2.23091
 Alpha virt. eigenvalues --    2.23388   2.24561   2.25328   2.25655   2.27434
 Alpha virt. eigenvalues --    2.27686   2.28316   2.29175   2.30275   2.31827
 Alpha virt. eigenvalues --    2.32240   2.34473   2.35760   2.37675   2.38327
 Alpha virt. eigenvalues --    2.38441   2.38947   2.39070   2.39789   2.40915
 Alpha virt. eigenvalues --    2.43593   2.44042   2.44558   2.45308   2.47405
 Alpha virt. eigenvalues --    2.47674   2.48863   2.49712   2.51399   2.51881
 Alpha virt. eigenvalues --    2.52727   2.53360   2.53749   2.54284   2.55721
 Alpha virt. eigenvalues --    2.56642   2.57636   2.58103   2.60173   2.60830
 Alpha virt. eigenvalues --    2.61112   2.62157   2.62553   2.63786   2.64274
 Alpha virt. eigenvalues --    2.64958   2.65705   2.67587   2.68243   2.69159
 Alpha virt. eigenvalues --    2.70182   2.70941   2.72078   2.73261   2.73388
 Alpha virt. eigenvalues --    2.76170   2.76914   2.77518   2.78800   2.79621
 Alpha virt. eigenvalues --    2.80356   2.83813   2.84357   2.84668   2.85598
 Alpha virt. eigenvalues --    2.85735   2.87758   2.88905   2.89130   2.89696
 Alpha virt. eigenvalues --    2.90880   2.92404   2.93614   2.94415   2.95639
 Alpha virt. eigenvalues --    2.98319   3.02362   3.04744   3.05012   3.06598
 Alpha virt. eigenvalues --    3.08233   3.11318   3.12034   3.20978   3.22185
 Alpha virt. eigenvalues --    3.24038   3.24261   3.24610   3.25320   3.26472
 Alpha virt. eigenvalues --    3.27121   3.27369   3.27438   3.30314   3.33679
 Alpha virt. eigenvalues --    3.36885   3.41840   3.42869   3.43787   3.44103
 Alpha virt. eigenvalues --    3.45147   3.45843   3.45982   3.46577   3.47322
 Alpha virt. eigenvalues --    3.49079   3.50749   3.51407   3.51757   3.55128
 Alpha virt. eigenvalues --    3.70291   3.85017   4.25202   4.29797   4.29900
 Alpha virt. eigenvalues --    4.33011   4.34337   4.34954   4.37041   4.40495
 Alpha virt. eigenvalues --    4.43508   4.46923   4.48270   4.48729   4.49690
 Alpha virt. eigenvalues --    4.51564   4.54958   4.57577   4.59164   4.59702
 Alpha virt. eigenvalues --    4.62479   4.66941   4.74589   4.76918   4.88392
 Alpha virt. eigenvalues --    4.89553   4.97310
          Condensed to atoms (all electrons):
               1          2          3          4          5          6
     1  C    7.356941  -1.834842   0.690803  -0.345802  -0.105707  -0.676575
     2  C   -1.834842   9.452046  -0.882313  -0.462699  -0.139729   0.913451
     3  C    0.690803  -0.882313  30.100288 -15.588894   0.653194  -4.826363
     4  C   -0.345802  -0.462699 -15.588894  21.581933  -1.367313   2.604767
     5  C   -0.105707  -0.139729   0.653194  -1.367313   7.795899  -1.078000
     6  C   -0.676575   0.913451  -4.826363   2.604767  -1.078000  10.702078
     7  C    0.011042   0.069463  -4.172112   0.253690  -0.415639   2.056544
     8  C   -0.012923   0.036820  -1.390427  -0.612392   0.018122  -3.675357
     9  C    0.053709   0.150496   0.861676  -0.100680  -0.309196   2.261625
    10  C   -0.005013  -0.049154   0.364266   0.351053   0.102869  -0.759100
    11  C    0.004416   0.037878  -0.304632  -0.263220  -0.041961   0.401304
    12  C    0.000240   0.007370  -0.075651  -0.121260   0.003490  -0.054855
    13  C    0.000041   0.000925  -0.003266  -0.006144  -0.000706   0.028835
    14  C   -0.000002  -0.001956   0.021562   0.078935   0.001964  -0.077827
    15  C    0.000216  -0.000994   0.138855   0.233963  -0.010522  -0.098731
    16  C    0.000187   0.003127  -0.019200  -0.052749  -0.003498   0.115049
    17  C    0.000016   0.000278   0.000236   0.001153  -0.001864   0.017091
    18  N   -0.000000  -0.000000  -0.000002  -0.000026   0.000010  -0.000090
    19  C    0.005177   0.020619   0.029039   0.013972  -0.049428  -0.436244
    20  O   -0.000040  -0.000645   0.004241   0.011540  -0.001855   0.030517
    21  N   -0.002705   0.010574   0.361694   0.102075   0.190637  -0.371845
    22  C   -0.009495  -0.020291  -0.019345  -0.004689   0.032876   0.081196
    23  C   -0.595777   0.676144   7.595833  -5.801428  -0.701968   1.119971
    24  C    0.036467  -0.374560   1.103621  -0.767882  -0.160157  -0.699660
    25  C    0.432656  -1.723998  -8.457080   6.482417   0.682835  -1.624042
    26  H    0.513450  -0.166131  -0.058731   0.027773   0.000812  -0.014839
    27  H    0.519921  -0.145265   0.081480  -0.043603   0.000221  -0.016933
    28  H    0.495570  -0.166368   0.004806   0.006401   0.000532  -0.014100
    29  H   -0.001121   0.085400   0.079899   0.021121  -0.006864   0.010293
    30  H    0.002036  -0.002769   0.147507  -0.290353   0.544156  -0.030272
    31  H   -0.002289  -0.017511  -0.169557  -0.059564   0.510001   0.039616
    32  H   -0.001725  -0.013097  -0.035036  -0.034021   0.452100  -0.032277
    33  H    0.000495   0.002076   0.000558   0.009933   0.004949   0.020067
    34  H   -0.000021  -0.000277   0.000321  -0.002459   0.011317  -0.029945
    35  H   -0.000008   0.000871  -0.000102  -0.005441  -0.000569  -0.001453
    36  H   -0.000000   0.000001   0.000002   0.000021   0.000002   0.000042
    37  H   -0.000000  -0.000000   0.000000   0.000002   0.000000  -0.000011
    38  H   -0.000000  -0.000000   0.000000   0.000002  -0.000000  -0.000002
    39  H   -0.000000  -0.000000  -0.000035  -0.000494   0.000152   0.001099
    40  H   -0.000000  -0.000001  -0.000034  -0.000395   0.000140  -0.001180
    41  H   -0.000836  -0.009189  -0.025101   0.020562   0.015309  -0.010816
    42  H    0.000050  -0.002363   0.032395  -0.038637  -0.032704   0.026818
    43  H    0.000009  -0.000095  -0.000101   0.005536  -0.000132   0.002302
    44  H    0.000072   0.000569  -0.002339  -0.012133  -0.000204  -0.028308
    45  H   -0.000683  -0.009456   0.007612  -0.003034  -0.000146  -0.015539
    46  H   -0.002846  -0.020734   0.015258  -0.017863  -0.000561   0.002752
    47  H    0.009092   0.080501   0.081957  -0.019355   0.000530   0.020582
               7          8          9         10         11         12
     1  C    0.011042  -0.012923   0.053709  -0.005013   0.004416   0.000240
     2  C    0.069463   0.036820   0.150496  -0.049154   0.037878   0.007370
     3  C   -4.172112  -1.390427   0.861676   0.364266  -0.304632  -0.075651
     4  C    0.253690  -0.612392  -0.100680   0.351053  -0.263220  -0.121260
     5  C   -0.415639   0.018122  -0.309196   0.102869  -0.041961   0.003490
     6  C    2.056544  -3.675357   2.261625  -0.759100   0.401304  -0.054855
     7  C   17.987087   0.669275  -3.069596   0.525936  -0.731986  -0.397352
     8  C    0.669275  26.172598 -11.633241   2.265990  -0.732865   0.731088
     9  C   -3.069596 -11.633241  25.210100  -8.090565   3.723076   1.181088
    10  C    0.525936   2.265990  -8.090565  18.626568  -5.301331  -3.867439
    11  C   -0.731986  -0.732865   3.723076  -5.301331  15.177878  -2.930483
    12  C   -0.397352   0.731088   1.181088  -3.867439  -2.930483  11.699939
    13  C    0.013645  -0.431803   0.657870  -1.082466  -0.914166   1.458773
    14  C   -0.436627   1.144892  -4.798562   1.511963   1.771394  -3.415144
    15  C   -0.751348  -0.480902  -1.660864   3.224094  -3.505931   0.728691
    16  C    0.091781  -1.423310   2.166709  -1.291681  -0.629200   0.849086
    17  C   -0.208036  -0.581390  -1.497734  -0.298792  -0.168668  -0.119887
    18  N    0.001800   0.006468   0.060765   0.028967  -0.003718   0.003867
    19  C   -1.286079  -0.060303  -0.270203  -0.482043   0.047658   0.243067
    20  O   -0.033068  -0.072298  -0.000366   0.055288  -0.012197  -0.023744
    21  N   -1.225294  -0.173474  -0.563140   0.245620  -0.049098   0.044086
    22  C    0.220705  -0.158074  -0.216827   0.031702  -0.048975  -0.003143
    23  C   -0.719912  -1.818529   0.869978  -0.471430   0.130179   0.157920
    24  C   -0.700286  -0.663667   0.365168   0.058299   0.038699  -0.156051
    25  C   -1.583883  -0.737689   0.379117  -0.502064   0.362257   0.124180
    26  H    0.000241   0.000002   0.000034  -0.000002   0.000002   0.000000
    27  H    0.000035  -0.000008   0.000035   0.000003  -0.000003  -0.000000
    28  H   -0.000391  -0.000197   0.000012   0.000001  -0.000000   0.000000
    29  H    0.011087   0.001511   0.000081  -0.000029   0.000025   0.000002
    30  H   -0.013124  -0.000342   0.009526  -0.000106  -0.000114  -0.000013
    31  H    0.087315   0.013157  -0.023379  -0.003576   0.002664   0.000240
    32  H    0.011913  -0.015303  -0.022081  -0.000051   0.001032   0.000111
    33  H   -0.114032   0.215677   0.134541  -0.213065   0.153716   0.037483
    34  H   -0.017877   0.050485  -0.054972   0.248318  -0.201111  -0.001249
    35  H    0.015848  -0.007669  -0.059833   0.036571   0.273651  -0.009576
    36  H    0.001861  -0.004336  -0.008349   0.044497  -0.033395   0.295658
    37  H    0.000145   0.001080   0.004251   0.017416   0.001783  -0.004389
    38  H    0.000377   0.001183   0.009947   0.053687  -0.013012   0.013660
    39  H    0.018964   0.007628   0.176071  -0.051144   0.024399   0.006842
    40  H    0.000268   0.015324   0.034450   0.006092  -0.012788   0.009731
    41  H    0.052312   0.037923  -0.037651   0.011079  -0.001484   0.000465
    42  H   -0.002864   0.001042   0.013059   0.000172  -0.001230  -0.000164
    43  H    0.017320  -0.012512   0.001952  -0.007821   0.004328   0.000539
    44  H   -0.002179   0.005333   0.004896  -0.001723  -0.000225   0.001665
    45  H   -0.003397  -0.020096  -0.005139  -0.006113   0.003242   0.000426
    46  H    0.044602   0.008157  -0.012290   0.021053  -0.010239  -0.014707
    47  H    0.014994   0.001637   0.000398   0.000108  -0.000010  -0.000028
              13         14         15         16         17         18
     1  C    0.000041  -0.000002   0.000216   0.000187   0.000016  -0.000000
     2  C    0.000925  -0.001956  -0.000994   0.003127   0.000278  -0.000000
     3  C   -0.003266   0.021562   0.138855  -0.019200   0.000236  -0.000002
     4  C   -0.006144   0.078935   0.233963  -0.052749   0.001153  -0.000026
     5  C   -0.000706   0.001964  -0.010522  -0.003498  -0.001864   0.000010
     6  C    0.028835  -0.077827  -0.098731   0.115049   0.017091  -0.000090
     7  C    0.013645  -0.436627  -0.751348   0.091781  -0.208036   0.001800
     8  C   -0.431803   1.144892  -0.480902  -1.423310  -0.581390   0.006468
     9  C    0.657870  -4.798562  -1.660864   2.166709  -1.497734   0.060765
    10  C   -1.082466   1.511963   3.224094  -1.291681  -0.298792   0.028967
    11  C   -0.914166   1.771394  -3.505931  -0.629200  -0.168668  -0.003718
    12  C    1.458773  -3.415144   0.728691   0.849086  -0.119887   0.003867
    13  C    7.465830  -1.261593  -0.686668   0.146128   0.626262   0.012304
    14  C   -1.261593  18.104704  -3.686055  -2.726527   0.423813  -0.095730
    15  C   -0.686668  -3.686055  13.057858  -0.460698  -1.178812   0.093317
    16  C    0.146128  -2.726527  -0.460698  10.472670  -2.369845   0.388535
    17  C    0.626262   0.423813  -1.178812  -2.369845  11.627266  -0.211961
    18  N    0.012304  -0.095730   0.093317   0.388535  -0.211961   7.231983
    19  C    0.034344  -0.086173  -0.109219   0.166483   0.191688  -0.003162
    20  O    0.000391   0.035803   0.122439  -0.126469   0.016935  -0.000177
    21  N   -0.013473   0.027832   0.085804  -0.066825  -0.002442   0.000199
    22  C   -0.001384  -0.010183  -0.023851  -0.010965  -0.005178   0.000017
    23  C    0.028527  -0.074602  -0.113342   0.041696   0.003349  -0.000010
    24  C   -0.010794   0.024094   0.047263  -0.017706  -0.000226  -0.000001
    25  C    0.011814  -0.014258  -0.086904   0.010733   0.000730  -0.000001
    26  H    0.000000  -0.000000  -0.000000   0.000000   0.000000  -0.000000
    27  H   -0.000000   0.000000   0.000000   0.000000   0.000000  -0.000000
    28  H    0.000000  -0.000000  -0.000000  -0.000000  -0.000000   0.000000
    29  H    0.000000  -0.000000  -0.000004   0.000001   0.000000  -0.000000
    30  H    0.000000   0.000005   0.000138  -0.000002   0.000001  -0.000000
    31  H    0.000003  -0.000245  -0.003131   0.000565   0.000013  -0.000000
    32  H   -0.000005  -0.000046  -0.000968  -0.000024  -0.000014   0.000000
    33  H    0.003341  -0.005638  -0.016150   0.003936   0.000186  -0.000000
    34  H   -0.001864   0.024169   0.045798   0.087330   0.038558   0.000048
    35  H    0.001822  -0.016238   0.054656   0.002147   0.001382  -0.000004
    36  H   -0.015066   0.018796   0.005544   0.003823   0.000363   0.000004
    37  H    0.247823   0.008649   0.039195  -0.000875  -0.004347   0.000131
    38  H    0.055141   0.291740  -0.042452  -0.047602  -0.017652   0.001090
    39  H    0.000658  -0.075553  -0.151146   0.503776  -0.135874   0.001138
    40  H   -0.001679  -0.065912  -0.033105   0.330662   0.012379  -0.003279
    41  H   -0.000043   0.000299   0.000420  -0.000257  -0.000026   0.000000
    42  H    0.000001   0.000003   0.000876   0.000602   0.000075  -0.000000
    43  H   -0.000027  -0.000482  -0.003359  -0.002062  -0.000450   0.000000
    44  H    0.000107   0.000016  -0.000111   0.000031   0.000001  -0.000000
    45  H   -0.000076  -0.000427   0.000657  -0.000060  -0.000026  -0.000000
    46  H   -0.001225   0.000440   0.002005  -0.000429  -0.000016   0.000000
    47  H   -0.000001   0.000000   0.000012   0.000000   0.000000  -0.000000
              19         20         21         22         23         24
     1  C    0.005177  -0.000040  -0.002705  -0.009495  -0.595777   0.036467
     2  C    0.020619  -0.000645   0.010574  -0.020291   0.676144  -0.374560
     3  C    0.029039   0.004241   0.361694  -0.019345   7.595833   1.103621
     4  C    0.013972   0.011540   0.102075  -0.004689  -5.801428  -0.767882
     5  C   -0.049428  -0.001855   0.190637   0.032876  -0.701968  -0.160157
     6  C   -0.436244   0.030517  -0.371845   0.081196   1.119971  -0.699660
     7  C   -1.286079  -0.033068  -1.225294   0.220705  -0.719912  -0.700286
     8  C   -0.060303  -0.072298  -0.173474  -0.158074  -1.818529  -0.663667
     9  C   -0.270203  -0.000366  -0.563140  -0.216827   0.869978   0.365168
    10  C   -0.482043   0.055288   0.245620   0.031702  -0.471430   0.058299
    11  C    0.047658  -0.012197  -0.049098  -0.048975   0.130179   0.038699
    12  C    0.243067  -0.023744   0.044086  -0.003143   0.157920  -0.156051
    13  C    0.034344   0.000391  -0.013473  -0.001384   0.028527  -0.010794
    14  C   -0.086173   0.035803   0.027832  -0.010183  -0.074602   0.024094
    15  C   -0.109219   0.122439   0.085804  -0.023851  -0.113342   0.047263
    16  C    0.166483  -0.126469  -0.066825  -0.010965   0.041696  -0.017706
    17  C    0.191688   0.016935  -0.002442  -0.005178   0.003349  -0.000226
    18  N   -0.003162  -0.000177   0.000199   0.000017  -0.000010  -0.000001
    19  C    7.196745   0.340577   0.342545  -0.218963   0.080584  -0.049281
    20  O    0.340577   8.271703  -0.062842  -0.069712   0.000221   0.000369
    21  N    0.342545  -0.062842   7.727518   0.153020   0.117784   0.062074
    22  C   -0.218963  -0.069712   0.153020   5.303507  -0.015043  -0.008516
    23  C    0.080584   0.000221   0.117784  -0.015043  16.617022  -0.867954
    24  C   -0.049281   0.000369   0.062074  -0.008516  -0.867954   7.913089
    25  C    0.071994  -0.000713   0.111210  -0.025109 -10.210219  -0.029501
    26  H    0.000013   0.000000   0.000015  -0.000006  -0.033086   0.000505
    27  H    0.000005   0.000000   0.000014  -0.000001   0.032025   0.001537
    28  H   -0.000008  -0.000000  -0.000018   0.000005  -0.003477   0.000936
    29  H   -0.000006   0.000000  -0.000168  -0.000166  -0.022822   0.001295
    30  H    0.001341  -0.000007  -0.000304   0.000433  -0.006510   0.000074
    31  H   -0.002416  -0.000013  -0.007083  -0.000032  -0.027057  -0.002408
    32  H   -0.003910   0.000314   0.014991   0.004507  -0.000834   0.000176
    33  H    0.028247  -0.000689   0.018807  -0.000630   0.017554  -0.005072
    34  H    0.016848  -0.004735   0.044756   0.005581  -0.010025  -0.002510
    35  H    0.006660   0.000045  -0.000144  -0.000059  -0.002463   0.004306
    36  H    0.000769  -0.000000  -0.000056   0.000033  -0.000011  -0.000249
    37  H    0.000125   0.000001   0.000001   0.000000   0.000002  -0.000016
    38  H   -0.000340   0.000013  -0.000018  -0.000005  -0.000006  -0.000000
    39  H   -0.001296  -0.005235   0.000085   0.001238   0.000160   0.000022
    40  H    0.003767   0.002630   0.000916  -0.000095  -0.000010  -0.000064
    41  H    0.002384   0.001092  -0.062786   0.402525  -0.045713  -0.027643
    42  H    0.008633   0.001177  -0.054524   0.396582   0.020071   0.012743
    43  H   -0.018793   0.005775  -0.052226   0.425053   0.007499  -0.001553
    44  H    0.001809  -0.000004  -0.000043   0.000537  -0.274896   0.568467
    45  H   -0.002469   0.000159   0.015271   0.003310  -0.039134   0.430212
    46  H   -0.005649   0.000009  -0.005772  -0.000274  -0.067256   0.515559
    47  H   -0.000052   0.000000  -0.000313  -0.000221   0.037749  -0.019353
              25         26         27         28         29         30
     1  C    0.432656   0.513450   0.519921   0.495570  -0.001121   0.002036
     2  C   -1.723998  -0.166131  -0.145265  -0.166368   0.085400  -0.002769
     3  C   -8.457080  -0.058731   0.081480   0.004806   0.079899   0.147507
     4  C    6.482417   0.027773  -0.043603   0.006401   0.021121  -0.290353
     5  C    0.682835   0.000812   0.000221   0.000532  -0.006864   0.544156
     6  C   -1.624042  -0.014839  -0.016933  -0.014100   0.010293  -0.030272
     7  C   -1.583883   0.000241   0.000035  -0.000391   0.011087  -0.013124
     8  C   -0.737689   0.000002  -0.000008  -0.000197   0.001511  -0.000342
     9  C    0.379117   0.000034   0.000035   0.000012   0.000081   0.009526
    10  C   -0.502064  -0.000002   0.000003   0.000001  -0.000029  -0.000106
    11  C    0.362257   0.000002  -0.000003  -0.000000   0.000025  -0.000114
    12  C    0.124180   0.000000  -0.000000   0.000000   0.000002  -0.000013
    13  C    0.011814   0.000000  -0.000000   0.000000   0.000000   0.000000
    14  C   -0.014258  -0.000000   0.000000  -0.000000  -0.000000   0.000005
    15  C   -0.086904  -0.000000   0.000000  -0.000000  -0.000004   0.000138
    16  C    0.010733   0.000000   0.000000  -0.000000   0.000001  -0.000002
    17  C    0.000730   0.000000   0.000000  -0.000000   0.000000   0.000001
    18  N   -0.000001  -0.000000  -0.000000   0.000000  -0.000000  -0.000000
    19  C    0.071994   0.000013   0.000005  -0.000008  -0.000006   0.001341
    20  O   -0.000713   0.000000   0.000000  -0.000000   0.000000  -0.000007
    21  N    0.111210   0.000015   0.000014  -0.000018  -0.000168  -0.000304
    22  C   -0.025109  -0.000006  -0.000001   0.000005  -0.000166   0.000433
    23  C  -10.210219  -0.033086   0.032025  -0.003477  -0.022822  -0.006510
    24  C   -0.029501   0.000505   0.001537   0.000936   0.001295   0.000074
    25  C   22.736272   0.083115  -0.075654   0.023130   0.106987  -0.009332
    26  H    0.083115   0.542011  -0.025644  -0.028695   0.002237  -0.000001
    27  H   -0.075654  -0.025644   0.542546  -0.027966   0.000086   0.000000
    28  H    0.023130  -0.028695  -0.027966   0.539821   0.000360  -0.000000
    29  H    0.106987   0.002237   0.000086   0.000360   0.590461   0.003430
    30  H   -0.009332  -0.000001   0.000000  -0.000000   0.003430   0.552871
    31  H    0.012607   0.000000  -0.000000  -0.000000   0.000210  -0.026988
    32  H    0.017175  -0.000000  -0.000000   0.000000   0.000167  -0.027297
    33  H    0.026852   0.000000   0.000000   0.000000   0.000000   0.000003
    34  H   -0.001239  -0.000000   0.000000  -0.000000   0.000000  -0.000001
    35  H   -0.003933  -0.000000  -0.000000   0.000000  -0.000000  -0.000000
    36  H   -0.000079  -0.000000  -0.000000   0.000000   0.000000  -0.000000
    37  H    0.000000   0.000000   0.000000  -0.000000   0.000000  -0.000000
    38  H   -0.000000   0.000000   0.000000   0.000000   0.000000   0.000000
    39  H    0.000015  -0.000000  -0.000000  -0.000000  -0.000000   0.000000
    40  H   -0.000001  -0.000000  -0.000000   0.000000   0.000000  -0.000000
    41  H    0.028802  -0.000000  -0.000000   0.000000   0.000000  -0.000001
    42  H   -0.028771  -0.000000  -0.000000   0.000000  -0.000003   0.000010
    43  H    0.002172   0.000000   0.000000  -0.000000   0.000000   0.000000
    44  H    0.091799   0.000000  -0.000002   0.000000  -0.000000  -0.000000
    45  H   -0.010265  -0.000000  -0.000000   0.000000  -0.000000   0.000000
    46  H   -0.104379  -0.000000   0.000000  -0.000000  -0.000000   0.000000
    47  H    0.077442   0.000094   0.002830   0.000272  -0.000190  -0.000000
              31         32         33         34         35         36
     1  C   -0.002289  -0.001725   0.000495  -0.000021  -0.000008  -0.000000
     2  C   -0.017511  -0.013097   0.002076  -0.000277   0.000871   0.000001
     3  C   -0.169557  -0.035036   0.000558   0.000321  -0.000102   0.000002
     4  C   -0.059564  -0.034021   0.009933  -0.002459  -0.005441   0.000021
     5  C    0.510001   0.452100   0.004949   0.011317  -0.000569   0.000002
     6  C    0.039616  -0.032277   0.020067  -0.029945  -0.001453   0.000042
     7  C    0.087315   0.011913  -0.114032  -0.017877   0.015848   0.001861
     8  C    0.013157  -0.015303   0.215677   0.050485  -0.007669  -0.004336
     9  C   -0.023379  -0.022081   0.134541  -0.054972  -0.059833  -0.008349
    10  C   -0.003576  -0.000051  -0.213065   0.248318   0.036571   0.044497
    11  C    0.002664   0.001032   0.153716  -0.201111   0.273651  -0.033395
    12  C    0.000240   0.000111   0.037483  -0.001249  -0.009576   0.295658
    13  C    0.000003  -0.000005   0.003341  -0.001864   0.001822  -0.015066
    14  C   -0.000245  -0.000046  -0.005638   0.024169  -0.016238   0.018796
    15  C   -0.003131  -0.000968  -0.016150   0.045798   0.054656   0.005544
    16  C    0.000565  -0.000024   0.003936   0.087330   0.002147   0.003823
    17  C    0.000013  -0.000014   0.000186   0.038558   0.001382   0.000363
    18  N   -0.000000   0.000000  -0.000000   0.000048  -0.000004   0.000004
    19  C   -0.002416  -0.003910   0.028247   0.016848   0.006660   0.000769
    20  O   -0.000013   0.000314  -0.000689  -0.004735   0.000045  -0.000000
    21  N   -0.007083   0.014991   0.018807   0.044756  -0.000144  -0.000056
    22  C   -0.000032   0.004507  -0.000630   0.005581  -0.000059   0.000033
    23  C   -0.027057  -0.000834   0.017554  -0.010025  -0.002463  -0.000011
    24  C   -0.002408   0.000176  -0.005072  -0.002510   0.004306  -0.000249
    25  C    0.012607   0.017175   0.026852  -0.001239  -0.003933  -0.000079
    26  H    0.000000  -0.000000   0.000000  -0.000000  -0.000000  -0.000000
    27  H   -0.000000  -0.000000   0.000000   0.000000  -0.000000  -0.000000
    28  H   -0.000000   0.000000   0.000000  -0.000000   0.000000   0.000000
    29  H    0.000210   0.000167   0.000000   0.000000  -0.000000   0.000000
    30  H   -0.026988  -0.027297   0.000003  -0.000001  -0.000000  -0.000000
    31  H    0.539677  -0.029343  -0.000009   0.000046   0.000000  -0.000000
    32  H   -0.029343   0.554055  -0.000001   0.000019  -0.000000   0.000000
    33  H   -0.000009  -0.000001   0.538458  -0.001383  -0.000104   0.000000
    34  H    0.000046   0.000019  -0.001383   0.593862   0.000079   0.000002
    35  H    0.000000  -0.000000  -0.000104   0.000079   0.588284  -0.005486
    36  H   -0.000000   0.000000   0.000000   0.000002  -0.005486   0.573857
    37  H   -0.000000   0.000000   0.000000   0.000000  -0.000180  -0.004924
    38  H   -0.000000   0.000000   0.000000  -0.000008   0.000015  -0.000168
    39  H    0.000000  -0.000000  -0.000000  -0.002791  -0.000004   0.000000
    40  H    0.000000   0.000000  -0.000004   0.004435   0.000000  -0.000000
    41  H   -0.000001   0.000031  -0.000004   0.000004   0.000003  -0.000000
    42  H    0.000023   0.000829  -0.000001   0.000026  -0.000000  -0.000000
    43  H    0.000000  -0.000024   0.000003  -0.000012   0.000000  -0.000000
    44  H    0.000000   0.000000   0.000002   0.000000   0.000009  -0.000000
    45  H    0.000001  -0.000003   0.000003  -0.000001   0.000052  -0.000000
    46  H   -0.000002   0.000001  -0.000134  -0.000000   0.000515   0.000001
    47  H   -0.000000  -0.000000   0.000000  -0.000000   0.000000  -0.000000
              37         38         39         40         41         42
     1  C   -0.000000  -0.000000  -0.000000  -0.000000  -0.000836   0.000050
     2  C   -0.000000  -0.000000  -0.000000  -0.000001  -0.009189  -0.002363
     3  C    0.000000   0.000000  -0.000035  -0.000034  -0.025101   0.032395
     4  C    0.000002   0.000002  -0.000494  -0.000395   0.020562  -0.038637
     5  C    0.000000  -0.000000   0.000152   0.000140   0.015309  -0.032704
     6  C   -0.000011  -0.000002   0.001099  -0.001180  -0.010816   0.026818
     7  C    0.000145   0.000377   0.018964   0.000268   0.052312  -0.002864
     8  C    0.001080   0.001183   0.007628   0.015324   0.037923   0.001042
     9  C    0.004251   0.009947   0.176071   0.034450  -0.037651   0.013059
    10  C    0.017416   0.053687  -0.051144   0.006092   0.011079   0.000172
    11  C    0.001783  -0.013012   0.024399  -0.012788  -0.001484  -0.001230
    12  C   -0.004389   0.013660   0.006842   0.009731   0.000465  -0.000164
    13  C    0.247823   0.055141   0.000658  -0.001679  -0.000043   0.000001
    14  C    0.008649   0.291740  -0.075553  -0.065912   0.000299   0.000003
    15  C    0.039195  -0.042452  -0.151146  -0.033105   0.000420   0.000876
    16  C   -0.000875  -0.047602   0.503776   0.330662  -0.000257   0.000602
    17  C   -0.004347  -0.017652  -0.135874   0.012379  -0.000026   0.000075
    18  N    0.000131   0.001090   0.001138  -0.003279   0.000000  -0.000000
    19  C    0.000125  -0.000340  -0.001296   0.003767   0.002384   0.008633
    20  O    0.000001   0.000013  -0.005235   0.002630   0.001092   0.001177
    21  N    0.000001  -0.000018   0.000085   0.000916  -0.062786  -0.054524
    22  C    0.000000  -0.000005   0.001238  -0.000095   0.402525   0.396582
    23  C    0.000002  -0.000006   0.000160  -0.000010  -0.045713   0.020071
    24  C   -0.000016  -0.000000   0.000022  -0.000064  -0.027643   0.012743
    25  C    0.000000  -0.000000   0.000015  -0.000001   0.028802  -0.028771
    26  H    0.000000   0.000000  -0.000000  -0.000000  -0.000000  -0.000000
    27  H    0.000000   0.000000  -0.000000  -0.000000  -0.000000  -0.000000
    28  H   -0.000000   0.000000  -0.000000   0.000000   0.000000   0.000000
    29  H    0.000000   0.000000  -0.000000   0.000000   0.000000  -0.000003
    30  H   -0.000000   0.000000   0.000000  -0.000000  -0.000001   0.000010
    31  H   -0.000000  -0.000000   0.000000   0.000000  -0.000001   0.000023
    32  H    0.000000   0.000000  -0.000000   0.000000   0.000031   0.000829
    33  H    0.000000   0.000000  -0.000000  -0.000004  -0.000004  -0.000001
    34  H    0.000000  -0.000008  -0.002791   0.004435   0.000004   0.000026
    35  H   -0.000180   0.000015  -0.000004   0.000000   0.000003  -0.000000
    36  H   -0.004924  -0.000168   0.000000  -0.000000  -0.000000  -0.000000
    37  H    0.569119  -0.005217   0.000002   0.000002   0.000000  -0.000000
    38  H   -0.005217   0.552768   0.000192   0.000251  -0.000000   0.000000
    39  H    0.000002   0.000192   0.464523  -0.030597  -0.000000  -0.000000
    40  H    0.000002   0.000251  -0.030597   0.547258   0.000000   0.000000
    41  H    0.000000  -0.000000  -0.000000   0.000000   0.551700  -0.034385
    42  H   -0.000000   0.000000  -0.000000   0.000000  -0.034385   0.549101
    43  H    0.000000   0.000000  -0.000004   0.000000  -0.024500  -0.024554
    44  H   -0.000000   0.000000  -0.000000  -0.000000   0.000019  -0.000001
    45  H   -0.000000  -0.000000  -0.000000   0.000000   0.000557   0.000034
    46  H    0.000000   0.000000   0.000000   0.000000   0.000004  -0.000001
    47  H   -0.000000  -0.000000  -0.000000  -0.000000  -0.000003   0.000000
              43         44         45         46         47
     1  C    0.000009   0.000072  -0.000683  -0.002846   0.009092
     2  C   -0.000095   0.000569  -0.009456  -0.020734   0.080501
     3  C   -0.000101  -0.002339   0.007612   0.015258   0.081957
     4  C    0.005536  -0.012133  -0.003034  -0.017863  -0.019355
     5  C   -0.000132  -0.000204  -0.000146  -0.000561   0.000530
     6  C    0.002302  -0.028308  -0.015539   0.002752   0.020582
     7  C    0.017320  -0.002179  -0.003397   0.044602   0.014994
     8  C   -0.012512   0.005333  -0.020096   0.008157   0.001637
     9  C    0.001952   0.004896  -0.005139  -0.012290   0.000398
    10  C   -0.007821  -0.001723  -0.006113   0.021053   0.000108
    11  C    0.004328  -0.000225   0.003242  -0.010239  -0.000010
    12  C    0.000539   0.001665   0.000426  -0.014707  -0.000028
    13  C   -0.000027   0.000107  -0.000076  -0.001225  -0.000001
    14  C   -0.000482   0.000016  -0.000427   0.000440   0.000000
    15  C   -0.003359  -0.000111   0.000657   0.002005   0.000012
    16  C   -0.002062   0.000031  -0.000060  -0.000429   0.000000
    17  C   -0.000450   0.000001  -0.000026  -0.000016   0.000000
    18  N    0.000000  -0.000000  -0.000000   0.000000  -0.000000
    19  C   -0.018793   0.001809  -0.002469  -0.005649  -0.000052
    20  O    0.005775  -0.000004   0.000159   0.000009   0.000000
    21  N   -0.052226  -0.000043   0.015271  -0.005772  -0.000313
    22  C    0.425053   0.000537   0.003310  -0.000274  -0.000221
    23  C    0.007499  -0.274896  -0.039134  -0.067256   0.037749
    24  C   -0.001553   0.568467   0.430212   0.515559  -0.019353
    25  C    0.002172   0.091799  -0.010265  -0.104379   0.077442
    26  H    0.000000   0.000000  -0.000000  -0.000000   0.000094
    27  H    0.000000  -0.000002  -0.000000   0.000000   0.002830
    28  H   -0.000000   0.000000   0.000000  -0.000000   0.000272
    29  H    0.000000  -0.000000  -0.000000  -0.000000  -0.000190
    30  H    0.000000  -0.000000   0.000000   0.000000  -0.000000
    31  H    0.000000   0.000000   0.000001  -0.000002  -0.000000
    32  H   -0.000024   0.000000  -0.000003   0.000001  -0.000000
    33  H    0.000003   0.000002   0.000003  -0.000134   0.000000
    34  H   -0.000012   0.000000  -0.000001  -0.000000  -0.000000
    35  H    0.000000   0.000009   0.000052   0.000515   0.000000
    36  H   -0.000000  -0.000000  -0.000000   0.000001  -0.000000
    37  H    0.000000  -0.000000  -0.000000   0.000000  -0.000000
    38  H    0.000000   0.000000  -0.000000   0.000000  -0.000000
    39  H   -0.000004  -0.000000  -0.000000   0.000000  -0.000000
    40  H    0.000000  -0.000000   0.000000   0.000000  -0.000000
    41  H   -0.024500   0.000019   0.000557   0.000004  -0.000003
    42  H   -0.024554  -0.000001   0.000034  -0.000001   0.000000
    43  H    0.489469   0.000000  -0.000010   0.000000   0.000000
    44  H    0.000000   0.551763  -0.027016  -0.027764   0.003371
    45  H   -0.000010  -0.027016   0.552173  -0.029606   0.000153
    46  H    0.000000  -0.027764  -0.029606   0.546642   0.000240
    47  H    0.000000   0.003371   0.000153   0.000240   0.590956
 Mulliken charges:
               1
     1  C   -0.534197
     2  C    0.495830
     3  C   -0.346779
     4  C    0.215683
     5  C   -0.593397
     6  C    0.118363
     7  C   -0.293171
     8  C   -0.686282
     9  C    0.104038
    10  C    0.653098
    11  C   -0.247536
    12  C   -0.404571
    13  C   -0.362133
    14  C   -0.641293
    15  C    1.223465
    16  C   -0.135071
    17  C   -0.158535
    18  N   -0.512483
    19  C    0.230946
    20  O   -0.486431
    21  N    0.037066
    22  C   -0.191597
    23  C    0.369248
    24  C   -0.619865
    25  C   -0.647196
    26  H    0.156830
    27  H    0.154338
    28  H    0.169375
    29  H    0.116718
    30  H    0.146007
    31  H    0.168464
    32  H    0.158640
    33  H    0.140030
    34  H    0.160477
    35  H    0.126352
    36  H    0.126846
    37  H    0.130232
    38  H    0.146418
    39  H    0.247209
    40  H    0.180840
    41  H    0.154951
    42  H    0.155879
    43  H    0.186756
    44  H    0.146480
    45  H    0.158838
    46  H    0.164511
    47  H    0.116608
 Sum of Mulliken charges =  -0.00000
 Mulliken charges with hydrogens summed into heavy atoms:
               1
     1  C   -0.053653
     2  C    0.495830
     3  C   -0.230061
     4  C    0.215683
     5  C   -0.120285
     6  C    0.118363
     7  C   -0.293171
     8  C   -0.546253
     9  C    0.264515
    10  C    0.653098
    11  C   -0.121184
    12  C   -0.277726
    13  C   -0.231901
    14  C   -0.494876
    15  C    1.223465
    16  C    0.292978
    17  C   -0.158535
    18  N   -0.512483
    19  C    0.230946
    20  O   -0.486431
    21  N    0.037066
    22  C    0.305989
    23  C    0.369248
    24  C   -0.150036
    25  C   -0.530588
 Electronic spatial extent (au):  <R**2>=          10855.7307
 Charge=             -0.0000 electrons
 Dipole moment (field-independent basis, Debye):
    X=             -8.3760    Y=              2.1863    Z=             -1.2771  Tot=              8.7503
 Quadrupole moment (field-independent basis, Debye-Ang):
   XX=           -179.9031   YY=           -144.0084   ZZ=           -151.0132
   XY=             16.6918   XZ=             -3.7525   YZ=              5.2674
 Traceless Quadrupole moment (field-independent basis, Debye-Ang):
   XX=            -21.5949   YY=             14.2999   ZZ=              7.2950
   XY=             16.6918   XZ=             -3.7525   YZ=              5.2674
 Octapole moment (field-independent basis, Debye-Ang**2):
  XXX=           -435.1197  YYY=             18.5431  ZZZ=             10.1351  XYY=            -31.8897
  XXY=            119.7533  XXZ=              2.5093  XZZ=            -20.4546  YZZ=             -9.0565
  YYZ=              0.3738  XYZ=             -0.3268
 Hexadecapole moment (field-independent basis, Debye-Ang**3):
 XXXX=         -14326.5641 YYYY=          -2133.8864 ZZZZ=           -854.8514 XXXY=            855.5481
 XXXZ=            194.3901 YYYX=            121.0965 YYYZ=             12.8834 ZZZX=            -14.0721
 ZZZY=             -4.7480 XXYY=          -2487.0197 XXZZ=          -2264.0353 YYZZ=           -526.8416
 XXYZ=             39.7470 YYXZ=             -6.7827 ZZXY=             -8.7292
 N-N= 2.051947531180D+03 E-N=-6.504922268440D+03  KE= 1.026411140831D+03
 Unable to Open any file for archive entry.
 1\1\GINC-N1\SP\RB3LYP TD-FC\6-31+G(d,p)\C22H22N2O1\HPCMGAC13\25-Aug-20
 25\0\\# td=(50-50,nstates=3) b3lyp/6-31+g(d,p) geom=connectivity\\Titl
 e Card Required\\0,1\C,0,6.792121,-0.522996,-0.392163\C,0,5.298968,-0.
 311259,-0.297\C,0,4.703846,0.847252,-0.809619\C,0,3.320886,1.053051,-0
 .758735\C,0,2.726187,2.319725,-1.333916\C,0,2.504254,0.061163,-0.17205
 8\C,0,1.033005,0.266549,-0.102153\C,0,0.075251,-0.080495,-0.979043\C,0
 ,-1.266887,0.408216,-0.492593\C,0,-2.390574,-0.618158,-0.379861\C,0,-2
 .079381,-1.981753,-0.307868\C,0,-3.077157,-2.951658,-0.192776\C,0,-4.4
 13784,-2.560478,-0.152396\C,0,-4.739927,-1.204141,-0.222377\C,0,-3.746
 912,-0.22472,-0.331503\C,0,-4.107152,1.258816,-0.385406\C,0,-5.54214,1
 .545858,-0.345821\N,0,-6.676999,1.791345,-0.319644\C,0,-0.905476,1.067
 694,0.861732\O,0,-1.667867,1.607574,1.654296\N,0,0.459021,0.952167,1.0
 09336\C,0,1.175251,1.443404,2.17508\C,0,3.080819,-1.113514,0.3556\C,0,
 2.230126,-2.196756,0.981811\C,0,4.4697,-1.276229,0.283936\H,0,7.33677,
 0.421902,-0.300128\H,0,7.150642,-1.200056,0.388917\H,0,7.064813,-0.963
 822,-1.359338\H,0,5.331761,1.613073,-1.259746\H,0,3.511833,2.987283,-1
 .697209\H,0,2.053886,2.100299,-2.170484\H,0,2.13668,2.869502,-0.591363
 \H,0,0.243759,-0.59264,-1.916695\H,0,-1.601753,1.231168,-1.141429\H,0,
 -1.037459,-2.283784,-0.342667\H,0,-2.807463,-4.002226,-0.137056\H,0,-5
 .203575,-3.300749,-0.066492\H,0,-5.782334,-0.903095,-0.188198\H,0,-3.6
 27459,1.779403,0.452971\H,0,-3.715155,1.715667,-1.304481\H,0,1.662104,
 0.624362,2.713896\H,0,1.93677,2.175145,1.889005\H,0,0.44115,1.918908,2
 .827059\H,0,2.856653,-2.950138,1.466591\H,0,1.540606,-1.797428,1.73313
 4\H,0,1.616974,-2.705128,0.229147\H,0,4.913434,-2.180236,0.695108\\Ver
 sion=ES64L-G16RevC.02\State=1-A\HF=-1036.3891283\RMSD=1.351e-09\PG=C01
  [X(C22H22N2O1)]\\@
 The archive entry for this job was punched.


     SCHOPENHAUER'S LAW OF ENTROPY
 IF YOU PUT A SPOONFUL OF WINE IN A BARREL FULL
 OF SEWAGE, YOU GET SEWAGE.
 IF YOU PUT A SPOONFUL OF SEWAGE IN A BARREL FULL
 OF WINE, YOU GET SEWAGE.
 Job cpu time:       0 days  3 hours 11 minutes 13.2 seconds.
 Elapsed time:       0 days  0 hours 12 minutes 18.0 seconds.
 File lengths (MBytes):  RWF=   1748 Int=      0 D2E=      0 Chk=     87 Scr=      2
 Normal termination of Gaussian 16 at Mon Aug 25 15:01:49 2025.
