 Entering Gaussian System, Link 0=g16
 Input=M741E.gjf
 Output=M741E.log
 Initial command:
 /hpc/softwares/Gaussian/g16/l1.exe "/hpc/home/hpcmgac13/pbs.13423.admin1.x8z/Gau-375594.inp" -scrdir="/hpc/home/hpcmgac13/pbs.13423.admin1.x8z/"
 Default linda workers: n1
 Default is to use  16 SMP processors on each worker.
 Entering Link 1 = /hpc/softwares/Gaussian/g16/l1.exe PID=    375595.
  
 Copyright (c) 1988-2021, Gaussian, Inc.  All Rights Reserved.
  
 This is part of the Gaussian(R) 16 program.  It is based on
 the Gaussian(R) 09 system (copyright 2009, Gaussian, Inc.),
 the Gaussian(R) 03 system (copyright 2003, Gaussian, Inc.),
 the Gaussian(R) 98 system (copyright 1998, Gaussian, Inc.),
 the Gaussian(R) 94 system (copyright 1995, Gaussian, Inc.),
 the Gaussian 92(TM) system (copyright 1992, Gaussian, Inc.),
 the Gaussian 90(TM) system (copyright 1990, Gaussian, Inc.),
 the Gaussian 88(TM) system (copyright 1988, Gaussian, Inc.),
 the Gaussian 86(TM) system (copyright 1986, Carnegie Mellon
 University), and the Gaussian 82(TM) system (copyright 1983,
 Carnegie Mellon University). Gaussian is a federally registered
 trademark of Gaussian, Inc.
  
 This software contains proprietary and confidential information,
 including trade secrets, belonging to Gaussian, Inc.
  
 This software is provided under written license and may be
 used, copied, transmitted, or stored only in accord with that
 written license.
  
 The following legend is applicable only to US Government
 contracts under FAR:
  
                    RESTRICTED RIGHTS LEGEND
  
 Use, reproduction and disclosure by the US Government is
 subject to restrictions as set forth in subparagraphs (a)
 and (c) of the Commercial Computer Software - Restricted
 Rights clause in FAR 52.227-19.
  
 Gaussian, Inc.
 340 Quinnipiac St., Bldg. 40, Wallingford CT 06492
  
  
 ---------------------------------------------------------------
 Warning -- This program may not be used in any manner that
 competes with the business of Gaussian, Inc. or will provide
 assistance to any competitor of Gaussian, Inc.  The licensee
 of this program is prohibited from giving any competitor of
 Gaussian, Inc. access to this program.  By using this program,
 the user acknowledges that Gaussian, Inc. is engaged in the
 business of creating and licensing software in the field of
 computational chemistry and represents and warrants to the
 licensee that it is not a competitor of Gaussian, Inc. and that
 it will not use this program in any manner prohibited above.
 ---------------------------------------------------------------
  

 Cite this work as:
 Gaussian 16, Revision C.02,
 M. J. Frisch, G. W. Trucks, H. B. Schlegel, G. E. Scuseria, 
 M. A. Robb, J. R. Cheeseman, G. Scalmani, V. Barone, 
 G. A. Petersson, H. Nakatsuji, X. Li, M. Caricato, A. V. Marenich, 
 J. Bloino, B. G. Janesko, R. Gomperts, B. Mennucci, H. P. Hratchian, 
 J. V. Ortiz, A. F. Izmaylov, J. L. Sonnenberg, D. Williams-Young, 
 F. Ding, F. Lipparini, F. Egidi, J. Goings, B. Peng, A. Petrone, 
 T. Henderson, D. Ranasinghe, V. G. Zakrzewski, J. Gao, N. Rega, 
 G. Zheng, W. Liang, M. Hada, M. Ehara, K. Toyota, R. Fukuda, 
 J. Hasegawa, M. Ishida, T. Nakajima, Y. Honda, O. Kitao, H. Nakai, 
 T. Vreven, K. Throssell, J. A. Montgomery, Jr., J. E. Peralta, 
 F. Ogliaro, M. J. Bearpark, J. J. Heyd, E. N. Brothers, K. N. Kudin, 
 V. N. Staroverov, T. A. Keith, R. Kobayashi, J. Normand, 
 K. Raghavachari, A. P. Rendell, J. C. Burant, S. S. Iyengar, 
 J. Tomasi, M. Cossi, J. M. Millam, M. Klene, C. Adamo, R. Cammi, 
 J. W. Ochterski, R. L. Martin, K. Morokuma, O. Farkas, 
 J. B. Foresman, and D. J. Fox, Gaussian, Inc., Wallingford CT, 2019.
 
 ******************************************
 Gaussian 16:  ES64L-G16RevC.02  7-Dec-2021
                25-Aug-2025 
 ******************************************
 SetLPE:    new flags="-opt 'Tsnet.Node.lindarsharg: ssh'  -nodelist 'n1' -env GAUSS_MDEF=4294967296 -env GAUSS_EXEDIR="/hpc/softwares/Gaussian/g16/bsd:/hpc/softwares/Gaussian/g16""
 Will use up to    1 processors via Linda.
 ----------------------------------------------------------
 # td=(50-50,nstates=3) b3lyp/6-31+g(d,p) geom=connectivity
 ----------------------------------------------------------
 1/38=1,57=2,172=1/1;
 2/12=2,17=6,18=5,40=1/2;
 3/5=1,6=6,7=111,11=9,25=1,30=1,74=-5/1,2,3,8;
 4//1;
 5/5=2,38=5/2;
 8/6=1,10=2,108=3/1;
 9/41=3,42=1,48=2,70=2/14;
 6/7=2,8=2,9=2,10=2/1;
 99/5=1,9=1/99;
 -------------------
 Title Card Required
 -------------------
 Symbolic Z-matrix:
 Charge =  0 Multiplicity = 1
 C                    -4.76344  -0.94312   1.42472 
 C                    -4.20939  -0.39903   0.10617 
 C                    -4.23651  -1.48488  -0.97865 
 C                    -4.9712    0.86075  -0.3257 
 O                    -2.82723  -0.05599   0.44631 
 C                    -2.03452   0.49895  -0.52058 
 C                    -0.87201   1.05098  -0.2575 
 C                     0.30099   1.61067  -0.04184 
 C                     1.60409   0.91807  -0.01866 
 C                     2.77779   1.66621   0.1808 
 C                     4.02707   1.05353   0.20626 
 C                     4.12668  -0.33703   0.03195 
 C                     5.40881  -0.97814   0.05603 
 N                     6.44986  -1.49957   0.07476 
 C                     2.95751  -1.09804  -0.16534 
 C                     1.71724  -0.4751   -0.18796 
 H                    -4.70317  -0.18081   2.20676 
 H                    -5.81005  -1.23983   1.30465 
 H                    -4.18822  -1.81492   1.74987 
 H                    -3.85199  -1.1254   -1.9383 
 H                    -5.26577  -1.81869  -1.14549 
 H                    -3.6403   -2.34835  -0.66845 
 H                    -6.02813   0.62424  -0.48594 
 H                    -4.90279   1.63114   0.44823 
 H                    -4.57947   1.27606  -1.25963 
 H                    -2.38921   0.44492  -1.54856 
 H                     0.34348   2.68681   0.14093 
 H                     2.70773   2.74204   0.31596 
 H                     4.92546   1.64217   0.35977 
 H                     3.03453  -2.17242  -0.29631 
 H                     0.818    -1.065    -0.33557 
 
                          Input orientation:                          
 ---------------------------------------------------------------------
 Center     Atomic      Atomic             Coordinates (Angstroms)
 Number     Number       Type             X           Y           Z
 ---------------------------------------------------------------------
      1          6           0       -4.763440   -0.943120    1.424724
      2          6           0       -4.209394   -0.399033    0.106165
      3          6           0       -4.236507   -1.484875   -0.978650
      4          6           0       -4.971200    0.860747   -0.325698
      5          8           0       -2.827227   -0.055986    0.446309
      6          6           0       -2.034519    0.498954   -0.520580
      7          6           0       -0.872013    1.050981   -0.257498
      8          6           0        0.300987    1.610665   -0.041836
      9          6           0        1.604093    0.918065   -0.018661
     10          6           0        2.777792    1.666208    0.180799
     11          6           0        4.027067    1.053534    0.206262
     12          6           0        4.126680   -0.337031    0.031953
     13          6           0        5.408813   -0.978137    0.056032
     14          7           0        6.449862   -1.499573    0.074759
     15          6           0        2.957508   -1.098037   -0.165337
     16          6           0        1.717244   -0.475097   -0.187959
     17          1           0       -4.703170   -0.180810    2.206759
     18          1           0       -5.810047   -1.239825    1.304654
     19          1           0       -4.188217   -1.814921    1.749872
     20          1           0       -3.851989   -1.125402   -1.938302
     21          1           0       -5.265769   -1.818693   -1.145493
     22          1           0       -3.640296   -2.348348   -0.668446
     23          1           0       -6.028128    0.624243   -0.485938
     24          1           0       -4.902794    1.631144    0.448234
     25          1           0       -4.579469    1.276060   -1.259629
     26          1           0       -2.389206    0.444915   -1.548562
     27          1           0        0.343481    2.686805    0.140932
     28          1           0        2.707731    2.742036    0.315959
     29          1           0        4.925455    1.642168    0.359766
     30          1           0        3.034531   -2.172417   -0.296312
     31          1           0        0.818004   -1.064999   -0.335568
 ---------------------------------------------------------------------
                    Distance matrix (angstroms):
                    1          2          3          4          5
     1  C    0.000000
     2  C    1.530227   0.000000
     3  C    2.519397   1.535126   0.000000
     4  C    2.522118   1.534242   2.543239   0.000000
     5  O    2.343763   1.464160   2.461362   2.456220   0.000000
     6  C    3.648396   2.435009   2.999026   2.965294   1.367925
     7  C    4.685031   3.656898   4.274394   4.104165   2.354481
     8  C    5.858416   4.940074   5.572149   5.332814   3.577951
     9  C    6.789171   5.962127   6.388138   6.582707   4.560874
    10  C    8.076269   7.286395   7.776505   7.807188   5.869641
    11  C    9.096389   8.364165   8.725491   9.016039   6.947662
    12  C    9.018946   8.336635   8.501868   9.183355   6.971908
    13  C   10.263979   9.635755   9.713884  10.548549   8.296688
    14  N   11.307970  10.715965  10.738173  11.669282   9.396083
    15  C    7.884499   7.206026   7.250171   8.168657   5.909580
    16  C    6.694704   5.934419   6.090320   6.821930   4.607620
    17  H    1.093768   2.168855   3.473498   2.751367   2.575641
    18  H    1.094457   2.169193   2.783802   2.788210   3.321964
    19  H    1.093910   2.169553   2.748835   3.475666   2.577872
    20  H    3.489114   2.198908   1.094535   2.792474   2.807162
    21  H    2.761336   2.167489   1.094829   2.817487   3.404035
    22  H    2.759978   2.173413   1.094203   3.490999   2.675572
    23  H    2.776093   2.169210   2.810881   1.094855   3.402582
    24  H    2.756771   2.172426   3.491348   1.094149   2.674769
    25  H    3.487744   2.192780   2.796307   1.094607   2.784766
    26  H    4.050192   2.600664   2.731558   2.887041   2.102920
    27  H    6.395711   5.500207   6.295448   5.638977   4.203516
    28  H    8.404054   7.599799   8.231964   7.932021   6.203360
    29  H   10.084272   9.363561   9.772988   9.951093   7.936958
    30  H    8.079696   7.468690   7.335277   8.561114   6.276223
    31  H    5.853717   5.090518   5.112527   6.101105   3.862272
                    6          7          8          9         10
     6  C    0.000000
     7  C    1.313532   0.000000
     8  C    2.630529   1.317454   0.000000
     9  C    3.696901   2.491146   1.475912   0.000000
    10  C    5.001275   3.727155   2.487411   1.406084   0.000000
    11  C    6.130145   4.920982   3.775661   2.437159   1.391656
    12  C    6.242158   5.195892   4.293587   2.818026   2.419632
    13  C    7.610353   6.607904   5.727247   4.251712   3.732345
    14  N    8.736891   7.760514   6.891722   5.416196   4.849486
    15  C    5.253276   4.392266   3.795975   2.432676   2.791623
    16  C    3.890390   3.006327   2.525379   1.407965   2.417836
    17  H    3.875843   4.718860   5.771235   6.778022   7.967483
    18  H    4.539762   5.663240   6.876268   7.834355   9.135593
    19  H    3.891964   4.820803   5.924340   6.644379   7.943899
    20  H    2.819870   4.054874   5.322580   6.134298   7.499178
    21  H    4.025293   5.322467   6.630786   7.480281   8.865803
    22  H    3.272234   4.403147   5.621400   6.212511   7.617725
    23  H    3.995724   5.178785   6.420900   7.652155   8.892382
    24  H    3.232253   4.133019   5.226847   6.562473   7.685321
    25  H    2.761677   3.847097   5.041213   6.317009   7.507086
    26  H    1.088793   2.082315   3.296412   4.302430   5.583916
    27  H    3.298359   2.076558   1.092377   2.177855   2.639901
    28  H    5.312264   4.000386   2.683362   2.157975   1.086546
    29  H    7.107966   5.860132   4.641980   3.420377   2.155241
    30  H    5.734264   5.064868   4.674263   3.416771   3.876673
    31  H    3.258384   2.709174   2.740942   2.156597   3.401014
                   11         12         13         14         15
    11  C    0.000000
    12  C    1.404983   0.000000
    13  C    2.461601   1.433688   0.000000
    14  N    3.522156   2.598175   1.164487   0.000000
    15  C    2.431317   1.408906   2.464199   3.523551   0.000000
    16  C    2.797750   2.423387   3.733666   4.849355   1.388100
    17  H    9.041163   9.095078  10.368874  11.431303   8.071811
    18  H   10.160451  10.058496  11.291163  12.324183   8.891063
    19  H    8.837514   8.618174   9.781221  10.773772   7.432586
    20  H    8.451416   8.256064   9.474255  10.503359   7.036576
    21  H    9.820068   9.581221  10.774827  11.783330   8.312781
    22  H    8.433645   8.053687   9.180889  10.153032   6.734049
    23  H   10.088131  10.213343  11.561357  12.669854   9.154818
    24  H    8.951793   9.250860  10.643844  11.782346   8.343216
    25  H    8.733316   8.948032  10.323669  11.451239   7.977458
    26  H    6.679699   6.750277   8.087577   9.194853   5.734227
    27  H    4.029969   4.844384   6.252727   7.403920   4.609986
    28  H    2.145628   3.402165   4.604682   5.661534   3.878169
    29  H    1.084967   2.159336   2.681769   3.503653   3.414275
    30  H    3.412399   2.160831   2.680982   3.500700   1.085071
    31  H    3.883278   3.407689   4.608299   5.663484   2.146520
                   16         17         18         19         20
    16  C    0.000000
    17  H    6.858790   0.000000
    18  H    7.711862   1.777775   0.000000
    19  H    6.358049   1.773201   1.777438   0.000000
    20  H    5.873921   4.335700   3.789967   3.767109   0.000000
    21  H    7.175276   3.773165   2.575761   3.089380   1.762944
    22  H    5.695891   3.754294   3.135246   2.536341   1.775653
    23  H    7.828673   3.107127   2.593941   3.785979   3.147412
    24  H    6.976095   2.532871   3.130340   3.752365   3.794508
    25  H    6.622962   3.762129   3.797308   4.331782   2.599393
    26  H    4.422736   4.455154   4.762493   4.384400   2.181176
    27  H    3.463094   6.161132   7.391791   6.587147   6.038055
    28  H    3.403666   8.187772   9.454379   8.389044   7.941580
    29  H    3.882709   9.972214  11.155703   9.845957   9.485994
    30  H    2.151251   8.372806   9.036558   7.515501   7.156572
    31  H    1.085544   6.142359   6.830223   5.474823   4.937736
                   21         22         23         24         25
    21  H    0.000000
    22  H    1.774900   0.000000
    23  H    2.642752   3.817244   0.000000
    24  H    3.817472   4.321716   1.775642   0.000000
    25  H    3.171992   3.790498   1.766940   1.774097   0.000000
    26  H    3.682526   3.184674   3.795139   3.422347   2.360410
    27  H    7.308768   6.471347   6.726405   5.360248   5.309163
    28  H    9.301225   8.196250   9.024595   7.692312   7.598345
    29  H   10.867585   9.505447  11.033239   9.828653   9.648837
    30  H    8.351120   6.687507   9.486256   8.833038   8.413856
    31  H    6.183553   4.651261   7.053061   6.372681   5.955431
                   26         27         28         29         30
    26  H    0.000000
    27  H    3.917657   0.000000
    28  H    5.893384   2.371363   0.000000
    29  H    7.653718   4.704640   2.475869   0.000000
    30  H    6.151055   5.571801   4.963217   4.307794   0.000000
    31  H    3.746651   3.811595   4.299892   4.968239   2.478085
                   31
    31  H    0.000000
 Stoichiometry    C14H15NO
 Framework group  C1[X(C14H15NO)]
 Deg. of freedom    87
 Full point group                 C1      NOp   1
 Largest Abelian subgroup         C1      NOp   1
 Largest concise Abelian subgroup C1      NOp   1
                         Standard orientation:                         
 ---------------------------------------------------------------------
 Center     Atomic      Atomic             Coordinates (Angstroms)
 Number     Number       Type             X           Y           Z
 ---------------------------------------------------------------------
      1          6           0       -4.763440   -0.943120    1.424724
      2          6           0       -4.209394   -0.399033    0.106165
      3          6           0       -4.236507   -1.484875   -0.978650
      4          6           0       -4.971200    0.860747   -0.325698
      5          8           0       -2.827227   -0.055986    0.446309
      6          6           0       -2.034519    0.498954   -0.520580
      7          6           0       -0.872013    1.050981   -0.257498
      8          6           0        0.300987    1.610665   -0.041836
      9          6           0        1.604093    0.918065   -0.018661
     10          6           0        2.777792    1.666208    0.180799
     11          6           0        4.027067    1.053534    0.206262
     12          6           0        4.126680   -0.337031    0.031953
     13          6           0        5.408813   -0.978137    0.056032
     14          7           0        6.449862   -1.499573    0.074759
     15          6           0        2.957508   -1.098037   -0.165337
     16          6           0        1.717244   -0.475097   -0.187959
     17          1           0       -4.703170   -0.180810    2.206759
     18          1           0       -5.810047   -1.239825    1.304654
     19          1           0       -4.188217   -1.814921    1.749872
     20          1           0       -3.851989   -1.125402   -1.938302
     21          1           0       -5.265769   -1.818693   -1.145493
     22          1           0       -3.640296   -2.348348   -0.668446
     23          1           0       -6.028128    0.624243   -0.485938
     24          1           0       -4.902794    1.631144    0.448234
     25          1           0       -4.579469    1.276060   -1.259629
     26          1           0       -2.389206    0.444915   -1.548562
     27          1           0        0.343481    2.686805    0.140932
     28          1           0        2.707731    2.742036    0.315959
     29          1           0        4.925455    1.642168    0.359766
     30          1           0        3.034531   -2.172417   -0.296312
     31          1           0        0.818004   -1.064999   -0.335568
 ---------------------------------------------------------------------
 Rotational constants (GHZ):           1.5634354           0.1628994           0.1534831
 Standard basis: 6-31+G(d,p) (6D, 7F)
 There are   379 symmetry adapted cartesian basis functions of A   symmetry.
 There are   379 symmetry adapted basis functions of A   symmetry.
   379 basis functions,   617 primitive gaussians,   379 cartesian basis functions
    57 alpha electrons       57 beta electrons
       nuclear repulsion energy       934.1937991021 Hartrees.
 NAtoms=   31 NActive=   31 NUniq=   31 SFac= 1.00D+00 NAtFMM=   60 NAOKFM=F Big=F
 Integral buffers will be    131072 words long.
 Regular integral format.
 Two-electron integral symmetry is turned on.
 One-electron integrals computed using PRISM.
 NBasis=   379 RedAO= T EigKep=  1.09D-06  NBF=   379
 NBsUse=   377 1.00D-06 EigRej=  6.78D-07 NBFU=   377
 ExpMin= 4.38D-02 ExpMax= 5.48D+03 ExpMxC= 8.25D+02 IAcc=3 IRadAn=         5 AccDes= 0.00D+00
 Harris functional with IExCor=  402 and IRadAn=       5 diagonalized for initial guess.
 HarFok:  IExCor=  402 AccDes= 0.00D+00 IRadAn=         5 IDoV= 1 UseB2=F ITyADJ=14
 ICtDFT=  3500011 ScaDFX=  1.000000  1.000000  1.000000  1.000000
 FoFCou: FMM=F IPFlag=           0 FMFlag=      100000 FMFlg1=           0
         NFxFlg=           0 DoJE=T BraDBF=F KetDBF=T FulRan=T
         wScrn=  0.000000 ICntrl=       500 IOpCl=  0 I1Cent=   200000004 NGrid=           0
         NMat0=    1 NMatS0=      1 NMatT0=    0 NMatD0=    1 NMtDS0=    0 NMtDT0=    0
 Petite list used in FoFCou.
 Requested convergence on RMS density matrix=1.00D-08 within 128 cycles.
 Requested convergence on MAX density matrix=1.00D-06.
 Requested convergence on             energy=1.00D-06.
 No special actions if energy rises.
 SCF Done:  E(RB3LYP) =  -672.474464505     A.U. after   16 cycles
            NFock= 16  Conv=0.64D-08     -V/T= 2.0098
 DoSCS=F DFT=T ScalE2(SS,OS)=  1.000000  1.000000
 ExpMin= 4.38D-02 ExpMax= 5.48D+03 ExpMxC= 8.25D+02 IAcc=3 IRadAn=         5 AccDes= 0.00D+00
 HarFok:  IExCor=  205 AccDes= 0.00D+00 IRadAn=         5 IDoV=-2 UseB2=F ITyADJ=14
 ICtDFT= 12500011 ScaDFX=  1.000000  1.000000  1.000000  1.000000
 Range of M.O.s used for correlation:    17   377
 NBasis=   379 NAE=    57 NBE=    57 NFC=    16 NFV=     0
 NROrb=    361 NOA=    41 NOB=    41 NVA=   320 NVB=   320

 **** Warning!!: The largest alpha MO coefficient is  0.19280749D+03

 Orbital symmetries:
       Occupied  (A) (A) (A) (A) (A) (A) (A) (A) (A) (A) (A) (A)
                 (A) (A) (A) (A) (A) (A) (A) (A) (A) (A) (A) (A)
                 (A) (A) (A) (A) (A) (A) (A) (A) (A) (A) (A) (A)
                 (A) (A) (A) (A) (A) (A) (A) (A) (A) (A) (A) (A)
                 (A) (A) (A) (A) (A) (A) (A) (A) (A)
       Virtual   (A) (A) (A) (A) (A) (A) (A) (A) (A) (A) (A) (A)
                 (A) (A) (A) (A) (A) (A) (A) (A) (A) (A) (A) (A)
                 (A) (A) (A) (A) (A) (A) (A) (A) (A) (A) (A) (A)
                 (A) (A) (A) (A) (A) (A) (A) (A) (A) (A) (A) (A)
                 (A) (A) (A) (A) (A) (A) (A) (A) (A) (A) (A) (A)
                 (A) (A) (A) (A) (A) (A) (A) (A) (A) (A) (A) (A)
                 (A) (A) (A) (A) (A) (A) (A) (A) (A) (A) (A) (A)
                 (A) (A) (A) (A) (A) (A) (A) (A) (A) (A) (A) (A)
                 (A) (A) (A) (A) (A) (A) (A) (A) (A) (A) (A) (A)
                 (A) (A) (A) (A) (A) (A) (A) (A) (A) (A) (A) (A)
                 (A) (A) (A) (A) (A) (A) (A) (A) (A) (A) (A) (A)
                 (A) (A) (A) (A) (A) (A) (A) (A) (A) (A) (A) (A)
                 (A) (A) (A) (A) (A) (A) (A) (A) (A) (A) (A) (A)
                 (A) (A) (A) (A) (A) (A) (A) (A) (A) (A) (A) (A)
                 (A) (A) (A) (A) (A) (A) (A) (A) (A) (A) (A) (A)
                 (A) (A) (A) (A) (A) (A) (A) (A) (A) (A) (A) (A)
                 (A) (A) (A) (A) (A) (A) (A) (A) (A) (A) (A) (A)
                 (A) (A) (A) (A) (A) (A) (A) (A) (A) (A) (A) (A)
                 (A) (A) (A) (A) (A) (A) (A) (A) (A) (A) (A) (A)
                 (A) (A) (A) (A) (A) (A) (A) (A) (A) (A) (A) (A)
                 (A) (A) (A) (A) (A) (A) (A) (A) (A) (A) (A) (A)
                 (A) (A) (A) (A) (A) (A) (A) (A) (A) (A) (A) (A)
                 (A) (A) (A) (A) (A) (A) (A) (A) (A) (A) (A) (A)
                 (A) (A) (A) (A) (A) (A) (A) (A) (A) (A) (A) (A)
                 (A) (A) (A) (A) (A) (A) (A) (A) (A) (A) (A) (A)
                 (A) (A) (A) (A) (A) (A) (A) (A) (A) (A) (A) (A)
                 (A) (A) (A) (A) (A) (A) (A) (A)
    24 initial guesses have been made.
 Convergence on wavefunction:    0.001000000000000
 Iteration     1 Dimension    24 NMult     0 NNew     24
 CISAX will form    24 AO SS matrices at one time.
 New state      1 was old state      4
 New state      3 was old state      1
 New state      4 was old state      8
 New state      5 was old state     10
 New state      6 was old state      9
 New state      7 was old state      6
 New state      8 was old state      5
 New state      9 was old state     18
 New state     10 was old state     14
 New state     11 was old state      3
 Vector   5 SDiff=8.04D-01 TDiff=9.23D+00 assumed to be singlet.
 Vector  11 SDiff=4.95D+00 TDiff=3.79D+00 assumed to be triplet.
 Iteration     2 Dimension    36 NMult    24 NNew     12
 New state      5 was old state     11
 Iteration     3 Dimension    48 NMult    36 NNew     12
 Iteration     4 Dimension    60 NMult    48 NNew     12
 Iteration     5 Dimension    70 NMult    60 NNew     10
 Iteration     6 Dimension    80 NMult    70 NNew     10
 Iteration     7 Dimension    82 NMult    80 NNew      2
 Iteration     8 Dimension    84 NMult    82 NNew      2
 Iteration     9 Dimension    86 NMult    84 NNew      2
 Iteration    10 Dimension    88 NMult    86 NNew      2
 ***********************************************************************
 Excited states from <AA,BB:AA,BB> singles matrix:
 ***********************************************************************
 
 Ground to excited state transition densities written to RWF  633
 Ground to excited state transition electric dipole moments (Au):
       state          X           Y           Z        Dip. S.      Osc.
         1         0.0000     -0.0000     -0.0000      0.0000      0.0000
         2         0.0000     -0.0000     -0.0000      0.0000      0.0000
         3         0.0727     -0.0101     -0.0078      0.0055      0.0005
         4        -0.0000     -0.0000     -0.0000      0.0000      0.0000
         5         2.6797     -0.5263      0.1097      7.4698      0.8113
         6        -0.2834      0.2158      0.0087      0.1270      0.0145
 Ground to excited state transition velocity dipole moments (Au):
       state          X           Y           Z        Dip. S.      Osc.
         1        -0.0000      0.0000     -0.0000      0.0000      0.0000
         2        -0.0000      0.0000     -0.0000      0.0000      0.0000
         3        -0.0062     -0.0024     -0.0014      0.0000      0.0002
         4        -0.0000     -0.0000     -0.0000      0.0000      0.0000
         5        -0.4267      0.0844     -0.0164      0.1894      0.7752
         6         0.0452     -0.0347     -0.0018      0.0032      0.0127
 Ground to excited state transition magnetic dipole moments (Au):
       state          X           Y           Z
         1        -0.0000      0.0000      0.0000
         2         0.0000      0.0000     -0.0000
         3         0.4497      0.1455      0.1764
         4        -0.0000      0.0000     -0.0000
         5        -0.1206      0.0706      1.7127
         6         0.0010     -0.0097     -0.1365
 Ground to excited state transition velocity quadrupole moments (Au):
       state          XX          YY          ZZ          XY          XZ          YZ
         1         0.0000      0.0000     -0.0000     -0.0000     -0.0000     -0.0000
         2        -0.0000      0.0000      0.0000     -0.0000     -0.0000      0.0000
         3        -0.0179     -0.0187      0.0065      0.0281     -0.0211      0.0311
         4         0.0000     -0.0000      0.0000     -0.0000     -0.0000      0.0000
         5        -2.0166     -0.0786      0.0931      0.6672      0.0252     -0.0324
         6         0.1301      0.0101     -0.0039     -0.2485     -0.0307      0.0005
 <0|del|b> * <b|rxdel|0> + <0|del|b> * <b|delr+rdel|0>
 Rotatory Strengths (R) in cgs (10**-40 erg-esu-cm/Gauss)
       state          XX          YY          ZZ    R(velocity)    E-M Angle
         1         0.0000     -0.0000      0.0000      0.0000       90.00
         2         0.0000     -0.0000      0.0000      0.0000       90.00
         3        -1.8428     -8.8262     -8.0101     -6.2264      170.60
         4        -0.0000      0.0000     -0.0000     -0.0000       90.00
         5       -76.4979    104.4775     99.2060     42.3952       87.75
         6        -0.0924     -0.2763      2.9456      0.8590       85.42
 1/2[<0|r|b>*<b|rxdel|0> + (<0|rxdel|b>*<b|r|0>)*]
 Rotatory Strengths (R) in cgs (10**-40 erg-esu-cm/Gauss)
       state          XX          YY          ZZ     R(length)
         1         0.0000      0.0000      0.0000      0.0000
         2        -0.0000      0.0000     -0.0000     -0.0000
         3       -23.1275      1.0414      0.9741     -7.0373
         4        -0.0000      0.0000     -0.0000      0.0000
         5       228.5673     26.2820   -132.8732     40.6587
         6         0.1959      1.4836      0.8374      0.8390
  1/2[<0|del|b>*<b|r|0> + (<0|r|b>*<b|del|0>)*] (Au)
       state          X           Y           Z        Dip. S.   Osc.(frdel)
         1        -0.0000     -0.0000      0.0000      0.0000      0.0000
         2        -0.0000     -0.0000      0.0000      0.0000      0.0000
         3        -0.0005      0.0000      0.0000      0.0004      0.0003
         4         0.0000      0.0000      0.0000     -0.0000     -0.0000
         5        -1.1433     -0.0444     -0.0018      1.1896      0.7930
         6        -0.0128     -0.0075     -0.0000      0.0203      0.0135

 Excitation energies and oscillator strengths:
 
 Excited State   1:      Triplet-A      2.6981 eV  459.52 nm  f=0.0000  <S**2>=2.000
      55 -> 59        -0.14373
      56 -> 58         0.67348
 This state for optimization and/or second-order correction.
 Total Energy, E(TD-HF/TD-DFT) =  -672.375310093    
 Copying the excited state density for this state as the 1-particle RhoCI density.
 
 Excited State   2:      Triplet-A      3.2340 eV  383.38 nm  f=0.0000  <S**2>=2.000
      57 -> 58         0.67661
      57 -> 62         0.13970
 
 Excited State   3:      Singlet-A      3.4941 eV  354.83 nm  f=0.0005  <S**2>=0.000
      57 -> 58         0.69239
 
 Excited State   4:      Triplet-A      3.9421 eV  314.51 nm  f=0.0000  <S**2>=2.000
      54 -> 58        -0.25465
      55 -> 59        -0.18158
      56 -> 60         0.11336
      56 -> 62        -0.16267
      57 -> 60        -0.10734
      57 -> 61         0.38826
      57 -> 62         0.14779
      57 -> 63         0.17778
      57 -> 65        -0.27729
      57 -> 67        -0.13865
 
 Excited State   5:      Singlet-A      4.4331 eV  279.68 nm  f=0.8113  <S**2>=0.000
      56 -> 58         0.68979
 
 Excited State   6:      Singlet-A      4.6484 eV  266.72 nm  f=0.0145  <S**2>=0.000
      55 -> 58         0.51902
      56 -> 59         0.46466
 SavETr:  write IOETrn=   770 NScale= 10 NData=  16 NLR=1 NState=    6 LETran=     118.

 **********************************************************************

            Population analysis using the SCF Density.

 **********************************************************************

 Orbital symmetries:
       Occupied  (A) (A) (A) (A) (A) (A) (A) (A) (A) (A) (A) (A)
                 (A) (A) (A) (A) (A) (A) (A) (A) (A) (A) (A) (A)
                 (A) (A) (A) (A) (A) (A) (A) (A) (A) (A) (A) (A)
                 (A) (A) (A) (A) (A) (A) (A) (A) (A) (A) (A) (A)
                 (A) (A) (A) (A) (A) (A) (A) (A) (A)
       Virtual   (A) (A) (A) (A) (A) (A) (A) (A) (A) (A) (A) (A)
                 (A) (A) (A) (A) (A) (A) (A) (A) (A) (A) (A) (A)
                 (A) (A) (A) (A) (A) (A) (A) (A) (A) (A) (A) (A)
                 (A) (A) (A) (A) (A) (A) (A) (A) (A) (A) (A) (A)
                 (A) (A) (A) (A) (A) (A) (A) (A) (A) (A) (A) (A)
                 (A) (A) (A) (A) (A) (A) (A) (A) (A) (A) (A) (A)
                 (A) (A) (A) (A) (A) (A) (A) (A) (A) (A) (A) (A)
                 (A) (A) (A) (A) (A) (A) (A) (A) (A) (A) (A) (A)
                 (A) (A) (A) (A) (A) (A) (A) (A) (A) (A) (A) (A)
                 (A) (A) (A) (A) (A) (A) (A) (A) (A) (A) (A) (A)
                 (A) (A) (A) (A) (A) (A) (A) (A) (A) (A) (A) (A)
                 (A) (A) (A) (A) (A) (A) (A) (A) (A) (A) (A) (A)
                 (A) (A) (A) (A) (A) (A) (A) (A) (A) (A) (A) (A)
                 (A) (A) (A) (A) (A) (A) (A) (A) (A) (A) (A) (A)
                 (A) (A) (A) (A) (A) (A) (A) (A) (A) (A) (A) (A)
                 (A) (A) (A) (A) (A) (A) (A) (A) (A) (A) (A) (A)
                 (A) (A) (A) (A) (A) (A) (A) (A) (A) (A) (A) (A)
                 (A) (A) (A) (A) (A) (A) (A) (A) (A) (A) (A) (A)
                 (A) (A) (A) (A) (A) (A) (A) (A) (A) (A) (A) (A)
                 (A) (A) (A) (A) (A) (A) (A) (A) (A) (A) (A) (A)
                 (A) (A) (A) (A) (A) (A) (A) (A) (A) (A) (A) (A)
                 (A) (A) (A) (A) (A) (A) (A) (A) (A) (A) (A) (A)
                 (A) (A) (A) (A) (A) (A) (A) (A) (A) (A) (A) (A)
                 (A) (A) (A) (A) (A) (A) (A) (A) (A) (A) (A) (A)
                 (A) (A) (A) (A) (A) (A) (A) (A) (A) (A) (A) (A)
                 (A) (A) (A) (A) (A) (A) (A) (A) (A) (A) (A) (A)
                 (A) (A) (A) (A) (A) (A) (A) (A)
 The electronic state is 1-A.
 Alpha  occ. eigenvalues --  -19.18817 -14.34371 -10.27164 -10.26521 -10.24548
 Alpha  occ. eigenvalues --  -10.23563 -10.23107 -10.22528 -10.22454 -10.22441
 Alpha  occ. eigenvalues --  -10.21801 -10.21538 -10.20836 -10.19768 -10.19619
 Alpha  occ. eigenvalues --  -10.19112  -1.06766  -0.91354  -0.88634  -0.83339
 Alpha  occ. eigenvalues --   -0.81730  -0.77623  -0.77128  -0.72099  -0.71272
 Alpha  occ. eigenvalues --   -0.70484  -0.64745  -0.63685  -0.59153  -0.56866
 Alpha  occ. eigenvalues --   -0.55044  -0.51501  -0.50913  -0.50089  -0.47358
 Alpha  occ. eigenvalues --   -0.46403  -0.45413  -0.44862  -0.44272  -0.42974
 Alpha  occ. eigenvalues --   -0.42218  -0.41195  -0.40253  -0.39882  -0.38642
 Alpha  occ. eigenvalues --   -0.38140  -0.37458  -0.37195  -0.36455  -0.36404
 Alpha  occ. eigenvalues --   -0.34513  -0.33585  -0.33221  -0.30996  -0.28101
 Alpha  occ. eigenvalues --   -0.24600  -0.23895
 Alpha virt. eigenvalues --   -0.07582  -0.03512  -0.01182  -0.00417   0.00424
 Alpha virt. eigenvalues --    0.00674   0.01287   0.01910   0.02265   0.02294
 Alpha virt. eigenvalues --    0.02448   0.03430   0.03998   0.04142   0.04528
 Alpha virt. eigenvalues --    0.05204   0.05304   0.05753   0.06009   0.06596
 Alpha virt. eigenvalues --    0.06664   0.06850   0.08339   0.08675   0.08917
 Alpha virt. eigenvalues --    0.09145   0.09332   0.09842   0.10321   0.10716
 Alpha virt. eigenvalues --    0.11297   0.11972   0.12119   0.12445   0.12803
 Alpha virt. eigenvalues --    0.14056   0.14231   0.14550   0.14759   0.14903
 Alpha virt. eigenvalues --    0.15119   0.16013   0.16734   0.17211   0.17677
 Alpha virt. eigenvalues --    0.18044   0.18573   0.18911   0.19012   0.19359
 Alpha virt. eigenvalues --    0.19725   0.20291   0.20686   0.21013   0.21408
 Alpha virt. eigenvalues --    0.21688   0.21832   0.22581   0.22834   0.23884
 Alpha virt. eigenvalues --    0.24386   0.24982   0.25237   0.25377   0.25878
 Alpha virt. eigenvalues --    0.26059   0.26209   0.26669   0.27316   0.27507
 Alpha virt. eigenvalues --    0.28027   0.28341   0.28714   0.29369   0.30052
 Alpha virt. eigenvalues --    0.30311   0.30591   0.30738   0.31498   0.31876
 Alpha virt. eigenvalues --    0.32256   0.32603   0.32938   0.33748   0.34538
 Alpha virt. eigenvalues --    0.35454   0.35740   0.37132   0.38447   0.39531
 Alpha virt. eigenvalues --    0.40717   0.41269   0.43397   0.43711   0.46840
 Alpha virt. eigenvalues --    0.48698   0.53768   0.56367   0.58495   0.60468
 Alpha virt. eigenvalues --    0.63303   0.64230   0.65401   0.65939   0.66731
 Alpha virt. eigenvalues --    0.67196   0.68478   0.69057   0.69546   0.70089
 Alpha virt. eigenvalues --    0.71023   0.71222   0.72301   0.72758   0.73693
 Alpha virt. eigenvalues --    0.74271   0.75610   0.76712   0.76869   0.77419
 Alpha virt. eigenvalues --    0.77598   0.78576   0.79221   0.79593   0.81389
 Alpha virt. eigenvalues --    0.82361   0.83110   0.83751   0.86631   0.88430
 Alpha virt. eigenvalues --    0.88538   0.89113   0.91201   0.91724   0.92227
 Alpha virt. eigenvalues --    0.92753   0.93846   0.94983   0.95309   0.97206
 Alpha virt. eigenvalues --    0.97517   0.98915   0.99910   1.00306   1.01349
 Alpha virt. eigenvalues --    1.01519   1.02578   1.02825   1.04942   1.08120
 Alpha virt. eigenvalues --    1.08492   1.08691   1.09775   1.11565   1.12696
 Alpha virt. eigenvalues --    1.14434   1.14760   1.15930   1.16437   1.17127
 Alpha virt. eigenvalues --    1.18501   1.19187   1.20416   1.22176   1.23987
 Alpha virt. eigenvalues --    1.25584   1.28210   1.29740   1.31029   1.32396
 Alpha virt. eigenvalues --    1.34204   1.36984   1.37198   1.37960   1.38075
 Alpha virt. eigenvalues --    1.38699   1.39106   1.39918   1.43856   1.45008
 Alpha virt. eigenvalues --    1.46047   1.47736   1.48584   1.52833   1.54217
 Alpha virt. eigenvalues --    1.55687   1.56086   1.58399   1.61873   1.64970
 Alpha virt. eigenvalues --    1.66416   1.67735   1.69611   1.73565   1.75412
 Alpha virt. eigenvalues --    1.77768   1.79498   1.82496   1.82963   1.85207
 Alpha virt. eigenvalues --    1.85935   1.86590   1.87202   1.87738   1.89029
 Alpha virt. eigenvalues --    1.89387   1.90433   1.92201   1.93476   1.93770
 Alpha virt. eigenvalues --    1.94472   1.96716   1.97149   2.00360   2.01519
 Alpha virt. eigenvalues --    2.01574   2.02541   2.02772   2.03050   2.04863
 Alpha virt. eigenvalues --    2.06267   2.06908   2.09067   2.09390   2.10113
 Alpha virt. eigenvalues --    2.10350   2.11165   2.12884   2.14296   2.15734
 Alpha virt. eigenvalues --    2.16506   2.17623   2.18474   2.20863   2.23473
 Alpha virt. eigenvalues --    2.25583   2.27878   2.29726   2.31390   2.32935
 Alpha virt. eigenvalues --    2.35092   2.36301   2.38271   2.38562   2.39692
 Alpha virt. eigenvalues --    2.42157   2.43680   2.44263   2.47781   2.47943
 Alpha virt. eigenvalues --    2.51600   2.52520   2.53126   2.54827   2.56673
 Alpha virt. eigenvalues --    2.57648   2.58466   2.59561   2.62243   2.63110
 Alpha virt. eigenvalues --    2.65044   2.67982   2.68923   2.71055   2.71704
 Alpha virt. eigenvalues --    2.72667   2.73358   2.77550   2.78521   2.80231
 Alpha virt. eigenvalues --    2.82126   2.83125   2.83536   2.85239   2.87030
 Alpha virt. eigenvalues --    2.88878   2.93472   2.94737   2.94890   3.00484
 Alpha virt. eigenvalues --    3.03495   3.05118   3.07006   3.08583   3.10048
 Alpha virt. eigenvalues --    3.18467   3.25641   3.26536   3.27033   3.27215
 Alpha virt. eigenvalues --    3.27631   3.29804   3.33002   3.39639   3.42285
 Alpha virt. eigenvalues --    3.44148   3.44358   3.45380   3.50629   3.50978
 Alpha virt. eigenvalues --    3.51791   3.52802   3.53502   3.82607   4.23595
 Alpha virt. eigenvalues --    4.26060   4.28010   4.31532   4.36874   4.38983
 Alpha virt. eigenvalues --    4.41282   4.48586   4.49362   4.52290   4.54341
 Alpha virt. eigenvalues --    4.60335   4.62936   4.73018   4.80150   4.92972
          Condensed to atoms (all electrons):
               1          2          3          4          5          6
     1  C    5.720428  -0.249098  -0.118539  -0.092247  -0.101058  -0.067448
     2  C   -0.249098   7.145702  -0.259790  -0.150914   0.155283   0.261124
     3  C   -0.118539  -0.259790   5.567996   0.017519  -0.045208  -0.145370
     4  C   -0.092247  -0.150914   0.017519   5.420717  -0.054502  -0.052778
     5  O   -0.101058   0.155283  -0.045208  -0.054502   8.278488   0.108725
     6  C   -0.067448   0.261124  -0.145370  -0.052778   0.108725   6.051188
     7  C    0.025159   0.010488   0.003110  -0.040186  -0.091022   1.096428
     8  C   -0.050157  -0.141577   0.078997   0.051403   0.063703  -0.480810
     9  C    0.010956  -0.142193   0.075811   0.045214  -0.029931  -0.831389
    10  C    0.001749   0.019867  -0.008320  -0.001847   0.009432   0.214893
    11  C   -0.001352  -0.004585   0.002432   0.000170  -0.000617  -0.158959
    12  C    0.000204  -0.005239   0.003135   0.001357  -0.004350  -0.034753
    13  C    0.000058  -0.000079   0.000082   0.000008  -0.000249  -0.015268
    14  N   -0.000000  -0.000001   0.000000   0.000000  -0.000000   0.000078
    15  C    0.002054   0.046804  -0.027700  -0.006587   0.012484   0.251941
    16  C   -0.008275  -0.027777   0.014110   0.003481  -0.019409  -0.371135
    17  H    0.451708  -0.073651  -0.001535  -0.007014  -0.006749  -0.003272
    18  H    0.428015  -0.065622  -0.007007  -0.006198   0.006965  -0.002330
    19  H    0.438478  -0.068986  -0.008044   0.001229  -0.006983   0.001233
    20  H    0.013952  -0.055848   0.404373  -0.004860  -0.006712  -0.003550
    21  H   -0.000629  -0.075682   0.426078   0.003104   0.008787  -0.008736
    22  H   -0.024017  -0.095764   0.446181   0.010085  -0.000115   0.013965
    23  H    0.004999  -0.088173   0.003160   0.439586   0.009874  -0.019896
    24  H   -0.022999  -0.101715   0.014685   0.448321   0.001699   0.016263
    25  H    0.017536  -0.025914  -0.013961   0.389353  -0.008100  -0.000716
    26  H   -0.014893   0.026723  -0.011020  -0.015471  -0.061571   0.387019
    27  H    0.000216   0.000590   0.000203   0.000562   0.000439   0.000361
    28  H    0.000003  -0.000000   0.000003  -0.000000  -0.000004   0.000646
    29  H    0.000000   0.000000   0.000000  -0.000000  -0.000000   0.000075
    30  H    0.000003  -0.000015   0.000016  -0.000000  -0.000004   0.000669
    31  H    0.000070   0.000879  -0.000549   0.000081  -0.000482   0.013397
               7          8          9         10         11         12
     1  C    0.025159  -0.050157   0.010956   0.001749  -0.001352   0.000204
     2  C    0.010488  -0.141577  -0.142193   0.019867  -0.004585  -0.005239
     3  C    0.003110   0.078997   0.075811  -0.008320   0.002432   0.003135
     4  C   -0.040186   0.051403   0.045214  -0.001847   0.000170   0.001357
     5  O   -0.091022   0.063703  -0.029931   0.009432  -0.000617  -0.004350
     6  C    1.096428  -0.480810  -0.831389   0.214893  -0.158959  -0.034753
     7  C    9.810850   2.120000  -6.356422   1.520218  -0.788873  -0.364603
     8  C    2.120000  10.660980  -5.224722   2.726347  -2.363732  -0.547748
     9  C   -6.356422  -5.224722  20.012457  -7.255281   3.582081  -0.376813
    10  C    1.520218   2.726347  -7.255281  16.814773  -6.467316   1.529601
    11  C   -0.788873  -2.363732   3.582081  -6.467316  13.349954  -0.969960
    12  C   -0.364603  -0.547748  -0.376813   1.529601  -0.969960   9.865615
    13  C   -0.163737  -0.563222  -0.517001  -0.582945   0.984488  -4.216529
    14  N    0.001119   0.006119   0.032682   0.023034  -0.049794   0.750678
    15  C    1.555234   3.515262  -2.742966   3.466463  -6.203388  -2.050515
    16  C   -2.165641  -3.949832   4.795670  -6.216240   4.941234   1.790438
    17  H    0.001086  -0.002370   0.000373   0.000084  -0.000003   0.000001
    18  H    0.000362   0.000084  -0.000013  -0.000002   0.000000  -0.000000
    19  H   -0.000600   0.000837  -0.000164  -0.000056   0.000002   0.000002
    20  H    0.001271  -0.000845   0.000364   0.000021  -0.000007   0.000025
    21  H    0.000693   0.000399  -0.000353  -0.000032   0.000000  -0.000000
    22  H    0.003157   0.002939  -0.000627  -0.000064   0.000014   0.000018
    23  H    0.003125  -0.000695   0.000239   0.000006  -0.000000   0.000000
    24  H   -0.001912   0.001323   0.000100   0.000041   0.000000  -0.000001
    25  H   -0.001554  -0.003356  -0.001448  -0.000148  -0.000008  -0.000003
    26  H    0.005928  -0.015337  -0.024292   0.007374   0.000540  -0.000518
    27  H   -0.090605   0.280430   0.001213   0.074944   0.011253   0.007867
    28  H   -0.016127  -0.014090   0.098100   0.213263   0.022482  -0.021480
    29  H    0.000727   0.003166  -0.007786  -0.001181   0.201398   0.104610
    30  H   -0.001201   0.000638  -0.005700  -0.006252   0.055598   0.105780
    31  H    0.018316  -0.034328   0.118252   0.101739  -0.033152  -0.011225
              13         14         15         16         17         18
     1  C    0.000058  -0.000000   0.002054  -0.008275   0.451708   0.428015
     2  C   -0.000079  -0.000001   0.046804  -0.027777  -0.073651  -0.065622
     3  C    0.000082   0.000000  -0.027700   0.014110  -0.001535  -0.007007
     4  C    0.000008   0.000000  -0.006587   0.003481  -0.007014  -0.006198
     5  O   -0.000249  -0.000000   0.012484  -0.019409  -0.006749   0.006965
     6  C   -0.015268   0.000078   0.251941  -0.371135  -0.003272  -0.002330
     7  C   -0.163737   0.001119   1.555234  -2.165641   0.001086   0.000362
     8  C   -0.563222   0.006119   3.515262  -3.949832  -0.002370   0.000084
     9  C   -0.517001   0.032682  -2.742966   4.795670   0.000373  -0.000013
    10  C   -0.582945   0.023034   3.466463  -6.216240   0.000084  -0.000002
    11  C    0.984488  -0.049794  -6.203388   4.941234  -0.000003   0.000000
    12  C   -4.216529   0.750678  -2.050515   1.790438   0.000001  -0.000000
    13  C   12.285201  -0.533764  -0.866486   0.534345   0.000000   0.000000
    14  N   -0.533764   7.356255  -0.050685  -0.002667   0.000000  -0.000000
    15  C   -0.866486  -0.050685  21.378184 -12.181813  -0.000032  -0.000000
    16  C    0.534345  -0.002667 -12.181813  18.846687  -0.000334   0.000017
    17  H    0.000000   0.000000  -0.000032  -0.000334   0.530142  -0.028040
    18  H    0.000000  -0.000000  -0.000000   0.000017  -0.028040   0.552528
    19  H    0.000000  -0.000000   0.000083   0.000335  -0.024625  -0.028264
    20  H    0.000000  -0.000000   0.000278   0.000016  -0.000149   0.000054
    21  H   -0.000000  -0.000000   0.000045   0.000324   0.000102   0.000909
    22  H   -0.000000  -0.000000  -0.000003   0.000567   0.000051   0.000107
    23  H    0.000000   0.000000  -0.000006  -0.000084   0.000079   0.000865
    24  H   -0.000000   0.000000  -0.000038  -0.000280   0.002652   0.000094
    25  H   -0.000000  -0.000000   0.000066   0.000418   0.000041   0.000050
    26  H    0.000019   0.000000   0.005352  -0.004388  -0.000018   0.000010
    27  H    0.000622   0.000001  -0.001014  -0.002435   0.000000   0.000000
    28  H   -0.003665   0.000021  -0.012869   0.030776  -0.000000  -0.000000
    29  H   -0.039823   0.000467   0.052625  -0.007588   0.000000  -0.000000
    30  H   -0.035730   0.000561   0.197076  -0.005921   0.000000   0.000000
    31  H   -0.004639   0.000016  -0.014075   0.149340   0.000000  -0.000000
              19         20         21         22         23         24
     1  C    0.438478   0.013952  -0.000629  -0.024017   0.004999  -0.022999
     2  C   -0.068986  -0.055848  -0.075682  -0.095764  -0.088173  -0.101715
     3  C   -0.008044   0.404373   0.426078   0.446181   0.003160   0.014685
     4  C    0.001229  -0.004860   0.003104   0.010085   0.439586   0.448321
     5  O   -0.006983  -0.006712   0.008787  -0.000115   0.009874   0.001699
     6  C    0.001233  -0.003550  -0.008736   0.013965  -0.019896   0.016263
     7  C   -0.000600   0.001271   0.000693   0.003157   0.003125  -0.001912
     8  C    0.000837  -0.000845   0.000399   0.002939  -0.000695   0.001323
     9  C   -0.000164   0.000364  -0.000353  -0.000627   0.000239   0.000100
    10  C   -0.000056   0.000021  -0.000032  -0.000064   0.000006   0.000041
    11  C    0.000002  -0.000007   0.000000   0.000014  -0.000000   0.000000
    12  C    0.000002   0.000025  -0.000000   0.000018   0.000000  -0.000001
    13  C    0.000000   0.000000  -0.000000  -0.000000   0.000000  -0.000000
    14  N   -0.000000  -0.000000  -0.000000  -0.000000   0.000000   0.000000
    15  C    0.000083   0.000278   0.000045  -0.000003  -0.000006  -0.000038
    16  C    0.000335   0.000016   0.000324   0.000567  -0.000084  -0.000280
    17  H   -0.024625  -0.000149   0.000102   0.000051   0.000079   0.002652
    18  H   -0.028264   0.000054   0.000909   0.000107   0.000865   0.000094
    19  H    0.532869   0.000041   0.000071   0.002682   0.000082   0.000048
    20  H    0.000041   0.562454  -0.028113  -0.027129   0.000178   0.000041
    21  H    0.000071  -0.028113   0.543461  -0.026225   0.000686   0.000070
    22  H    0.002682  -0.027129  -0.026225   0.532524   0.000070  -0.000136
    23  H    0.000082   0.000178   0.000686   0.000070   0.546990  -0.026528
    24  H    0.000048   0.000041   0.000070  -0.000136  -0.026528   0.532547
    25  H   -0.000153   0.001922   0.000131   0.000026  -0.027660  -0.026335
    26  H   -0.000031   0.000931  -0.000163   0.000001   0.000033   0.000122
    27  H   -0.000000   0.000000  -0.000000  -0.000000   0.000000   0.000000
    28  H    0.000000   0.000000   0.000000   0.000000   0.000000  -0.000000
    29  H   -0.000000   0.000000  -0.000000  -0.000000   0.000000   0.000000
    30  H   -0.000000   0.000000  -0.000000  -0.000000   0.000000   0.000000
    31  H   -0.000000   0.000001  -0.000000  -0.000001   0.000000  -0.000000
              25         26         27         28         29         30
     1  C    0.017536  -0.014893   0.000216   0.000003   0.000000   0.000003
     2  C   -0.025914   0.026723   0.000590  -0.000000   0.000000  -0.000015
     3  C   -0.013961  -0.011020   0.000203   0.000003   0.000000   0.000016
     4  C    0.389353  -0.015471   0.000562  -0.000000  -0.000000  -0.000000
     5  O   -0.008100  -0.061571   0.000439  -0.000004  -0.000000  -0.000004
     6  C   -0.000716   0.387019   0.000361   0.000646   0.000075   0.000669
     7  C   -0.001554   0.005928  -0.090605  -0.016127   0.000727  -0.001201
     8  C   -0.003356  -0.015337   0.280430  -0.014090   0.003166   0.000638
     9  C   -0.001448  -0.024292   0.001213   0.098100  -0.007786  -0.005700
    10  C   -0.000148   0.007374   0.074944   0.213263  -0.001181  -0.006252
    11  C   -0.000008   0.000540   0.011253   0.022482   0.201398   0.055598
    12  C   -0.000003  -0.000518   0.007867  -0.021480   0.104610   0.105780
    13  C   -0.000000   0.000019   0.000622  -0.003665  -0.039823  -0.035730
    14  N   -0.000000   0.000000   0.000001   0.000021   0.000467   0.000561
    15  C    0.000066   0.005352  -0.001014  -0.012869   0.052625   0.197076
    16  C    0.000418  -0.004388  -0.002435   0.030776  -0.007588  -0.005921
    17  H    0.000041  -0.000018   0.000000  -0.000000   0.000000   0.000000
    18  H    0.000050   0.000010   0.000000  -0.000000  -0.000000   0.000000
    19  H   -0.000153  -0.000031  -0.000000   0.000000  -0.000000  -0.000000
    20  H    0.001922   0.000931   0.000000   0.000000   0.000000   0.000000
    21  H    0.000131  -0.000163  -0.000000   0.000000  -0.000000  -0.000000
    22  H    0.000026   0.000001  -0.000000   0.000000  -0.000000  -0.000000
    23  H   -0.027660   0.000033   0.000000   0.000000   0.000000   0.000000
    24  H   -0.026335   0.000122   0.000000  -0.000000   0.000000   0.000000
    25  H    0.553399  -0.000652  -0.000000   0.000000  -0.000000  -0.000000
    26  H   -0.000652   0.576988   0.000039   0.000000   0.000000  -0.000000
    27  H   -0.000000   0.000039   0.565310   0.004285  -0.000007   0.000002
    28  H    0.000000   0.000000   0.004285   0.573806  -0.004931   0.000016
    29  H   -0.000000   0.000000  -0.000007  -0.004931   0.551252  -0.000144
    30  H   -0.000000  -0.000000   0.000002   0.000016  -0.000144   0.552685
    31  H    0.000000   0.000003   0.000140  -0.000144   0.000015  -0.004711
              31
     1  C    0.000070
     2  C    0.000879
     3  C   -0.000549
     4  C    0.000081
     5  O   -0.000482
     6  C    0.013397
     7  C    0.018316
     8  C   -0.034328
     9  C    0.118252
    10  C    0.101739
    11  C   -0.033152
    12  C   -0.011225
    13  C   -0.004639
    14  N    0.000016
    15  C   -0.014075
    16  C    0.149340
    17  H    0.000000
    18  H   -0.000000
    19  H   -0.000000
    20  H    0.000001
    21  H   -0.000000
    22  H   -0.000001
    23  H    0.000000
    24  H   -0.000000
    25  H    0.000000
    26  H    0.000003
    27  H    0.000140
    28  H   -0.000144
    29  H    0.000015
    30  H   -0.004711
    31  H    0.559774
 Mulliken charges:
               1
     1  C   -0.364877
     2  C   -0.034839
     3  C   -0.410850
     4  C   -0.399586
     5  O   -0.218811
     6  C   -0.221597
     7  C   -0.094789
     8  C   -0.119808
     9  C    0.743589
    10  C   -0.184165
    11  C   -0.109900
    12  C    0.444407
    13  C   -0.261687
    14  N   -0.534121
    15  C   -0.325773
    16  C   -0.143937
    17  H    0.161474
    18  H    0.147417
    19  H    0.159915
    20  H    0.141290
    21  H    0.155074
    22  H    0.161694
    23  H    0.153071
    24  H    0.161938
    25  H    0.147064
    26  H    0.137270
    27  H    0.145584
    28  H    0.129908
    29  H    0.147125
    30  H    0.146636
    31  H    0.141284
 Sum of Mulliken charges =  -0.00000
 Mulliken charges with hydrogens summed into heavy atoms:
               1
     1  C    0.103928
     2  C   -0.034839
     3  C    0.047208
     4  C    0.062488
     5  O   -0.218811
     6  C   -0.084327
     7  C   -0.094789
     8  C    0.025776
     9  C    0.743589
    10  C   -0.054257
    11  C    0.037226
    12  C    0.444407
    13  C   -0.261687
    14  N   -0.534121
    15  C   -0.179137
    16  C   -0.002654
 Electronic spatial extent (au):  <R**2>=           6807.2304
 Charge=             -0.0000 electrons
 Dipole moment (field-independent basis, Debye):
    X=             -6.9252    Y=              1.7463    Z=             -1.0767  Tot=              7.2227
 Quadrupole moment (field-independent basis, Debye-Ang):
   XX=           -120.4658   YY=            -92.4898   ZZ=            -98.3447
   XY=             17.4907   XZ=              3.0296   YZ=              1.5479
 Traceless Quadrupole moment (field-independent basis, Debye-Ang):
   XX=            -16.6990   YY=             11.2770   ZZ=              5.4220
   XY=             17.4907   XZ=              3.0296   YZ=              1.5479
 Octapole moment (field-independent basis, Debye-Ang**2):
  XXX=           -421.9213  YYY=              9.5885  ZZZ=              0.4446  XYY=            -17.1222
  XXY=             95.5270  XXZ=             -4.8448  XZZ=            -19.4463  YZZ=             -1.8931
  YYZ=              3.6544  XYZ=              5.2283
 Hexadecapole moment (field-independent basis, Debye-Ang**3):
 XXXX=         -10334.9130 YYYY=           -819.4692 ZZZZ=           -323.6005 XXXY=            792.6666
 XXXZ=             -4.2942 YYYX=             74.6165 YYYZ=             12.0044 ZZZX=             -3.7062
 ZZZY=             -1.2093 XXYY=          -1649.4263 XXZZ=          -1475.5572 YYZZ=           -204.9541
 XXYZ=             24.8155 YYXZ=             -4.7062 ZZXY=             -1.9664
 N-N= 9.341937991021D+02 E-N=-3.426761263977D+03  KE= 6.659606980269D+02
 Unable to Open any file for archive entry.
 1\1\GINC-N1\SP\RB3LYP TD-FC\6-31+G(d,p)\C14H15N1O1\HPCMGAC13\25-Aug-20
 25\0\\# td=(50-50,nstates=3) b3lyp/6-31+g(d,p) geom=connectivity\\Titl
 e Card Required\\0,1\C,0,-4.76344,-0.94312,1.424724\C,0,-4.209394,-0.3
 99033,0.106165\C,0,-4.236507,-1.484875,-0.97865\C,0,-4.9712,0.860747,-
 0.325698\O,0,-2.827227,-0.055986,0.446309\C,0,-2.034519,0.498954,-0.52
 058\C,0,-0.872013,1.050981,-0.257498\C,0,0.300987,1.610665,-0.041836\C
 ,0,1.604093,0.918065,-0.018661\C,0,2.777792,1.666208,0.180799\C,0,4.02
 7067,1.053534,0.206262\C,0,4.12668,-0.337031,0.031953\C,0,5.408813,-0.
 978137,0.056032\N,0,6.449862,-1.499573,0.074759\C,0,2.957508,-1.098037
 ,-0.165337\C,0,1.717244,-0.475097,-0.187959\H,0,-4.70317,-0.18081,2.20
 6759\H,0,-5.810047,-1.239825,1.304654\H,0,-4.188217,-1.814921,1.749872
 \H,0,-3.851989,-1.125402,-1.938302\H,0,-5.265769,-1.818693,-1.145493\H
 ,0,-3.640296,-2.348348,-0.668446\H,0,-6.028128,0.624243,-0.485938\H,0,
 -4.902794,1.631144,0.448234\H,0,-4.579469,1.27606,-1.259629\H,0,-2.389
 206,0.444915,-1.548562\H,0,0.343481,2.686805,0.140932\H,0,2.707731,2.7
 42036,0.315959\H,0,4.925455,1.642168,0.359766\H,0,3.034531,-2.172417,-
 0.296312\H,0,0.818004,-1.064999,-0.335568\\Version=ES64L-G16RevC.02\St
 ate=1-A\HF=-672.4744645\RMSD=6.399e-09\PG=C01 [X(C14H15N1O1)]\\@
 The archive entry for this job was punched.


 ONLY A FOOL KNOWS EVERYTHING.

               -- THE CHEMIST ANALYST, SEPTEMBER 1946
 Job cpu time:       0 days  1 hours  9 minutes  6.5 seconds.
 Elapsed time:       0 days  0 hours  4 minutes 28.4 seconds.
 File lengths (MBytes):  RWF=    815 Int=      0 D2E=      0 Chk=     38 Scr=      2
 Normal termination of Gaussian 16 at Mon Aug 25 14:53:29 2025.
