 Entering Gaussian System, Link 0=g16
 Input=M754E.gjf
 Output=M754E.log
 Initial command:
 /hpc/softwares/Gaussian/g16/l1.exe "/hpc/home/hpcmgac13/pbs.13422.admin1.x8z/Gau-375314.inp" -scrdir="/hpc/home/hpcmgac13/pbs.13422.admin1.x8z/"
 Default linda workers: n1
 Default is to use  16 SMP processors on each worker.
 Entering Link 1 = /hpc/softwares/Gaussian/g16/l1.exe PID=    375315.
  
 Copyright (c) 1988-2021, Gaussian, Inc.  All Rights Reserved.
  
 This is part of the Gaussian(R) 16 program.  It is based on
 the Gaussian(R) 09 system (copyright 2009, Gaussian, Inc.),
 the Gaussian(R) 03 system (copyright 2003, Gaussian, Inc.),
 the Gaussian(R) 98 system (copyright 1998, Gaussian, Inc.),
 the Gaussian(R) 94 system (copyright 1995, Gaussian, Inc.),
 the Gaussian 92(TM) system (copyright 1992, Gaussian, Inc.),
 the Gaussian 90(TM) system (copyright 1990, Gaussian, Inc.),
 the Gaussian 88(TM) system (copyright 1988, Gaussian, Inc.),
 the Gaussian 86(TM) system (copyright 1986, Carnegie Mellon
 University), and the Gaussian 82(TM) system (copyright 1983,
 Carnegie Mellon University). Gaussian is a federally registered
 trademark of Gaussian, Inc.
  
 This software contains proprietary and confidential information,
 including trade secrets, belonging to Gaussian, Inc.
  
 This software is provided under written license and may be
 used, copied, transmitted, or stored only in accord with that
 written license.
  
 The following legend is applicable only to US Government
 contracts under FAR:
  
                    RESTRICTED RIGHTS LEGEND
  
 Use, reproduction and disclosure by the US Government is
 subject to restrictions as set forth in subparagraphs (a)
 and (c) of the Commercial Computer Software - Restricted
 Rights clause in FAR 52.227-19.
  
 Gaussian, Inc.
 340 Quinnipiac St., Bldg. 40, Wallingford CT 06492
  
  
 ---------------------------------------------------------------
 Warning -- This program may not be used in any manner that
 competes with the business of Gaussian, Inc. or will provide
 assistance to any competitor of Gaussian, Inc.  The licensee
 of this program is prohibited from giving any competitor of
 Gaussian, Inc. access to this program.  By using this program,
 the user acknowledges that Gaussian, Inc. is engaged in the
 business of creating and licensing software in the field of
 computational chemistry and represents and warrants to the
 licensee that it is not a competitor of Gaussian, Inc. and that
 it will not use this program in any manner prohibited above.
 ---------------------------------------------------------------
  

 Cite this work as:
 Gaussian 16, Revision C.02,
 M. J. Frisch, G. W. Trucks, H. B. Schlegel, G. E. Scuseria, 
 M. A. Robb, J. R. Cheeseman, G. Scalmani, V. Barone, 
 G. A. Petersson, H. Nakatsuji, X. Li, M. Caricato, A. V. Marenich, 
 J. Bloino, B. G. Janesko, R. Gomperts, B. Mennucci, H. P. Hratchian, 
 J. V. Ortiz, A. F. Izmaylov, J. L. Sonnenberg, D. Williams-Young, 
 F. Ding, F. Lipparini, F. Egidi, J. Goings, B. Peng, A. Petrone, 
 T. Henderson, D. Ranasinghe, V. G. Zakrzewski, J. Gao, N. Rega, 
 G. Zheng, W. Liang, M. Hada, M. Ehara, K. Toyota, R. Fukuda, 
 J. Hasegawa, M. Ishida, T. Nakajima, Y. Honda, O. Kitao, H. Nakai, 
 T. Vreven, K. Throssell, J. A. Montgomery, Jr., J. E. Peralta, 
 F. Ogliaro, M. J. Bearpark, J. J. Heyd, E. N. Brothers, K. N. Kudin, 
 V. N. Staroverov, T. A. Keith, R. Kobayashi, J. Normand, 
 K. Raghavachari, A. P. Rendell, J. C. Burant, S. S. Iyengar, 
 J. Tomasi, M. Cossi, J. M. Millam, M. Klene, C. Adamo, R. Cammi, 
 J. W. Ochterski, R. L. Martin, K. Morokuma, O. Farkas, 
 J. B. Foresman, and D. J. Fox, Gaussian, Inc., Wallingford CT, 2019.
 
 ******************************************
 Gaussian 16:  ES64L-G16RevC.02  7-Dec-2021
                25-Aug-2025 
 ******************************************
 SetLPE:    new flags="-opt 'Tsnet.Node.lindarsharg: ssh'  -nodelist 'n1' -env GAUSS_MDEF=4294967296 -env GAUSS_EXEDIR="/hpc/softwares/Gaussian/g16/bsd:/hpc/softwares/Gaussian/g16""
 Will use up to    1 processors via Linda.
 ----------------------------------------------------------
 # td=(50-50,nstates=3) b3lyp/6-31+g(d,p) geom=connectivity
 ----------------------------------------------------------
 1/38=1,57=2,172=1/1;
 2/12=2,17=6,18=5,40=1/2;
 3/5=1,6=6,7=111,11=9,25=1,30=1,74=-5/1,2,3,8;
 4//1;
 5/5=2,38=5/2;
 8/6=1,10=2,108=3/1;
 9/41=3,42=1,48=2,70=2/14;
 6/7=2,8=2,9=2,10=2/1;
 99/5=1,9=1/99;
 -------------------
 Title Card Required
 -------------------
 Symbolic Z-matrix:
 Charge =  0 Multiplicity = 1
 C                    -2.77577   2.05296  -1.31881 
 C                    -3.12345   0.91173  -0.69128 
 C                    -4.52247   0.5998   -0.52429 
 N                    -5.65339   0.36965  -0.38246 
 C                    -2.16857  -0.05625  -0.12829 
 C                    -1.03701   0.09497   0.59231 
 C                    -0.4332    1.39853   1.06408 
 C                    -0.0292    1.34024   2.54966 
 C                     0.69111   1.999     0.16381 
 C                     2.15564   1.50316   0.3581 
 C                     3.04866   2.43193  -0.36177 
 N                     3.73154   3.17436  -0.93829 
 C                     2.45115   0.06542  -0.0704 
 C                     2.16412  -0.3779   -1.36904 
 C                     2.44133  -1.69315  -1.7456 
 C                     3.01854  -2.58064  -0.83137 
 C                     3.32527  -2.14142   0.45813 
 C                     3.04416  -0.82408   0.83375 
 C                    -0.58172  -1.29314   0.97278 
 C                    -1.62801  -2.19776   0.34333 
 O                    -1.71785  -3.39432   0.34461 
 O                    -2.54661  -1.39056  -0.30777 
 H                    -1.73768   2.29847  -1.50577 
 H                    -3.53052   2.74771  -1.66944 
 H                    -1.24199   2.13661   0.98696 
 H                     0.34647   2.31319   2.8841 
 H                    -0.89077   1.08467   3.17405 
 H                     0.75022   0.5954    2.73949 
 H                     0.4211    1.87819  -0.88975 
 H                     0.70472   3.07798   0.35702 
 H                     2.4153    1.59986   1.41877 
 H                     1.73021   0.30446  -2.09461 
 H                     2.20945  -2.02456  -2.75327 
 H                     3.22996  -3.60424  -1.12464 
 H                     3.78136  -2.82022   1.17248 
 H                     3.29004  -0.48799   1.83816 
 H                     0.40631  -1.56721   0.59043 
 H                    -0.55911  -1.46183   2.05602 
 
                          Input orientation:                          
 ---------------------------------------------------------------------
 Center     Atomic      Atomic             Coordinates (Angstroms)
 Number     Number       Type             X           Y           Z
 ---------------------------------------------------------------------
      1          6           0       -2.775765    2.052962   -1.318811
      2          6           0       -3.123451    0.911732   -0.691279
      3          6           0       -4.522471    0.599798   -0.524288
      4          7           0       -5.653393    0.369652   -0.382463
      5          6           0       -2.168573   -0.056250   -0.128290
      6          6           0       -1.037006    0.094968    0.592310
      7          6           0       -0.433195    1.398527    1.064082
      8          6           0       -0.029196    1.340235    2.549658
      9          6           0        0.691111    1.999004    0.163808
     10          6           0        2.155638    1.503160    0.358098
     11          6           0        3.048662    2.431932   -0.361770
     12          7           0        3.731541    3.174363   -0.938289
     13          6           0        2.451145    0.065422   -0.070404
     14          6           0        2.164122   -0.377900   -1.369040
     15          6           0        2.441331   -1.693151   -1.745600
     16          6           0        3.018539   -2.580635   -0.831365
     17          6           0        3.325266   -2.141418    0.458130
     18          6           0        3.044158   -0.824076    0.833746
     19          6           0       -0.581721   -1.293137    0.972777
     20          6           0       -1.628013   -2.197757    0.343325
     21          8           0       -1.717846   -3.394324    0.344613
     22          8           0       -2.546605   -1.390561   -0.307772
     23          1           0       -1.737676    2.298468   -1.505766
     24          1           0       -3.530521    2.747707   -1.669444
     25          1           0       -1.241987    2.136611    0.986963
     26          1           0        0.346474    2.313192    2.884095
     27          1           0       -0.890770    1.084667    3.174048
     28          1           0        0.750224    0.595398    2.739490
     29          1           0        0.421097    1.878194   -0.889750
     30          1           0        0.704720    3.077980    0.357019
     31          1           0        2.415303    1.599862    1.418768
     32          1           0        1.730206    0.304459   -2.094608
     33          1           0        2.209452   -2.024561   -2.753265
     34          1           0        3.229963   -3.604243   -1.124638
     35          1           0        3.781358   -2.820223    1.172476
     36          1           0        3.290039   -0.487993    1.838158
     37          1           0        0.406310   -1.567211    0.590431
     38          1           0       -0.559112   -1.461831    2.056025
 ---------------------------------------------------------------------
                    Distance matrix (angstroms):
                    1          2          3          4          5
     1  C    0.000000
     2  C    1.347994   0.000000
     3  C    2.407059   1.443068   0.000000
     4  N    3.462806   2.605729   1.162784   0.000000
     5  C    2.496958   1.471645   2.475490   3.519938   0.000000
     6  C    3.241822   2.582239   3.694606   4.726168   1.350028
     7  C    3.405011   3.248960   4.459043   5.513759   2.559231
     8  C    4.797570   4.501300   5.494262   6.416460   3.701150
     9  C    3.770981   4.057612   5.441754   6.573122   3.533721
    10  C    5.237656   5.414772   6.796456   7.925543   4.622460
    11  C    5.914685   6.365105   7.791353   8.943108   5.784903
    12  N    6.614179   7.222979   8.656125   9.810827   6.775272
    13  C    5.729697   5.672552   7.008772   8.116247   4.621683
    14  C    5.505824   5.484609   6.810288   7.914904   4.518314
    15  C    6.436894   6.234084   7.432614   8.463915   5.152315
    16  C    7.435172   7.066845   8.190011   9.171047   5.811451
    17  C    7.613995   7.226951   8.370567   9.361004   5.905428
    18  C    6.839763   6.586208   7.818283   8.862931   5.356084
    19  C    4.611028   3.753788   4.621030   5.506669   2.293543
    20  C    4.706234   3.602175   4.117882   4.829290   2.258468
    21  O    5.793021   4.646603   4.957209   5.494059   3.401401
    22  O    3.596188   2.404242   2.812909   3.571563   1.398395
    23  H    1.082984   2.122922   3.406444   4.507214   2.761849
    24  H    1.084099   2.119745   2.628471   3.437739   3.477389
    25  H    2.770571   2.802986   3.925207   4.945500   2.628876
    26  H    5.242186   5.175690   6.185420   7.102546   4.584123
    27  H    4.967553   4.467161   5.205962   5.986869   3.720203
    28  H    5.570179   5.184168   6.201095   7.127683   4.143451
    29  H    3.230258   3.679302   5.119250   6.279528   3.320886
    30  H    3.996604   4.521775   5.851633   6.950358   4.279572
    31  H    5.886155   5.966877   7.273809   8.358331   5.113513
    32  H    4.895191   5.088821   6.453611   7.579791   4.381438
    33  H    6.598200   6.427555   7.561375   8.554373   5.471000
    34  H    8.252905   7.806901   8.839379   9.759953   6.536448
    35  H    8.541095   8.067060   9.139427  10.080063   6.688290
    36  H    7.294990   7.034923   8.234061   9.254820   5.818055
    37  H    5.184251   4.499684   5.498310   6.435679   3.070763
    38  H    5.353208   4.444920   5.159122   5.937361   3.055692
                    6          7          8          9         10
     6  C    0.000000
     7  C    1.512092   0.000000
     8  C    2.529344   1.540633   0.000000
     9  C    2.606790   1.560490   2.577809   0.000000
    10  C    3.497261   2.685408   3.098867   1.558348   0.000000
    11  C    4.802536   3.901834   4.375091   2.453916   1.475913
    12  N    5.879154   4.950567   5.447288   3.440974   2.637614
    13  C    3.550670   3.373966   3.826482   2.625131   1.529061
    14  C    3.783876   3.977667   4.808204   3.188896   2.553716
    15  C    4.556536   5.071064   5.809834   4.510113   3.837130
    16  C    5.062919   5.598296   6.007764   5.232627   4.340138
    17  C    4.903962   5.198501   5.267714   4.916146   3.828967
    18  C    4.190326   4.133401   4.132082   3.735696   2.536087
    19  C    1.509594   2.697305   3.118731   3.621150   3.961091
    20  C    2.380729   3.857504   4.465592   4.798267   5.292733
    21  O    3.563714   5.013919   5.489063   5.909632   6.244150
    22  O    2.301268   3.758656   4.686097   4.711087   5.561303
    23  H    3.122223   3.019219   4.503729   2.962459   4.389123
    24  H    4.286044   4.345789   5.660484   4.662998   6.163784
    25  H    2.089515   1.097661   2.132391   2.105561   3.512917
    26  H    3.476609   2.181042   1.095272   2.759973   3.210901
    27  H    2.768801   2.181706   1.094298   3.521350   4.169570
    28  H    2.838134   2.202837   1.094675   2.933895   2.910369
    29  H    2.739062   2.185716   3.510227   1.094298   2.169426
    30  H    3.462273   2.148337   2.892414   1.096223   2.141313
    31  H    3.855668   2.877547   2.705900   2.169580   1.096265
    32  H    3.862755   3.981785   5.073217   3.008595   2.762905
    33  H    5.121012   5.768297   6.667412   5.196513   4.704072
    34  H    5.902465   6.575479   6.969249   6.285081   5.425702
    35  H    5.661410   5.964232   5.807440   5.813088   4.690183
    36  H    4.540407   4.245070   3.855641   3.967749   2.728027
    37  H    2.201364   3.118448   3.532914   3.602917   3.541371
    38  H    2.189627   3.030091   2.894142   4.137744   4.363943
                   11         12         13         14         15
    11  C    0.000000
    12  N    1.161853   0.000000
    13  C    2.458107   3.472485   0.000000
    14  C    3.113223   3.906523   1.401917   0.000000
    15  C    4.393193   5.099910   2.428777   1.395897   0.000000
    16  C    5.034606   5.799983   2.811159   2.423049   1.398793
    17  C    4.654490   5.511132   2.431785   2.792275   2.416342
    18  C    3.468554   4.427202   1.400128   2.413670   2.787780
    19  C    5.369994   6.497304   3.483129   3.723093   4.085147
    20  C    6.618343   7.695910   4.683234   4.541405   4.601934
    21  O    7.560677   8.630719   5.433467   5.206255   4.955980
    22  O    6.776532   7.787888   5.210925   4.933834   5.199848
    23  H    4.922964   5.567904   4.959131   4.733463   5.783999
    24  H    6.715309   7.311236   6.747734   6.502970   7.442448
    25  H    4.507323   5.433186   4.364295   4.845110   5.975015
    26  H    4.225111   5.177926   4.267455   5.351166   6.470957
    27  H    5.462257   6.530230   4.767990   5.666667   6.559124
    28  H    4.274750   5.391231   3.327087   4.452689   5.311622
    29  H    2.736693   3.555482   2.842282   2.890989   4.191459
    30  H    2.535370   3.293745   3.508304   4.129436   5.495500
    31  H    2.064897   3.125261   2.138557   3.427318   4.567038
    32  H    3.044207   3.684938   2.162011   1.086437   2.148942
    33  H    5.126778   5.713117   3.409426   2.151657   1.085813
    34  H    6.086891   6.799692   3.896718   3.406617   2.158659
    35  H    5.520497   6.355539   3.411915   3.878105   3.403106
    36  H    3.663865   4.616972   2.156993   3.400872   3.875053
    37  H    4.886907   5.989714   2.698804   2.888579   3.100679
    38  H    5.832937   6.990702   3.989467   4.507991   4.848559
                   16         17         18         19         20
    16  C    0.000000
    17  C    1.396349   0.000000
    18  C    2.420486   1.398392   0.000000
    19  C    4.227819   4.031004   3.658736   0.000000
    20  C    4.808008   4.954930   4.894558   1.519630   0.000000
    21  O    4.947561   5.197657   5.433425   2.469890   1.199935
    22  O    5.715002   5.969025   5.734161   2.347353   1.385389
    23  H    6.847046   7.014475   6.171672   4.514314   4.862839
    24  H    8.484326   8.685156   7.889867   5.657312   5.668191
    25  H    6.611415   6.280207   5.211543   3.492753   4.398867
    26  H    6.700307   5.882351   4.617779   4.185725   5.541008
    27  H    6.690327   5.963120   4.960239   3.255005   4.396684
    28  H    5.289938   4.396090   3.302862   2.908937   4.381704
    29  H    5.160549   5.138897   4.141636   3.812085   4.725749
    30  H    6.227836   5.841199   4.574525   4.597907   5.768469
    31  H    4.785765   3.968379   2.571611   4.189332   5.650389
    32  H    3.402845   3.878531   3.402252   4.160069   4.845847
    33  H    2.158133   3.401728   3.873570   4.712644   4.934066
    34  H    1.085579   2.157335   3.405748   4.926388   5.266218
    35  H    2.157469   1.085857   2.154717   4.626914   5.507835
    36  H    3.402825   2.153957   1.087314   4.048168   5.417108
    37  H    3.142017   2.977838   2.751308   1.094308   2.144089
    38  H    4.731631   4.254821   3.858011   1.096538   2.148832
                   21         22         23         24         25
    21  O    0.000000
    22  O    2.264401   0.000000
    23  H    5.985998   3.962132   0.000000
    24  H    6.713178   4.466263   1.855505   0.000000
    25  H    5.588407   3.977350   2.546685   3.559118   0.000000
    26  H    6.579219   5.681171   4.859504   5.996216   2.480625
    27  H    5.362007   4.581661   4.908281   5.761372   2.452199
    28  H    5.267323   4.909065   5.206947   6.511214   3.068484
    29  H    5.822214   4.453169   2.283945   4.120590   2.520849
    30  H    6.910839   5.566051   3.169054   4.706687   2.252260
    31  H    6.571044   6.045172   5.127200   6.797604   3.721603
    32  H    5.614255   4.935280   4.043391   5.815967   4.656908
    33  H    5.186209   5.385394   5.985370   7.542977   6.573971
    34  H    5.165615   6.239904   7.724292   9.292375   7.577242
    35  H    5.590724   6.654185   7.989600   9.619872   7.059647
    36  H    5.979661   6.283793   6.650121   8.324246   5.305878
    37  H    2.812616   3.091550   4.892258   6.262922   4.073379
    38  H    2.829510   3.089133   5.311800   6.358349   3.815494
                   26         27         28         29         30
    26  H    0.000000
    27  H    1.767518   0.000000
    28  H    1.770520   1.766660   0.000000
    29  H    3.799565   4.343401   3.863324   0.000000
    30  H    2.664461   3.801912   3.441141   1.753386   0.000000
    31  H    2.633643   3.778433   2.350690   3.063263   2.497646
    32  H    5.544115   5.936074   4.941003   2.375309   3.841161
    33  H    7.353000   7.376430   6.258106   4.680000   6.162306
    34  H    7.707171   7.579249   6.222345   6.164578   7.295496
    35  H    6.409369   6.409621   4.828020   6.133454   6.702199
    36  H    4.195855   4.662298   2.904616   4.612066   4.646914
    37  H    4.507993   3.923003   3.068161   3.749929   4.660615
    38  H    3.969456   2.800826   2.532524   4.560062   5.009369
                   31         32         33         34         35
    31  H    0.000000
    32  H    3.806736   0.000000
    33  H    5.530341   2.467355   0.000000
    34  H    5.849384   4.297449   2.487823   0.000000
    35  H    4.632917   4.964343   4.302954   2.489067   0.000000
    36  H    2.302214   4.304382   4.960834   4.300324   2.474636
    37  H    3.840904   3.530621   3.826329   3.881234   3.646884
    38  H    4.315925   5.058509   5.577713   5.391070   4.633095
                   36         37         38
    36  H    0.000000
    37  H    3.322262   0.000000
    38  H    3.976404   1.758155   0.000000
 Stoichiometry    C18H16N2O2
 Framework group  C1[X(C18H16N2O2)]
 Deg. of freedom   108
 Full point group                 C1      NOp   1
 Largest Abelian subgroup         C1      NOp   1
 Largest concise Abelian subgroup C1      NOp   1
                         Standard orientation:                         
 ---------------------------------------------------------------------
 Center     Atomic      Atomic             Coordinates (Angstroms)
 Number     Number       Type             X           Y           Z
 ---------------------------------------------------------------------
      1          6           0        2.775765   -2.052962   -1.318811
      2          6           0        3.123451   -0.911732   -0.691279
      3          6           0        4.522471   -0.599798   -0.524288
      4          7           0        5.653393   -0.369652   -0.382463
      5          6           0        2.168573    0.056250   -0.128290
      6          6           0        1.037006   -0.094968    0.592310
      7          6           0        0.433195   -1.398527    1.064082
      8          6           0        0.029196   -1.340235    2.549658
      9          6           0       -0.691111   -1.999004    0.163808
     10          6           0       -2.155638   -1.503160    0.358098
     11          6           0       -3.048662   -2.431932   -0.361770
     12          7           0       -3.731541   -3.174363   -0.938289
     13          6           0       -2.451145   -0.065422   -0.070404
     14          6           0       -2.164122    0.377900   -1.369040
     15          6           0       -2.441331    1.693151   -1.745600
     16          6           0       -3.018539    2.580635   -0.831365
     17          6           0       -3.325266    2.141418    0.458130
     18          6           0       -3.044158    0.824076    0.833746
     19          6           0        0.581721    1.293137    0.972777
     20          6           0        1.628013    2.197757    0.343325
     21          8           0        1.717846    3.394324    0.344613
     22          8           0        2.546605    1.390561   -0.307772
     23          1           0        1.737676   -2.298468   -1.505766
     24          1           0        3.530521   -2.747707   -1.669444
     25          1           0        1.241987   -2.136611    0.986963
     26          1           0       -0.346474   -2.313192    2.884095
     27          1           0        0.890770   -1.084667    3.174048
     28          1           0       -0.750224   -0.595398    2.739490
     29          1           0       -0.421097   -1.878194   -0.889750
     30          1           0       -0.704720   -3.077980    0.357019
     31          1           0       -2.415303   -1.599862    1.418768
     32          1           0       -1.730206   -0.304459   -2.094608
     33          1           0       -2.209452    2.024561   -2.753265
     34          1           0       -3.229963    3.604243   -1.124638
     35          1           0       -3.781358    2.820223    1.172476
     36          1           0       -3.290039    0.487993    1.838158
     37          1           0       -0.406310    1.567211    0.590431
     38          1           0        0.559112    1.461831    2.056025
 ---------------------------------------------------------------------
 Rotational constants (GHZ):           0.4086950           0.2064582           0.1633967
 Standard basis: 6-31+G(d,p) (6D, 7F)
 There are   498 symmetry adapted cartesian basis functions of A   symmetry.
 There are   498 symmetry adapted basis functions of A   symmetry.
   498 basis functions,   816 primitive gaussians,   498 cartesian basis functions
    77 alpha electrons       77 beta electrons
       nuclear repulsion energy      1685.8357182535 Hartrees.
 NAtoms=   38 NActive=   38 NUniq=   38 SFac= 1.00D+00 NAtFMM=   60 NAOKFM=F Big=F
 Integral buffers will be    131072 words long.
 Regular integral format.
 Two-electron integral symmetry is turned on.
 One-electron integrals computed using PRISM.
 NBasis=   498 RedAO= T EigKep=  2.18D-06  NBF=   498
 NBsUse=   497 1.00D-06 EigRej=  8.13D-07 NBFU=   497
 ExpMin= 4.38D-02 ExpMax= 5.48D+03 ExpMxC= 8.25D+02 IAcc=3 IRadAn=         5 AccDes= 0.00D+00
 Harris functional with IExCor=  402 and IRadAn=       5 diagonalized for initial guess.
 HarFok:  IExCor=  402 AccDes= 0.00D+00 IRadAn=         5 IDoV= 1 UseB2=F ITyADJ=14
 ICtDFT=  3500011 ScaDFX=  1.000000  1.000000  1.000000  1.000000
 FoFCou: FMM=F IPFlag=           0 FMFlag=      100000 FMFlg1=           0
         NFxFlg=           0 DoJE=T BraDBF=F KetDBF=T FulRan=T
         wScrn=  0.000000 ICntrl=       500 IOpCl=  0 I1Cent=   200000004 NGrid=           0
         NMat0=    1 NMatS0=      1 NMatT0=    0 NMatD0=    1 NMtDS0=    0 NMtDT0=    0
 Petite list used in FoFCou.
 Requested convergence on RMS density matrix=1.00D-08 within 128 cycles.
 Requested convergence on MAX density matrix=1.00D-06.
 Requested convergence on             energy=1.00D-06.
 No special actions if energy rises.
 SCF Done:  E(RB3LYP) =  -955.491841565     A.U. after   17 cycles
            NFock= 17  Conv=0.21D-08     -V/T= 2.0096
 DoSCS=F DFT=T ScalE2(SS,OS)=  1.000000  1.000000
 ExpMin= 4.38D-02 ExpMax= 5.48D+03 ExpMxC= 8.25D+02 IAcc=3 IRadAn=         5 AccDes= 0.00D+00
 HarFok:  IExCor=  205 AccDes= 0.00D+00 IRadAn=         5 IDoV=-2 UseB2=F ITyADJ=14
 ICtDFT= 12500011 ScaDFX=  1.000000  1.000000  1.000000  1.000000
 GSVD:  LWork=        -660 too small for GESVD, short by        2750 words or        2750 for optimal perf.
 Range of M.O.s used for correlation:    23   497
 NBasis=   498 NAE=    77 NBE=    77 NFC=    22 NFV=     0
 NROrb=    475 NOA=    55 NOB=    55 NVA=   420 NVB=   420

 **** Warning!!: The largest alpha MO coefficient is  0.20613172D+03

 Orbital symmetries:
       Occupied  (A) (A) (A) (A) (A) (A) (A) (A) (A) (A) (A) (A)
                 (A) (A) (A) (A) (A) (A) (A) (A) (A) (A) (A) (A)
                 (A) (A) (A) (A) (A) (A) (A) (A) (A) (A) (A) (A)
                 (A) (A) (A) (A) (A) (A) (A) (A) (A) (A) (A) (A)
                 (A) (A) (A) (A) (A) (A) (A) (A) (A) (A) (A) (A)
                 (A) (A) (A) (A) (A) (A) (A) (A) (A) (A) (A) (A)
                 (A) (A) (A) (A) (A)
       Virtual   (A) (A) (A) (A) (A) (A) (A) (A) (A) (A) (A) (A)
                 (A) (A) (A) (A) (A) (A) (A) (A) (A) (A) (A) (A)
                 (A) (A) (A) (A) (A) (A) (A) (A) (A) (A) (A) (A)
                 (A) (A) (A) (A) (A) (A) (A) (A) (A) (A) (A) (A)
                 (A) (A) (A) (A) (A) (A) (A) (A) (A) (A) (A) (A)
                 (A) (A) (A) (A) (A) (A) (A) (A) (A) (A) (A) (A)
                 (A) (A) (A) (A) (A) (A) (A) (A) (A) (A) (A) (A)
                 (A) (A) (A) (A) (A) (A) (A) (A) (A) (A) (A) (A)
                 (A) (A) (A) (A) (A) (A) (A) (A) (A) (A) (A) (A)
                 (A) (A) (A) (A) (A) (A) (A) (A) (A) (A) (A) (A)
                 (A) (A) (A) (A) (A) (A) (A) (A) (A) (A) (A) (A)
                 (A) (A) (A) (A) (A) (A) (A) (A) (A) (A) (A) (A)
                 (A) (A) (A) (A) (A) (A) (A) (A) (A) (A) (A) (A)
                 (A) (A) (A) (A) (A) (A) (A) (A) (A) (A) (A) (A)
                 (A) (A) (A) (A) (A) (A) (A) (A) (A) (A) (A) (A)
                 (A) (A) (A) (A) (A) (A) (A) (A) (A) (A) (A) (A)
                 (A) (A) (A) (A) (A) (A) (A) (A) (A) (A) (A) (A)
                 (A) (A) (A) (A) (A) (A) (A) (A) (A) (A) (A) (A)
                 (A) (A) (A) (A) (A) (A) (A) (A) (A) (A) (A) (A)
                 (A) (A) (A) (A) (A) (A) (A) (A) (A) (A) (A) (A)
                 (A) (A) (A) (A) (A) (A) (A) (A) (A) (A) (A) (A)
                 (A) (A) (A) (A) (A) (A) (A) (A) (A) (A) (A) (A)
                 (A) (A) (A) (A) (A) (A) (A) (A) (A) (A) (A) (A)
                 (A) (A) (A) (A) (A) (A) (A) (A) (A) (A) (A) (A)
                 (A) (A) (A) (A) (A) (A) (A) (A) (A) (A) (A) (A)
                 (A) (A) (A) (A) (A) (A) (A) (A) (A) (A) (A) (A)
                 (A) (A) (A) (A) (A) (A) (A) (A) (A) (A) (A) (A)
                 (A) (A) (A) (A) (A) (A) (A) (A) (A) (A) (A) (A)
                 (A) (A) (A) (A) (A) (A) (A) (A) (A) (A) (A) (A)
                 (A) (A) (A) (A) (A) (A) (A) (A) (A) (A) (A) (A)
                 (A) (A) (A) (A) (A) (A) (A) (A) (A) (A) (A) (A)
                 (A) (A) (A) (A) (A) (A) (A) (A) (A) (A) (A) (A)
                 (A) (A) (A) (A) (A) (A) (A) (A) (A) (A) (A) (A)
                 (A) (A) (A) (A) (A) (A) (A) (A) (A) (A) (A) (A)
                 (A) (A) (A) (A) (A) (A) (A) (A) (A) (A) (A) (A)
    24 initial guesses have been made.
 Convergence on wavefunction:    0.001000000000000
 Iteration     1 Dimension    24 NMult     0 NNew     24
 CISAX will form    24 AO SS matrices at one time.
 New state      1 was old state      2
 New state      2 was old state     14
 New state      3 was old state      1
 New state      4 was old state     18
 New state      5 was old state      4
 New state      6 was old state      3
 New state      7 was old state     24
 New state      8 was old state      6
 New state      9 was old state      5
 New state     10 was old state     16
 New state     11 was old state      8
 New state     12 was old state      7
 Vector   5 SDiff=1.59D+01 TDiff=3.38D+01 assumed to be singlet.
 Vector  11 SDiff=1.50D+01 TDiff=2.39D+01 assumed to be singlet.
 Iteration     2 Dimension    36 NMult    24 NNew     12
 New state      3 was old state      4
 New state      4 was old state      3
 New state      5 was old state      6
 New state      6 was old state      9
 Iteration     3 Dimension    48 NMult    36 NNew     12
 Iteration     4 Dimension    60 NMult    48 NNew     12
 Iteration     5 Dimension    72 NMult    60 NNew     12
 Iteration     6 Dimension    82 NMult    72 NNew     10
 ***********************************************************************
 Excited states from <AA,BB:AA,BB> singles matrix:
 ***********************************************************************
 
 Ground to excited state transition densities written to RWF  633
 Ground to excited state transition electric dipole moments (Au):
       state          X           Y           Z        Dip. S.      Osc.
         1         0.0000      0.0000     -0.0000      0.0000      0.0000
         2        -0.0000      0.0000      0.0000      0.0000      0.0000
         3         0.0000     -0.0000      0.0000      0.0000      0.0000
         4         0.7909     -0.4116     -0.4854      1.0305      0.1026
         5         0.0466      0.0462      0.0661      0.0087      0.0010
         6        -0.1063      0.0626     -0.0341      0.0164      0.0019
 Ground to excited state transition velocity dipole moments (Au):
       state          X           Y           Z        Dip. S.      Osc.
         1        -0.0000      0.0000      0.0000      0.0000      0.0000
         2         0.0000     -0.0000      0.0000      0.0000      0.0000
         3        -0.0000      0.0000     -0.0000      0.0000      0.0000
         4        -0.1182      0.0579      0.0723      0.0225      0.1007
         5        -0.0072     -0.0085     -0.0107      0.0002      0.0009
         6         0.0175     -0.0105      0.0072      0.0005      0.0018
 Ground to excited state transition magnetic dipole moments (Au):
       state          X           Y           Z
         1         0.0000     -0.0000     -0.0000
         2         0.0000      0.0000      0.0000
         3        -0.0000      0.0000     -0.0000
         4        -0.0015     -0.5254      0.2861
         5        -0.0303      0.1720     -0.0706
         6        -0.0403      0.0909     -0.0685
 Ground to excited state transition velocity quadrupole moments (Au):
       state          XX          YY          ZZ          XY          XZ          YZ
         1         0.0000     -0.0000     -0.0000     -0.0000      0.0000      0.0000
         2         0.0000      0.0000      0.0000      0.0000      0.0000      0.0000
         3         0.0000      0.0000     -0.0000     -0.0000      0.0000     -0.0000
         4        -0.4685     -0.2170     -0.0139      0.3916      0.3364     -0.2491
         5         0.0978      0.0283      0.0175     -0.1378     -0.0494      0.0333
         6        -0.0621     -0.0356      0.0074      0.0418     -0.0259      0.0179
 <0|del|b> * <b|rxdel|0> + <0|del|b> * <b|delr+rdel|0>
 Rotatory Strengths (R) in cgs (10**-40 erg-esu-cm/Gauss)
       state          XX          YY          ZZ    R(velocity)    E-M Angle
         1        -0.0000     -0.0000     -0.0000     -0.0000       90.00
         2         0.0000      0.0000     -0.0000      0.0000       90.00
         3         0.0000      0.0000     -0.0000      0.0000       90.00
         4        -2.0487     52.0779    -95.2138    -15.0615       96.10
         5         0.7082     -1.5322     -1.2044     -0.6762       99.67
         6        -2.8454     -2.3928     -3.4178     -2.8853      145.48
 1/2[<0|r|b>*<b|rxdel|0> + (<0|rxdel|b>*<b|r|0>)*]
 Rotatory Strengths (R) in cgs (10**-40 erg-esu-cm/Gauss)
       state          XX          YY          ZZ     R(length)
         1        -0.0000      0.0000     -0.0000     -0.0000
         2         0.0000     -0.0000     -0.0000      0.0000
         3         0.0000      0.0000      0.0000      0.0000
         4         0.8477   -152.9142     98.1969    -17.9565
         5         0.9990     -5.6204      3.3015     -0.4400
         6        -3.0315     -4.0217     -1.6524     -2.9019
  1/2[<0|del|b>*<b|r|0> + (<0|r|b>*<b|del|0>)*] (Au)
       state          X           Y           Z        Dip. S.   Osc.(frdel)
         1        -0.0000      0.0000     -0.0000      0.0000      0.0000
         2        -0.0000     -0.0000      0.0000      0.0000      0.0000
         3        -0.0000     -0.0000     -0.0000      0.0000      0.0000
         4        -0.0935     -0.0238     -0.0351      0.1524      0.1016
         5        -0.0003     -0.0004     -0.0007      0.0014      0.0010
         6        -0.0019     -0.0007     -0.0002      0.0028      0.0018

 Excitation energies and oscillator strengths:
 
 Excited State   1:      Triplet-A      2.6349 eV  470.55 nm  f=0.0000  <S**2>=2.000
      73 -> 78        -0.24957
      77 -> 78         0.62907
      77 -> 81         0.10501
 This state for optimization and/or second-order correction.
 Total Energy, E(TD-HF/TD-DFT) =  -955.395011588    
 Copying the excited state density for this state as the 1-particle RhoCI density.
 
 Excited State   2:      Triplet-A      3.6763 eV  337.25 nm  f=0.0000  <S**2>=2.000
      73 -> 78         0.53303
      74 -> 78         0.18510
      77 -> 78         0.15895
      77 -> 81         0.29998
      77 -> 85         0.13241
 
 Excited State   3:      Triplet-A      3.7189 eV  333.39 nm  f=0.0000  <S**2>=2.000
      75 -> 80        -0.44015
      76 -> 79         0.51249
 
 Excited State   4:      Singlet-A      4.0627 eV  305.18 nm  f=0.1026  <S**2>=0.000
      73 -> 78         0.11217
      77 -> 78         0.68969
 
 Excited State   5:      Singlet-A      4.6421 eV  267.09 nm  f=0.0010  <S**2>=0.000
      76 -> 78         0.69955
 
 Excited State   6:      Singlet-A      4.7852 eV  259.10 nm  f=0.0019  <S**2>=0.000
      74 -> 78         0.10053
      75 -> 78         0.69690
 SavETr:  write IOETrn=   770 NScale= 10 NData=  16 NLR=1 NState=    6 LETran=     118.

 **********************************************************************

            Population analysis using the SCF Density.

 **********************************************************************

 Orbital symmetries:
       Occupied  (A) (A) (A) (A) (A) (A) (A) (A) (A) (A) (A) (A)
                 (A) (A) (A) (A) (A) (A) (A) (A) (A) (A) (A) (A)
                 (A) (A) (A) (A) (A) (A) (A) (A) (A) (A) (A) (A)
                 (A) (A) (A) (A) (A) (A) (A) (A) (A) (A) (A) (A)
                 (A) (A) (A) (A) (A) (A) (A) (A) (A) (A) (A) (A)
                 (A) (A) (A) (A) (A) (A) (A) (A) (A) (A) (A) (A)
                 (A) (A) (A) (A) (A)
       Virtual   (A) (A) (A) (A) (A) (A) (A) (A) (A) (A) (A) (A)
                 (A) (A) (A) (A) (A) (A) (A) (A) (A) (A) (A) (A)
                 (A) (A) (A) (A) (A) (A) (A) (A) (A) (A) (A) (A)
                 (A) (A) (A) (A) (A) (A) (A) (A) (A) (A) (A) (A)
                 (A) (A) (A) (A) (A) (A) (A) (A) (A) (A) (A) (A)
                 (A) (A) (A) (A) (A) (A) (A) (A) (A) (A) (A) (A)
                 (A) (A) (A) (A) (A) (A) (A) (A) (A) (A) (A) (A)
                 (A) (A) (A) (A) (A) (A) (A) (A) (A) (A) (A) (A)
                 (A) (A) (A) (A) (A) (A) (A) (A) (A) (A) (A) (A)
                 (A) (A) (A) (A) (A) (A) (A) (A) (A) (A) (A) (A)
                 (A) (A) (A) (A) (A) (A) (A) (A) (A) (A) (A) (A)
                 (A) (A) (A) (A) (A) (A) (A) (A) (A) (A) (A) (A)
                 (A) (A) (A) (A) (A) (A) (A) (A) (A) (A) (A) (A)
                 (A) (A) (A) (A) (A) (A) (A) (A) (A) (A) (A) (A)
                 (A) (A) (A) (A) (A) (A) (A) (A) (A) (A) (A) (A)
                 (A) (A) (A) (A) (A) (A) (A) (A) (A) (A) (A) (A)
                 (A) (A) (A) (A) (A) (A) (A) (A) (A) (A) (A) (A)
                 (A) (A) (A) (A) (A) (A) (A) (A) (A) (A) (A) (A)
                 (A) (A) (A) (A) (A) (A) (A) (A) (A) (A) (A) (A)
                 (A) (A) (A) (A) (A) (A) (A) (A) (A) (A) (A) (A)
                 (A) (A) (A) (A) (A) (A) (A) (A) (A) (A) (A) (A)
                 (A) (A) (A) (A) (A) (A) (A) (A) (A) (A) (A) (A)
                 (A) (A) (A) (A) (A) (A) (A) (A) (A) (A) (A) (A)
                 (A) (A) (A) (A) (A) (A) (A) (A) (A) (A) (A) (A)
                 (A) (A) (A) (A) (A) (A) (A) (A) (A) (A) (A) (A)
                 (A) (A) (A) (A) (A) (A) (A) (A) (A) (A) (A) (A)
                 (A) (A) (A) (A) (A) (A) (A) (A) (A) (A) (A) (A)
                 (A) (A) (A) (A) (A) (A) (A) (A) (A) (A) (A) (A)
                 (A) (A) (A) (A) (A) (A) (A) (A) (A) (A) (A) (A)
                 (A) (A) (A) (A) (A) (A) (A) (A) (A) (A) (A) (A)
                 (A) (A) (A) (A) (A) (A) (A) (A) (A) (A) (A) (A)
                 (A) (A) (A) (A) (A) (A) (A) (A) (A) (A) (A) (A)
                 (A) (A) (A) (A) (A) (A) (A) (A) (A) (A) (A) (A)
                 (A) (A) (A) (A) (A) (A) (A) (A) (A) (A) (A) (A)
                 (A) (A) (A) (A) (A) (A) (A) (A) (A) (A) (A) (A)
 The electronic state is 1-A.
 Alpha  occ. eigenvalues --  -19.23231 -19.16989 -14.36195 -14.35670 -10.34564
 Alpha  occ. eigenvalues --  -10.29305 -10.28123 -10.27133 -10.25310 -10.25059
 Alpha  occ. eigenvalues --  -10.24868 -10.24564 -10.24040 -10.24001 -10.23868
 Alpha  occ. eigenvalues --  -10.23627 -10.22710 -10.22558 -10.22499 -10.22452
 Alpha  occ. eigenvalues --  -10.22325 -10.21707  -1.14093  -1.06076  -0.92924
 Alpha  occ. eigenvalues --   -0.92794  -0.89613  -0.87764  -0.85581  -0.83800
 Alpha  occ. eigenvalues --   -0.80107  -0.77954  -0.76021  -0.75258  -0.71126
 Alpha  occ. eigenvalues --   -0.68691  -0.64910  -0.64051  -0.62812  -0.61243
 Alpha  occ. eigenvalues --   -0.58529  -0.56107  -0.55691  -0.53976  -0.51804
 Alpha  occ. eigenvalues --   -0.50910  -0.50247  -0.49055  -0.48117  -0.47529
 Alpha  occ. eigenvalues --   -0.46967  -0.46134  -0.45392  -0.45072  -0.44609
 Alpha  occ. eigenvalues --   -0.43932  -0.42861  -0.42397  -0.41601  -0.40508
 Alpha  occ. eigenvalues --   -0.39597  -0.38979  -0.38693  -0.38550  -0.38103
 Alpha  occ. eigenvalues --   -0.37662  -0.37573  -0.37379  -0.36892  -0.35331
 Alpha  occ. eigenvalues --   -0.34524  -0.34094  -0.31503  -0.30044  -0.28693
 Alpha  occ. eigenvalues --   -0.28215  -0.26208
 Alpha virt. eigenvalues --   -0.09312  -0.04957  -0.04528  -0.03751  -0.02779
 Alpha virt. eigenvalues --   -0.01329  -0.00739  -0.00364  -0.00096   0.00844
 Alpha virt. eigenvalues --    0.01001   0.01452   0.01577   0.01834   0.02269
 Alpha virt. eigenvalues --    0.02452   0.03098   0.03321   0.03778   0.04766
 Alpha virt. eigenvalues --    0.04833   0.05416   0.05627   0.05833   0.06125
 Alpha virt. eigenvalues --    0.06586   0.07222   0.07762   0.07894   0.08102
 Alpha virt. eigenvalues --    0.08626   0.08704   0.09016   0.09306   0.09490
 Alpha virt. eigenvalues --    0.09884   0.10172   0.10654   0.10873   0.11275
 Alpha virt. eigenvalues --    0.11804   0.12140   0.12476   0.12684   0.13205
 Alpha virt. eigenvalues --    0.13918   0.14107   0.14286   0.14354   0.14900
 Alpha virt. eigenvalues --    0.15219   0.15454   0.15585   0.16118   0.16525
 Alpha virt. eigenvalues --    0.16855   0.17011   0.17470   0.17940   0.18122
 Alpha virt. eigenvalues --    0.18243   0.18540   0.18932   0.19347   0.19612
 Alpha virt. eigenvalues --    0.19698   0.19838   0.19975   0.20290   0.20845
 Alpha virt. eigenvalues --    0.21068   0.21176   0.21730   0.21831   0.22057
 Alpha virt. eigenvalues --    0.22379   0.22550   0.22978   0.23423   0.23471
 Alpha virt. eigenvalues --    0.23644   0.24035   0.24368   0.24665   0.25084
 Alpha virt. eigenvalues --    0.25263   0.25691   0.25897   0.26501   0.26586
 Alpha virt. eigenvalues --    0.26650   0.27158   0.27462   0.27551   0.28072
 Alpha virt. eigenvalues --    0.28640   0.28886   0.29096   0.29229   0.29528
 Alpha virt. eigenvalues --    0.30082   0.30244   0.30606   0.31164   0.31634
 Alpha virt. eigenvalues --    0.31988   0.32581   0.33240   0.33471   0.33585
 Alpha virt. eigenvalues --    0.34044   0.34690   0.35630   0.35898   0.36219
 Alpha virt. eigenvalues --    0.36504   0.37184   0.37910   0.38357   0.38975
 Alpha virt. eigenvalues --    0.39665   0.40480   0.40786   0.41289   0.41674
 Alpha virt. eigenvalues --    0.43078   0.44519   0.45629   0.46274   0.46999
 Alpha virt. eigenvalues --    0.49406   0.51888   0.54760   0.57673   0.60643
 Alpha virt. eigenvalues --    0.63490   0.64760   0.65585   0.66308   0.67243
 Alpha virt. eigenvalues --    0.67792   0.68783   0.69002   0.69934   0.70420
 Alpha virt. eigenvalues --    0.71042   0.71514   0.72552   0.72812   0.73163
 Alpha virt. eigenvalues --    0.73748   0.74687   0.75049   0.75432   0.76334
 Alpha virt. eigenvalues --    0.77200   0.77271   0.78158   0.79607   0.80035
 Alpha virt. eigenvalues --    0.80065   0.80716   0.81228   0.81987   0.82353
 Alpha virt. eigenvalues --    0.82954   0.83662   0.84143   0.85223   0.86550
 Alpha virt. eigenvalues --    0.87843   0.88062   0.88396   0.89120   0.90603
 Alpha virt. eigenvalues --    0.91095   0.91912   0.92148   0.93039   0.93413
 Alpha virt. eigenvalues --    0.94432   0.95186   0.96033   0.97038   0.97316
 Alpha virt. eigenvalues --    0.98189   0.99105   0.99880   1.00198   1.00851
 Alpha virt. eigenvalues --    1.01878   1.03534   1.03716   1.05150   1.05339
 Alpha virt. eigenvalues --    1.05501   1.06603   1.06924   1.07507   1.08065
 Alpha virt. eigenvalues --    1.08939   1.10292   1.11680   1.11852   1.12235
 Alpha virt. eigenvalues --    1.13128   1.14203   1.15202   1.16160   1.16983
 Alpha virt. eigenvalues --    1.18088   1.19174   1.19710   1.21655   1.21990
 Alpha virt. eigenvalues --    1.22937   1.23654   1.24569   1.25979   1.28337
 Alpha virt. eigenvalues --    1.28470   1.29334   1.31025   1.32222   1.32588
 Alpha virt. eigenvalues --    1.34579   1.35744   1.36337   1.36926   1.38167
 Alpha virt. eigenvalues --    1.38755   1.39091   1.40090   1.40355   1.40878
 Alpha virt. eigenvalues --    1.42218   1.43269   1.44203   1.45190   1.46246
 Alpha virt. eigenvalues --    1.46887   1.48128   1.50736   1.51290   1.52408
 Alpha virt. eigenvalues --    1.54402   1.54698   1.56359   1.57127   1.59679
 Alpha virt. eigenvalues --    1.62121   1.62892   1.63759   1.65540   1.68176
 Alpha virt. eigenvalues --    1.68571   1.70153   1.70408   1.73679   1.74049
 Alpha virt. eigenvalues --    1.75751   1.76266   1.76664   1.78295   1.79244
 Alpha virt. eigenvalues --    1.80829   1.82299   1.83563   1.84706   1.84848
 Alpha virt. eigenvalues --    1.86162   1.86956   1.88181   1.89131   1.89845
 Alpha virt. eigenvalues --    1.90435   1.91417   1.92381   1.92877   1.93511
 Alpha virt. eigenvalues --    1.94342   1.94706   1.95908   1.96364   1.97135
 Alpha virt. eigenvalues --    1.97714   1.98929   1.99391   2.00134   2.00779
 Alpha virt. eigenvalues --    2.01265   2.01956   2.02394   2.03327   2.03859
 Alpha virt. eigenvalues --    2.05557   2.08372   2.09100   2.10084   2.11476
 Alpha virt. eigenvalues --    2.12192   2.12933   2.13543   2.13664   2.15690
 Alpha virt. eigenvalues --    2.16958   2.18671   2.20156   2.22682   2.24004
 Alpha virt. eigenvalues --    2.25098   2.25597   2.26495   2.27677   2.29299
 Alpha virt. eigenvalues --    2.29772   2.32291   2.33740   2.35916   2.36984
 Alpha virt. eigenvalues --    2.37305   2.37802   2.38579   2.38963   2.40430
 Alpha virt. eigenvalues --    2.41412   2.43971   2.44233   2.46192   2.48058
 Alpha virt. eigenvalues --    2.48700   2.49282   2.50011   2.50790   2.51204
 Alpha virt. eigenvalues --    2.52200   2.52895   2.53509   2.55372   2.56692
 Alpha virt. eigenvalues --    2.57168   2.58649   2.60527   2.61921   2.62549
 Alpha virt. eigenvalues --    2.65523   2.66514   2.67578   2.67910   2.69756
 Alpha virt. eigenvalues --    2.69982   2.71517   2.71782   2.74341   2.76139
 Alpha virt. eigenvalues --    2.77804   2.78989   2.79465   2.81118   2.81356
 Alpha virt. eigenvalues --    2.83445   2.85547   2.86578   2.87788   2.88671
 Alpha virt. eigenvalues --    2.90804   2.91463   2.93592   2.95268   2.97854
 Alpha virt. eigenvalues --    3.00196   3.01798   3.03346   3.05094   3.05765
 Alpha virt. eigenvalues --    3.15154   3.16938   3.22287   3.23295   3.24732
 Alpha virt. eigenvalues --    3.25921   3.26568   3.27652   3.28497   3.32709
 Alpha virt. eigenvalues --    3.34449   3.37335   3.38601   3.40535   3.41765
 Alpha virt. eigenvalues --    3.44680   3.47234   3.47795   3.50254   3.52574
 Alpha virt. eigenvalues --    3.54382   3.60646   3.87167   4.21679   4.26967
 Alpha virt. eigenvalues --    4.28667   4.32192   4.33525   4.35326   4.35956
 Alpha virt. eigenvalues --    4.38855   4.41201   4.44082   4.48420   4.49835
 Alpha virt. eigenvalues --    4.51109   4.52316   4.58024   4.63459   4.70893
 Alpha virt. eigenvalues --    4.74578   4.76811   4.83424   4.85249   4.95633
          Condensed to atoms (all electrons):
               1          2          3          4          5          6
     1  C    8.750272  -1.049197  -1.852930  -0.000856   1.500574  -2.378482
     2  C   -1.049197  11.331928  -1.165014   0.123837  -6.144912   3.378806
     3  C   -1.852930  -1.165014  10.059788   0.096498  -1.830946   0.814717
     4  N   -0.000856   0.123837   0.096498   7.205719   0.085658  -0.024116
     5  C    1.500574  -6.144912  -1.830946   0.085658  24.535570 -11.392963
     6  C   -2.378482   3.378806   0.814717  -0.024116 -11.392963  21.113819
     7  C    1.195737  -0.414129  -0.222251  -0.007985   1.637853  -7.091215
     8  C   -0.092904  -0.060419   0.090749  -0.002443  -0.056085   0.332955
     9  C   -0.346147   0.438879  -0.035729   0.004045   0.546009   0.181648
    10  C    0.059380  -0.183364  -0.042343   0.000254  -0.232087   0.793938
    11  C   -0.049038   0.022390   0.016518  -0.000021  -0.178689   0.071749
    12  N    0.001408  -0.001636  -0.000264   0.000000   0.005937  -0.004332
    13  C    0.104905   0.134859  -0.021290  -0.000088  -0.322499  -0.575790
    14  C   -0.210727   0.301207   0.026304   0.000378  -1.205563   1.038028
    15  C    0.036983   0.030691  -0.014857   0.000009  -0.026438  -0.189480
    16  C   -0.001762   0.007858   0.004379  -0.000027   0.027403   0.001199
    17  C    0.004991   0.012747  -0.003834   0.000015  -0.142081  -0.303181
    18  C    0.058931  -0.213531   0.011951  -0.000214   1.145765  -0.063928
    19  C   -0.280592  -0.902981   0.234520  -0.004079  -2.452512   0.569640
    20  C    0.092989   0.081758  -0.241265   0.011019   0.706250  -0.900513
    21  O   -0.003483   0.020212  -0.008046   0.000263  -0.024063   0.003710
    22  O   -0.076201  -0.021364   0.041424   0.004504  -0.337957   0.574694
    23  H    0.476118  -0.171663  -0.016757  -0.000409   0.112063  -0.078529
    24  H    0.462882  -0.101054  -0.042694   0.000397   0.064184  -0.030952
    25  H   -0.015913   0.042570  -0.008243   0.000215   0.034084  -0.084018
    26  H   -0.001029   0.001380  -0.000843   0.000006  -0.030692   0.000947
    27  H   -0.000062  -0.002076  -0.001270  -0.000016   0.012029   0.065754
    28  H   -0.000394  -0.005256  -0.000228  -0.000000   0.028773   0.083883
    29  H    0.005206   0.011489   0.001763  -0.000008  -0.015723  -0.081504
    30  H   -0.007018   0.015809   0.000758   0.000002  -0.034085   0.055452
    31  H    0.000376   0.000713   0.000089  -0.000000   0.004164  -0.043727
    32  H    0.005680  -0.008570  -0.000243  -0.000001   0.010793   0.006022
    33  H    0.000119  -0.000274  -0.000035  -0.000000   0.000406  -0.002994
    34  H   -0.000020  -0.000032   0.000004  -0.000000   0.000007   0.000953
    35  H    0.000001   0.000079   0.000001   0.000000   0.000410   0.000570
    36  H   -0.000034   0.000077  -0.000015   0.000000  -0.004548  -0.019590
    37  H    0.005496  -0.010614  -0.006399   0.000027   0.003831  -0.113127
    38  H   -0.002227   0.010735   0.008498  -0.000085  -0.042148  -0.021680
               7          8          9         10         11         12
     1  C    1.195737  -0.092904  -0.346147   0.059380  -0.049038   0.001408
     2  C   -0.414129  -0.060419   0.438879  -0.183364   0.022390  -0.001636
     3  C   -0.222251   0.090749  -0.035729  -0.042343   0.016518  -0.000264
     4  N   -0.007985  -0.002443   0.004045   0.000254  -0.000021   0.000000
     5  C    1.637853  -0.056085   0.546009  -0.232087  -0.178689   0.005937
     6  C   -7.091215   0.332955   0.181648   0.793938   0.071749  -0.004332
     7  C   14.799084  -1.282759  -2.329194  -0.493634  -0.014747   0.005290
     8  C   -1.282759   6.678144   0.107693  -0.190536   0.085467  -0.002827
     9  C   -2.329194   0.107693  10.084680  -0.620122  -0.628569  -0.057151
    10  C   -0.493634  -0.190536  -0.620122  11.115026  -3.129794   0.059314
    11  C   -0.014747   0.085467  -0.628569  -3.129794   9.303171   0.568684
    12  N    0.005290  -0.002827  -0.057151   0.059314   0.568684   6.927811
    13  C    0.614287  -0.300156  -0.500713  -4.196171   0.505669  -0.034223
    14  C   -0.235525  -0.153218  -1.645814   1.289305  -1.378351  -0.002111
    15  C    0.359823  -0.035898  -0.136857  -0.172870  -0.097075  -0.007178
    16  C    0.023263   0.000674   0.016633   0.038473  -0.001270   0.001725
    17  C    0.252635  -0.040024  -0.399453  -0.200301   0.025690  -0.003434
    18  C   -0.312486   0.187190   1.793953   1.188258   0.843616  -0.012157
    19  C    0.069620  -0.039916  -0.907567   0.302994   0.196955  -0.002427
    20  C   -0.140753   0.025366  -0.037358  -0.014760   0.019292  -0.000187
    21  O    0.021896  -0.002751   0.002511  -0.004890  -0.000303   0.000000
    22  O   -0.171098   0.011945  -0.005881   0.010652  -0.000157  -0.000009
    23  H    0.083521   0.008068  -0.057022  -0.004838   0.000228   0.000004
    24  H   -0.001834  -0.000302   0.006959  -0.000841  -0.000084   0.000001
    25  H    0.206345   0.032366   0.148709  -0.030778  -0.001214  -0.000059
    26  H   -0.039511   0.410907  -0.032236  -0.000074   0.027185  -0.000345
    27  H   -0.169758   0.498282  -0.021192  -0.012403  -0.004270  -0.000001
    28  H   -0.290335   0.535761   0.060165   0.012985   0.012161   0.000007
    29  H    0.087170  -0.006819   0.305777   0.061216  -0.048423  -0.000398
    30  H   -0.089489  -0.010873   0.356545  -0.070088   0.002998   0.002850
    31  H    0.023810   0.019105  -0.005521   0.423530   0.011888  -0.007781
    32  H   -0.017279  -0.002303  -0.018787   0.015225   0.017437  -0.001986
    33  H    0.000852  -0.000002   0.000469  -0.002402   0.000593  -0.000051
    34  H   -0.000244   0.000052  -0.000017   0.000429  -0.001167   0.000012
    35  H    0.000720   0.000143  -0.001242  -0.007094  -0.000936   0.000015
    36  H   -0.003608   0.000962   0.010927  -0.037090   0.037672  -0.001015
    37  H    0.026565  -0.024404  -0.024646  -0.012933  -0.003268   0.000027
    38  H   -0.016933   0.027638  -0.004829  -0.010884  -0.000807   0.000000
              13         14         15         16         17         18
     1  C    0.104905  -0.210727   0.036983  -0.001762   0.004991   0.058931
     2  C    0.134859   0.301207   0.030691   0.007858   0.012747  -0.213531
     3  C   -0.021290   0.026304  -0.014857   0.004379  -0.003834   0.011951
     4  N   -0.000088   0.000378   0.000009  -0.000027   0.000015  -0.000214
     5  C   -0.322499  -1.205563  -0.026438   0.027403  -0.142081   1.145765
     6  C   -0.575790   1.038028  -0.189480   0.001199  -0.303181  -0.063928
     7  C    0.614287  -0.235525   0.359823   0.023263   0.252635  -0.312486
     8  C   -0.300156  -0.153218  -0.035898   0.000674  -0.040024   0.187190
     9  C   -0.500713  -1.645814  -0.136857   0.016633  -0.399453   1.793953
    10  C   -4.196171   1.289305  -0.172870   0.038473  -0.200301   1.188258
    11  C    0.505669  -1.378351  -0.097075  -0.001270   0.025690   0.843616
    12  N   -0.034223  -0.002111  -0.007178   0.001725  -0.003434  -0.012157
    13  C   23.463415  -3.065862  -0.190617  -1.512645   0.557875  -9.064842
    14  C   -3.065862  23.186304  -0.341569   0.342015   0.978810 -13.463063
    15  C   -0.190617  -0.341569   7.152955   0.404952  -0.122838  -0.773009
    16  C   -1.512645   0.342015   0.404952   5.533011   0.351993   0.630817
    17  C    0.557875   0.978810  -0.122838   0.351993   7.287658  -2.847875
    18  C   -9.064842 -13.463063  -0.773009   0.630817  -2.847875  27.767396
    19  C   -0.044153   0.701334   0.017417   0.000371   0.212619  -0.917639
    20  C    0.057510   0.205432  -0.125800  -0.007911   0.050043  -0.169532
    21  O   -0.001326   0.004460  -0.003526   0.003311  -0.000481   0.000594
    22  O   -0.000353   0.008493   0.000778  -0.002106  -0.000593  -0.003443
    23  H   -0.006428   0.004284   0.000921  -0.000000  -0.000055  -0.000771
    24  H   -0.000131  -0.000043   0.000007   0.000006  -0.000004   0.000003
    25  H    0.005602  -0.017314   0.000218  -0.000260  -0.000580   0.004813
    26  H    0.007264  -0.000686  -0.000266  -0.000027  -0.001327  -0.007342
    27  H    0.003439  -0.003792  -0.000079  -0.000035   0.002722   0.005119
    28  H   -0.021898  -0.000591   0.002204  -0.002490  -0.014849  -0.008680
    29  H   -0.003263  -0.024230  -0.000997  -0.001293   0.004290   0.020804
    30  H    0.079578   0.039215  -0.001561   0.000294   0.000907  -0.027318
    31  H   -0.353161  -0.191270  -0.013620   0.007274   0.027937   0.361547
    32  H    0.182922  -0.008739   0.075519  -0.018463   0.001021   0.059133
    33  H    0.045977  -0.000465   0.230933   0.014503  -0.000551   0.022508
    34  H   -0.030542   0.042187  -0.014628   0.281418   0.006177   0.028276
    35  H    0.035776  -0.001558   0.010613   0.012022   0.244845   0.018031
    36  H    0.053754  -0.005442   0.006365  -0.006620   0.103287   0.130681
    37  H    0.077007  -0.050883   0.036448  -0.015815   0.028105  -0.032331
    38  H   -0.006605   0.000449  -0.001981   0.003047  -0.000167   0.012312
              19         20         21         22         23         24
     1  C   -0.280592   0.092989  -0.003483  -0.076201   0.476118   0.462882
     2  C   -0.902981   0.081758   0.020212  -0.021364  -0.171663  -0.101054
     3  C    0.234520  -0.241265  -0.008046   0.041424  -0.016757  -0.042694
     4  N   -0.004079   0.011019   0.000263   0.004504  -0.000409   0.000397
     5  C   -2.452512   0.706250  -0.024063  -0.337957   0.112063   0.064184
     6  C    0.569640  -0.900513   0.003710   0.574694  -0.078529  -0.030952
     7  C    0.069620  -0.140753   0.021896  -0.171098   0.083521  -0.001834
     8  C   -0.039916   0.025366  -0.002751   0.011945   0.008068  -0.000302
     9  C   -0.907567  -0.037358   0.002511  -0.005881  -0.057022   0.006959
    10  C    0.302994  -0.014760  -0.004890   0.010652  -0.004838  -0.000841
    11  C    0.196955   0.019292  -0.000303  -0.000157   0.000228  -0.000084
    12  N   -0.002427  -0.000187   0.000000  -0.000009   0.000004   0.000001
    13  C   -0.044153   0.057510  -0.001326  -0.000353  -0.006428  -0.000131
    14  C    0.701334   0.205432   0.004460   0.008493   0.004284  -0.000043
    15  C    0.017417  -0.125800  -0.003526   0.000778   0.000921   0.000007
    16  C    0.000371  -0.007911   0.003311  -0.002106  -0.000000   0.000006
    17  C    0.212619   0.050043  -0.000481  -0.000593  -0.000055  -0.000004
    18  C   -0.917639  -0.169532   0.000594  -0.003443  -0.000771   0.000003
    19  C    9.227801  -0.170262  -0.122764  -0.120039   0.000786  -0.001058
    20  C   -0.170262   5.836780   0.430647  -0.097968  -0.000611  -0.000041
    21  O   -0.122764   0.430647   8.183165  -0.056295   0.000006  -0.000001
    22  O   -0.120039  -0.097968  -0.056295   8.460596  -0.000301  -0.000350
    23  H    0.000786  -0.000611   0.000006  -0.000301   0.530685  -0.030572
    24  H   -0.001058  -0.000041  -0.000001  -0.000350  -0.030572   0.503730
    25  H   -0.052439   0.000496   0.000026   0.001079  -0.001686   0.000256
    26  H    0.022496  -0.000357  -0.000001   0.000024   0.000001  -0.000000
    27  H   -0.015039   0.004215   0.000008  -0.000141  -0.000001  -0.000000
    28  H   -0.046506   0.001469  -0.000020   0.000189  -0.000001   0.000000
    29  H   -0.008500  -0.003338   0.000012  -0.000319   0.002481   0.000013
    30  H    0.000883   0.000206  -0.000001   0.000073  -0.000089   0.000001
    31  H   -0.007254  -0.000956   0.000002  -0.000012   0.000001   0.000000
    32  H   -0.001778  -0.002371   0.000012  -0.000121  -0.000024  -0.000000
    33  H   -0.000751   0.003815  -0.000053  -0.000064   0.000000   0.000000
    34  H    0.000208  -0.000231  -0.000045   0.000007   0.000000   0.000000
    35  H    0.000901  -0.000988   0.000010  -0.000001   0.000000   0.000000
    36  H    0.021483   0.002481   0.000007  -0.000002   0.000000   0.000000
    37  H    0.430733  -0.006172  -0.001398   0.010999   0.000003  -0.000000
    38  H    0.372917  -0.011958  -0.002539   0.008450  -0.000001   0.000000
              25         26         27         28         29         30
     1  C   -0.015913  -0.001029  -0.000062  -0.000394   0.005206  -0.007018
     2  C    0.042570   0.001380  -0.002076  -0.005256   0.011489   0.015809
     3  C   -0.008243  -0.000843  -0.001270  -0.000228   0.001763   0.000758
     4  N    0.000215   0.000006  -0.000016  -0.000000  -0.000008   0.000002
     5  C    0.034084  -0.030692   0.012029   0.028773  -0.015723  -0.034085
     6  C   -0.084018   0.000947   0.065754   0.083883  -0.081504   0.055452
     7  C    0.206345  -0.039511  -0.169758  -0.290335   0.087170  -0.089489
     8  C    0.032366   0.410907   0.498282   0.535761  -0.006819  -0.010873
     9  C    0.148709  -0.032236  -0.021192   0.060165   0.305777   0.356545
    10  C   -0.030778  -0.000074  -0.012403   0.012985   0.061216  -0.070088
    11  C   -0.001214   0.027185  -0.004270   0.012161  -0.048423   0.002998
    12  N   -0.000059  -0.000345  -0.000001   0.000007  -0.000398   0.002850
    13  C    0.005602   0.007264   0.003439  -0.021898  -0.003263   0.079578
    14  C   -0.017314  -0.000686  -0.003792  -0.000591  -0.024230   0.039215
    15  C    0.000218  -0.000266  -0.000079   0.002204  -0.000997  -0.001561
    16  C   -0.000260  -0.000027  -0.000035  -0.002490  -0.001293   0.000294
    17  C   -0.000580  -0.001327   0.002722  -0.014849   0.004290   0.000907
    18  C    0.004813  -0.007342   0.005119  -0.008680   0.020804  -0.027318
    19  C   -0.052439   0.022496  -0.015039  -0.046506  -0.008500   0.000883
    20  C    0.000496  -0.000357   0.004215   0.001469  -0.003338   0.000206
    21  O    0.000026  -0.000001   0.000008  -0.000020   0.000012  -0.000001
    22  O    0.001079   0.000024  -0.000141   0.000189  -0.000319   0.000073
    23  H   -0.001686   0.000001  -0.000001  -0.000001   0.002481  -0.000089
    24  H    0.000256  -0.000000  -0.000000   0.000000   0.000013   0.000001
    25  H    0.608077  -0.004112  -0.005358   0.005117  -0.002917  -0.009199
    26  H   -0.004112   0.544323  -0.023695  -0.029586   0.000026   0.002539
    27  H   -0.005358  -0.023695   0.531265  -0.027828  -0.000122   0.000039
    28  H    0.005117  -0.029586  -0.027828   0.552381  -0.000069  -0.000090
    29  H   -0.002917   0.000026  -0.000122  -0.000069   0.579944  -0.030550
    30  H   -0.009199   0.002539   0.000039  -0.000090  -0.030550   0.565249
    31  H    0.000117  -0.000792   0.000072   0.000023   0.004794  -0.003442
    32  H    0.000003   0.000000   0.000000  -0.000002   0.001184   0.000001
    33  H    0.000000  -0.000000   0.000000   0.000000   0.000004  -0.000000
    34  H   -0.000000   0.000000  -0.000000  -0.000000  -0.000000   0.000000
    35  H    0.000000   0.000000  -0.000000  -0.000002   0.000000  -0.000000
    36  H    0.000001  -0.000000   0.000010   0.000570  -0.000011  -0.000007
    37  H   -0.000130  -0.000002   0.000113  -0.000212   0.000057  -0.000010
    38  H   -0.000020   0.000039  -0.000229  -0.000543  -0.000001   0.000004
              31         32         33         34         35         36
     1  C    0.000376   0.005680   0.000119  -0.000020   0.000001  -0.000034
     2  C    0.000713  -0.008570  -0.000274  -0.000032   0.000079   0.000077
     3  C    0.000089  -0.000243  -0.000035   0.000004   0.000001  -0.000015
     4  N   -0.000000  -0.000001  -0.000000  -0.000000   0.000000   0.000000
     5  C    0.004164   0.010793   0.000406   0.000007   0.000410  -0.004548
     6  C   -0.043727   0.006022  -0.002994   0.000953   0.000570  -0.019590
     7  C    0.023810  -0.017279   0.000852  -0.000244   0.000720  -0.003608
     8  C    0.019105  -0.002303  -0.000002   0.000052   0.000143   0.000962
     9  C   -0.005521  -0.018787   0.000469  -0.000017  -0.001242   0.010927
    10  C    0.423530   0.015225  -0.002402   0.000429  -0.007094  -0.037090
    11  C    0.011888   0.017437   0.000593  -0.001167  -0.000936   0.037672
    12  N   -0.007781  -0.001986  -0.000051   0.000012   0.000015  -0.001015
    13  C   -0.353161   0.182922   0.045977  -0.030542   0.035776   0.053754
    14  C   -0.191270  -0.008739  -0.000465   0.042187  -0.001558  -0.005442
    15  C   -0.013620   0.075519   0.230933  -0.014628   0.010613   0.006365
    16  C    0.007274  -0.018463   0.014503   0.281418   0.012022  -0.006620
    17  C    0.027937   0.001021  -0.000551   0.006177   0.244845   0.103287
    18  C    0.361547   0.059133   0.022508   0.028276   0.018031   0.130681
    19  C   -0.007254  -0.001778  -0.000751   0.000208   0.000901   0.021483
    20  C   -0.000956  -0.002371   0.003815  -0.000231  -0.000988   0.002481
    21  O    0.000002   0.000012  -0.000053  -0.000045   0.000010   0.000007
    22  O   -0.000012  -0.000121  -0.000064   0.000007  -0.000001  -0.000002
    23  H    0.000001  -0.000024   0.000000   0.000000   0.000000   0.000000
    24  H    0.000000  -0.000000   0.000000   0.000000   0.000000   0.000000
    25  H    0.000117   0.000003   0.000000  -0.000000   0.000000   0.000001
    26  H   -0.000792   0.000000  -0.000000   0.000000   0.000000  -0.000000
    27  H    0.000072   0.000000   0.000000  -0.000000  -0.000000   0.000010
    28  H    0.000023  -0.000002   0.000000  -0.000000  -0.000002   0.000570
    29  H    0.004794   0.001184   0.000004  -0.000000   0.000000  -0.000011
    30  H   -0.003442   0.000001  -0.000000   0.000000  -0.000000  -0.000007
    31  H    0.565933  -0.000042   0.000002  -0.000000  -0.000009   0.004718
    32  H   -0.000042   0.591185  -0.006355  -0.000171   0.000015  -0.000162
    33  H    0.000002  -0.006355   0.565323  -0.005394  -0.000166   0.000015
    34  H   -0.000000  -0.000171  -0.005394   0.562499  -0.005562  -0.000165
    35  H   -0.000009   0.000015  -0.000166  -0.005562   0.566363  -0.005911
    36  H    0.004718  -0.000162   0.000015  -0.000165  -0.005911   0.593982
    37  H    0.000009   0.000031  -0.000027   0.000013   0.000008  -0.000105
    38  H    0.000007   0.000002   0.000000   0.000000   0.000002  -0.000008
              37         38
     1  C    0.005496  -0.002227
     2  C   -0.010614   0.010735
     3  C   -0.006399   0.008498
     4  N    0.000027  -0.000085
     5  C    0.003831  -0.042148
     6  C   -0.113127  -0.021680
     7  C    0.026565  -0.016933
     8  C   -0.024404   0.027638
     9  C   -0.024646  -0.004829
    10  C   -0.012933  -0.010884
    11  C   -0.003268  -0.000807
    12  N    0.000027   0.000000
    13  C    0.077007  -0.006605
    14  C   -0.050883   0.000449
    15  C    0.036448  -0.001981
    16  C   -0.015815   0.003047
    17  C    0.028105  -0.000167
    18  C   -0.032331   0.012312
    19  C    0.430733   0.372917
    20  C   -0.006172  -0.011958
    21  O   -0.001398  -0.002539
    22  O    0.010999   0.008450
    23  H    0.000003  -0.000001
    24  H   -0.000000   0.000000
    25  H   -0.000130  -0.000020
    26  H   -0.000002   0.000039
    27  H    0.000113  -0.000229
    28  H   -0.000212  -0.000543
    29  H    0.000057  -0.000001
    30  H   -0.000010   0.000004
    31  H    0.000009   0.000007
    32  H    0.000031   0.000002
    33  H   -0.000027   0.000000
    34  H    0.000013   0.000000
    35  H    0.000008   0.000002
    36  H   -0.000105  -0.000008
    37  H    0.487279  -0.022313
    38  H   -0.022313   0.506072
 Mulliken charges:
               1
     1  C   -0.393031
     2  C    0.488063
     3  C    0.107535
     4  N   -0.492498
     5  C    0.012229
     6  C    0.311636
     7  C   -0.063703
     8  C   -0.748828
     9  C   -0.249557
    10  C    0.299320
    11  C   -0.231180
    12  N   -0.433515
    13  C    0.322920
    14  C   -0.161389
    15  C   -0.095692
    16  C   -0.135917
    17  C   -0.072740
    18  C   -0.373540
    19  C   -0.285424
    20  C    0.403566
    21  O   -0.438870
    22  O   -0.239132
    23  H    0.150591
    24  H    0.171522
    25  H    0.144144
    26  H    0.155788
    27  H    0.164303
    28  H    0.153892
    29  H    0.142253
    30  H    0.160416
    31  H    0.171478
    32  H    0.121211
    33  H    0.134065
    34  H    0.135976
    35  H    0.132943
    36  H    0.117340
    37  H    0.218038
    38  H    0.195787
 Sum of Mulliken charges =  -0.00000
 Mulliken charges with hydrogens summed into heavy atoms:
               1
     1  C   -0.070917
     2  C    0.488063
     3  C    0.107535
     4  N   -0.492498
     5  C    0.012229
     6  C    0.311636
     7  C    0.080442
     8  C   -0.274846
     9  C    0.053113
    10  C    0.470797
    11  C   -0.231180
    12  N   -0.433515
    13  C    0.322920
    14  C   -0.040179
    15  C    0.038373
    16  C    0.000060
    17  C    0.060203
    18  C   -0.256200
    19  C    0.128401
    20  C    0.403566
    21  O   -0.438870
    22  O   -0.239132
 Electronic spatial extent (au):  <R**2>=           6727.4870
 Charge=              0.0000 electrons
 Dipole moment (field-independent basis, Debye):
    X=             -3.4649    Y=             -1.7681    Z=              2.2766  Tot=              4.5072
 Quadrupole moment (field-independent basis, Debye-Ang):
   XX=           -177.1868   YY=           -143.6453   ZZ=           -120.5985
   XY=            -30.4609   XZ=             -8.0789   YZ=             -4.4457
 Traceless Quadrupole moment (field-independent basis, Debye-Ang):
   XX=            -30.0432   YY=              3.4982   ZZ=             26.5450
   XY=            -30.4609   XZ=             -8.0789   YZ=             -4.4457
 Octapole moment (field-independent basis, Debye-Ang**2):
  XXX=           -135.2813  YYY=              6.1641  ZZZ=              6.0779  XYY=             22.8558
  XXY=             57.4003  XXZ=             41.5701  XZZ=              5.4647  YZZ=             12.3247
  YYZ=              7.1777  XYZ=             33.7280
 Hexadecapole moment (field-independent basis, Debye-Ang**3):
 XXXX=          -7569.1463 YYYY=          -2887.3802 ZZZZ=           -972.8710 XXXY=           -311.4983
 XXXZ=           -115.3309 YYYX=           -389.7327 YYYZ=            -86.2984 ZZZX=             -5.3296
 ZZZY=            -14.7115 XXYY=          -1570.4666 XXZZ=          -1119.1566 YYZZ=           -580.7909
 XXYZ=            -43.8434 YYXZ=            -96.4309 ZZXY=            -40.8118
 N-N= 1.685835718254D+03 E-N=-5.587540438406D+03  KE= 9.464288022838D+02
 Unable to Open any file for archive entry.
 1\1\GINC-N1\SP\RB3LYP TD-FC\6-31+G(d,p)\C18H16N2O2\HPCMGAC13\25-Aug-20
 25\0\\# td=(50-50,nstates=3) b3lyp/6-31+g(d,p) geom=connectivity\\Titl
 e Card Required\\0,1\C,0,-2.775765,2.052962,-1.318811\C,0,-3.123451,0.
 911732,-0.691279\C,0,-4.522471,0.599798,-0.524288\N,0,-5.653393,0.3696
 52,-0.382463\C,0,-2.168573,-0.05625,-0.12829\C,0,-1.037006,0.094968,0.
 59231\C,0,-0.433195,1.398527,1.064082\C,0,-0.029196,1.340235,2.549658\
 C,0,0.691111,1.999004,0.163808\C,0,2.155638,1.50316,0.358098\C,0,3.048
 662,2.431932,-0.36177\N,0,3.731541,3.174363,-0.938289\C,0,2.451145,0.0
 65422,-0.070404\C,0,2.164122,-0.3779,-1.36904\C,0,2.441331,-1.693151,-
 1.7456\C,0,3.018539,-2.580635,-0.831365\C,0,3.325266,-2.141418,0.45813
 \C,0,3.044158,-0.824076,0.833746\C,0,-0.581721,-1.293137,0.972777\C,0,
 -1.628013,-2.197757,0.343325\O,0,-1.717846,-3.394324,0.344613\O,0,-2.5
 46605,-1.390561,-0.307772\H,0,-1.737676,2.298468,-1.505766\H,0,-3.5305
 21,2.747707,-1.669444\H,0,-1.241987,2.136611,0.986963\H,0,0.346474,2.3
 13192,2.884095\H,0,-0.89077,1.084667,3.174048\H,0,0.750224,0.595398,2.
 73949\H,0,0.421097,1.878194,-0.88975\H,0,0.70472,3.07798,0.357019\H,0,
 2.415303,1.599862,1.418768\H,0,1.730206,0.304459,-2.094608\H,0,2.20945
 2,-2.024561,-2.753265\H,0,3.229963,-3.604243,-1.124638\H,0,3.781358,-2
 .820223,1.172476\H,0,3.290039,-0.487993,1.838158\H,0,0.40631,-1.567211
 ,0.590431\H,0,-0.559112,-1.461831,2.056025\\Version=ES64L-G16RevC.02\S
 tate=1-A\HF=-955.4918416\RMSD=2.106e-09\PG=C01 [X(C18H16N2O2)]\\@
 The archive entry for this job was punched.


 IF IT'S NOT TRUE, IT'S WELL INVENTED -- DANTE
 Job cpu time:       0 days  2 hours 24 minutes 28.5 seconds.
 Elapsed time:       0 days  0 hours  9 minutes 15.6 seconds.
 File lengths (MBytes):  RWF=   1332 Int=      0 D2E=      0 Chk=     64 Scr=      2
 Normal termination of Gaussian 16 at Mon Aug 25 14:55:06 2025.
