 Entering Gaussian System, Link 0=g16
 Input=M759E.gjf
 Output=M759E.log
 Initial command:
 /hpc/softwares/Gaussian/g16/l1.exe "/hpc/home/hpcmgac13/pbs.13421.admin1.x8z/Gau-3286576.inp" -scrdir="/hpc/home/hpcmgac13/pbs.13421.admin1.x8z/"
 Default linda workers: n2
 Default is to use  16 SMP processors on each worker.
 Entering Link 1 = /hpc/softwares/Gaussian/g16/l1.exe PID=   3286577.
  
 Copyright (c) 1988-2021, Gaussian, Inc.  All Rights Reserved.
  
 This is part of the Gaussian(R) 16 program.  It is based on
 the Gaussian(R) 09 system (copyright 2009, Gaussian, Inc.),
 the Gaussian(R) 03 system (copyright 2003, Gaussian, Inc.),
 the Gaussian(R) 98 system (copyright 1998, Gaussian, Inc.),
 the Gaussian(R) 94 system (copyright 1995, Gaussian, Inc.),
 the Gaussian 92(TM) system (copyright 1992, Gaussian, Inc.),
 the Gaussian 90(TM) system (copyright 1990, Gaussian, Inc.),
 the Gaussian 88(TM) system (copyright 1988, Gaussian, Inc.),
 the Gaussian 86(TM) system (copyright 1986, Carnegie Mellon
 University), and the Gaussian 82(TM) system (copyright 1983,
 Carnegie Mellon University). Gaussian is a federally registered
 trademark of Gaussian, Inc.
  
 This software contains proprietary and confidential information,
 including trade secrets, belonging to Gaussian, Inc.
  
 This software is provided under written license and may be
 used, copied, transmitted, or stored only in accord with that
 written license.
  
 The following legend is applicable only to US Government
 contracts under FAR:
  
                    RESTRICTED RIGHTS LEGEND
  
 Use, reproduction and disclosure by the US Government is
 subject to restrictions as set forth in subparagraphs (a)
 and (c) of the Commercial Computer Software - Restricted
 Rights clause in FAR 52.227-19.
  
 Gaussian, Inc.
 340 Quinnipiac St., Bldg. 40, Wallingford CT 06492
  
  
 ---------------------------------------------------------------
 Warning -- This program may not be used in any manner that
 competes with the business of Gaussian, Inc. or will provide
 assistance to any competitor of Gaussian, Inc.  The licensee
 of this program is prohibited from giving any competitor of
 Gaussian, Inc. access to this program.  By using this program,
 the user acknowledges that Gaussian, Inc. is engaged in the
 business of creating and licensing software in the field of
 computational chemistry and represents and warrants to the
 licensee that it is not a competitor of Gaussian, Inc. and that
 it will not use this program in any manner prohibited above.
 ---------------------------------------------------------------
  

 Cite this work as:
 Gaussian 16, Revision C.02,
 M. J. Frisch, G. W. Trucks, H. B. Schlegel, G. E. Scuseria, 
 M. A. Robb, J. R. Cheeseman, G. Scalmani, V. Barone, 
 G. A. Petersson, H. Nakatsuji, X. Li, M. Caricato, A. V. Marenich, 
 J. Bloino, B. G. Janesko, R. Gomperts, B. Mennucci, H. P. Hratchian, 
 J. V. Ortiz, A. F. Izmaylov, J. L. Sonnenberg, D. Williams-Young, 
 F. Ding, F. Lipparini, F. Egidi, J. Goings, B. Peng, A. Petrone, 
 T. Henderson, D. Ranasinghe, V. G. Zakrzewski, J. Gao, N. Rega, 
 G. Zheng, W. Liang, M. Hada, M. Ehara, K. Toyota, R. Fukuda, 
 J. Hasegawa, M. Ishida, T. Nakajima, Y. Honda, O. Kitao, H. Nakai, 
 T. Vreven, K. Throssell, J. A. Montgomery, Jr., J. E. Peralta, 
 F. Ogliaro, M. J. Bearpark, J. J. Heyd, E. N. Brothers, K. N. Kudin, 
 V. N. Staroverov, T. A. Keith, R. Kobayashi, J. Normand, 
 K. Raghavachari, A. P. Rendell, J. C. Burant, S. S. Iyengar, 
 J. Tomasi, M. Cossi, J. M. Millam, M. Klene, C. Adamo, R. Cammi, 
 J. W. Ochterski, R. L. Martin, K. Morokuma, O. Farkas, 
 J. B. Foresman, and D. J. Fox, Gaussian, Inc., Wallingford CT, 2019.
 
 ******************************************
 Gaussian 16:  ES64L-G16RevC.02  7-Dec-2021
                25-Aug-2025 
 ******************************************
 SetLPE:    new flags="-opt 'Tsnet.Node.lindarsharg: ssh'  -nodelist 'n2.head.cm.mguif.local' -env GAUSS_MDEF=4294967296 -env GAUSS_EXEDIR="/hpc/softwares/Gaussian/g16/bsd:/hpc/softwares/Gaussian/g16""
 Will use up to    1 processors via Linda.
 ----------------------------------------------------------
 # td=(50-50,nstates=3) b3lyp/6-31+g(d,p) geom=connectivity
 ----------------------------------------------------------
 1/38=1,57=2,172=1/1;
 2/12=2,17=6,18=5,40=1/2;
 3/5=1,6=6,7=111,11=9,25=1,30=1,74=-5/1,2,3,8;
 4//1;
 5/5=2,38=5/2;
 8/6=1,10=2,108=3/1;
 9/41=3,42=1,48=2,70=2/14;
 6/7=2,8=2,9=2,10=2/1;
 99/5=1,9=1/99;
 -------------------
 Title Card Required
 -------------------
 Symbolic Z-matrix:
 Charge =  0 Multiplicity = 1
 C                    -0.8432   -1.84118   2.70379 
 C                    -2.07587  -1.54942   2.24546 
 C                    -3.19546  -1.54493   3.15392 
 N                    -4.08769  -1.52881   3.89905 
 C                    -2.3691   -1.21843   0.84137 
 C                    -1.73769  -0.42302  -0.04908 
 C                    -0.54709   0.46777   0.25482 
 C                    -0.65908   1.82213  -0.46072 
 C                    -0.28788   1.9624   -1.84409 
 C                    -0.42413   3.17764  -2.42519 
 O                    -0.88906   4.25955  -1.77595 
 C                    -1.278     4.20672  -0.41613 
 O                    -1.68475   5.22506   0.08901 
 C                    -1.13219   2.90707   0.21497 
 C                     0.86859  -0.10378   0.08515 
 C                     1.32467  -1.11177  -0.72711 
 N                     0.37961  -1.83562  -1.61113 
 O                     0.12125  -1.30607  -2.69075 
 O                    -0.05213  -2.90831  -1.21279 
 C                     2.70518  -1.54776  -0.81156 
 Cl                    3.12845  -2.81597  -1.92411 
 C                     3.67959  -0.96647  -0.04624 
 C                     3.24553   0.06032   0.82017 
 C                     1.89482   0.49448   0.90297 
 N                     1.74657   1.45361   1.80405 
 O                     2.98638   1.6756    2.32816 
 N                     3.95029   0.78799   1.70325 
 O                     5.12269   0.83479   2.04073 
 C                    -2.58622  -0.40535  -1.29944 
 C                    -3.74376  -1.32507  -0.94603 
 O                    -4.69108  -1.66255  -1.59422 
 O                    -3.5393   -1.78106   0.35522 
 H                     0.00144  -1.90813   2.02869 
 H                    -0.67206  -2.04473   3.75472 
 H                    -0.60535   0.68968   1.32674 
 H                     0.08678   1.13029  -2.42661 
 H                    -0.17708   3.39806  -3.4576 
 H                    -1.41152   2.86379   1.26155 
 H                     4.71749  -1.27176  -0.0969 
 H                    -2.97393   0.59116  -1.54135 
 H                    -2.09526  -0.78142  -2.20328 
 
                          Input orientation:                          
 ---------------------------------------------------------------------
 Center     Atomic      Atomic             Coordinates (Angstroms)
 Number     Number       Type             X           Y           Z
 ---------------------------------------------------------------------
      1          6           0       -0.843204   -1.841176    2.703785
      2          6           0       -2.075868   -1.549415    2.245462
      3          6           0       -3.195461   -1.544929    3.153917
      4          7           0       -4.087693   -1.528808    3.899052
      5          6           0       -2.369100   -1.218431    0.841370
      6          6           0       -1.737690   -0.423017   -0.049083
      7          6           0       -0.547088    0.467768    0.254823
      8          6           0       -0.659079    1.822130   -0.460719
      9          6           0       -0.287876    1.962404   -1.844090
     10          6           0       -0.424129    3.177637   -2.425189
     11          8           0       -0.889063    4.259549   -1.775945
     12          6           0       -1.277998    4.206723   -0.416132
     13          8           0       -1.684752    5.225060    0.089010
     14          6           0       -1.132194    2.907074    0.214969
     15          6           0        0.868594   -0.103780    0.085153
     16          6           0        1.324669   -1.111768   -0.727112
     17          7           0        0.379608   -1.835618   -1.611134
     18          8           0        0.121252   -1.306065   -2.690752
     19          8           0       -0.052130   -2.908305   -1.212790
     20          6           0        2.705184   -1.547761   -0.811563
     21         17           0        3.128450   -2.815972   -1.924114
     22          6           0        3.679586   -0.966471   -0.046240
     23          6           0        3.245529    0.060316    0.820172
     24          6           0        1.894822    0.494479    0.902967
     25          7           0        1.746567    1.453608    1.804051
     26          8           0        2.986384    1.675601    2.328159
     27          7           0        3.950287    0.787985    1.703254
     28          8           0        5.122694    0.834788    2.040734
     29          6           0       -2.586215   -0.405346   -1.299438
     30          6           0       -3.743755   -1.325066   -0.946033
     31          8           0       -4.691076   -1.662545   -1.594224
     32          8           0       -3.539299   -1.781062    0.355223
     33          1           0        0.001444   -1.908126    2.028694
     34          1           0       -0.672060   -2.044732    3.754724
     35          1           0       -0.605346    0.689681    1.326735
     36          1           0        0.086782    1.130292   -2.426614
     37          1           0       -0.177076    3.398059   -3.457599
     38          1           0       -1.411521    2.863790    1.261545
     39          1           0        4.717492   -1.271759   -0.096902
     40          1           0       -2.973934    0.591160   -1.541352
     41          1           0       -2.095259   -0.781415   -2.203276
 ---------------------------------------------------------------------
                    Distance matrix (angstroms):
                    1          2          3          4          5
     1  C    0.000000
     2  C    1.347088   0.000000
     3  C    2.413192   1.441804   0.000000
     4  N    3.471735   2.604270   1.162568   0.000000
     5  C    2.486918   1.472077   2.477367   3.521266   0.000000
     6  C    3.223284   2.578386   3.693642   4.725786   1.350655
     7  C    3.378805   3.220068   4.412434   5.459176   2.550889
     8  C    4.844357   4.549508   5.553009   6.480107   3.723522
     9  C    5.954727   5.679280   6.762803   7.720806   4.654127
    10  C    7.188218   6.847499   7.817246   8.693006   5.811948
    11  O    7.568945   7.164097   7.957071   8.714465   6.248929
    12  C    6.819092   6.391698   7.035866   7.707887   5.674867
    13  O    7.581355   7.120166   7.583446   8.118207   6.523263
    14  C    5.368761   4.987356   5.719687   6.479544   4.352253
    15  C    3.578551   3.927678   5.292520   6.414149   3.506704
    16  C    4.123441   4.537773   5.973407   7.132249   4.014404
    17  N    4.484844   4.580896   5.964170   7.100216   3.735116
    18  O    5.506137   5.408582   6.724418   7.822426   4.322663
    19  O    4.135713   4.231029   5.550446   6.657305   3.527548
    20  C    5.003481   5.674845   7.109335   8.266404   5.346869
    21  Cl   6.175898   6.787817   8.209373   9.361558   6.357916
    22  C    5.365014   6.222296   7.605386   8.729958   6.118655
    23  C    4.886861   5.739334   7.036301   8.110546   5.758446
    24  C    4.024303   4.663279   5.927642   6.990043   4.595529
    25  N    4.286261   4.880984   5.936076   6.879130   5.000526
    26  O    5.212922   6.002830   7.019181   7.923289   6.266352
    27  N    5.557977   6.486291   7.655627   8.648594   6.686045
    28  O    6.572089   7.585884   8.723184   9.688713   7.860099
    29  C    4.596247   3.759743   4.637047   5.526382   2.300284
    30  C    4.690494   3.608022   4.142289   4.861548   2.257400
    31  O    5.771560   4.647074   4.979512   5.527933   3.394249
    32  O    3.576071   2.401727   2.829606   3.594870   1.386455
    33  H    1.083356   2.119171   3.408554   4.512556   2.739507
    34  H    1.084066   2.119879   2.641652   3.457392   3.471361
    35  H    2.891034   2.831968   3.878243   4.864694   2.643350
    36  H    6.001291   5.803980   7.005159   8.031881   4.714613
    37  H    8.115169   7.785102   8.789535   9.679218   6.678180
    38  H    4.953761   4.570102   5.118625   5.780420   4.214028
    39  H    6.252154   7.191210   8.559046   9.672901   7.148635
    40  H    5.336427   4.441683   5.163090   5.944133   3.052508
    41  H    5.173972   4.514584   5.522039   6.462724   3.088016
                    6          7          8          9         10
     6  C    0.000000
     7  C    1.517692   0.000000
     8  C    2.524585   1.535851   0.000000
     9  C    3.318771   2.589703   1.439161   0.000000
    10  C    4.509549   3.813263   2.398279   1.353895   0.000000
    11  O    5.062474   4.314924   2.779159   2.375488   1.344699
    12  C    4.666962   3.868358   2.464007   2.838375   2.413384
    13  O    5.650013   4.894242   3.596406   4.041418   3.478837
    14  C    3.394975   2.508815   1.362900   2.417643   2.746815
    15  C    2.629191   1.536102   2.518112   3.054262   4.329047
    16  C    3.211253   2.638675   3.551616   3.646707   4.933635
    17  N    2.986368   3.105825   3.972587   3.863260   5.142121
    18  O    3.348709   3.502795   3.920149   3.401046   4.524549
    19  O    3.220556   3.714396   4.828148   4.917105   6.216670
    20  C    4.646026   3.972003   4.774675   4.727132   5.892858
    21  Cl   5.737708   5.388905   6.164324   5.874569   6.985359
    22  C    5.444468   4.473528   5.174176   5.248936   6.298691
    23  C    5.081504   3.856109   4.471089   4.816760   5.806587
    24  C    3.865662   2.526604   3.185076   3.803327   4.863486
    25  N    4.369883   2.938170   3.324474   4.207941   5.056745
    26  O    5.689671   4.271183   4.592245   5.311374   6.040035
    27  N    6.073738   4.735702   5.196007   5.650215   6.472248
    28  O    7.281090   5.955721   6.376599   6.755564   7.496710
    29  C    1.511190   2.708523   3.062507   3.344435   4.333555
    30  C    2.375396   3.856811   4.433463   4.853562   5.786377
    31  O    3.556175   5.012968   5.448375   5.708840   6.505744
    32  O    2.292061   3.744415   4.684487   5.424230   6.482567
    33  H    3.089869   3.015357   4.533021   5.482989   6.773712
    34  H    4.270184   4.310172   5.720380   6.895756   8.094809
    35  H    2.100756   1.096191   2.116677   3.431434   4.505519
    36  H    3.375518   2.833873   2.213525   1.082642   2.110131
    37  H    5.352954   4.744006   3.420112   2.162589   1.084201
    38  H    3.553482   2.738915   2.148818   3.423455   3.829550
    39  H    6.510916   5.555670   6.213858   6.210168   7.187093
    40  H    2.187172   3.021763   2.835773   3.030985   3.737986
    41  H    2.212883   3.162205   3.446384   3.305176   4.303024
                   11         12         13         14         15
    11  O    0.000000
    12  C    1.415328   0.000000
    13  O    2.245749   1.207322   0.000000
    14  C    2.419099   1.452114   2.386262   0.000000
    15  C    5.058822   4.841444   5.908987   3.617354   0.000000
    16  C    5.903533   5.929328   7.062440   4.803622   1.372523
    17  N    6.227981   6.378524   7.550182   5.302200   2.473006
    18  O    5.730067   6.125572   7.324228   5.269239   3.116032
    19  O    7.238490   7.263679   8.397128   6.084708   3.224554
    20  C    6.897354   7.009721   8.121187   5.968651   2.502448
    21  Cl   8.137897   8.426686   9.585290   7.448625   4.062030
    22  C    7.153721   7.174705   8.193258   6.182702   2.943327
    23  C    6.439583   6.259667   7.177524   5.256877   2.493391
    24  C    5.394658   5.058415   5.987844   3.931511   1.442178
    25  N    5.257016   4.653692   5.379514   3.595137   2.480102
    26  O    6.208023   5.667686   6.279487   4.790071   3.561223
    27  N    6.897528   6.596554   7.351672   5.704134   3.593094
    28  O    7.901724   7.640353   8.332169   6.837500   4.775204
    29  C    4.986846   4.874715   5.868722   3.921700   3.734132
    30  C    6.326606   6.079592   6.943699   5.106778   4.881460
    31  O    7.039852   6.890959   7.701322   6.067968   6.013317
    32  O    6.932143   6.446863   7.252307   5.271854   4.723953
    33  H    7.301267   6.708616   7.582082   5.268860   2.790155
    34  H    8.389240   7.539489   8.204443   6.104258   4.427941
    35  H    4.738257   3.982415   4.823561   2.535828   2.084132
    36  H    3.341840   3.920343   5.121896   3.408932   2.905708
    37  H    2.019171   3.334140   4.264910   3.826365   5.089931
    38  H    3.383408   2.153113   2.650489   1.084075   3.922919
    39  H    8.052826   8.127827   9.123155   7.195744   4.026330
    40  H    4.225967   4.149050   5.078691   3.440949   4.230069
    41  H    5.200850   5.361280   6.442114   4.514461   3.805328
                   16         17         18         19         20
    16  C    0.000000
    17  N    1.482766   0.000000
    18  O    2.311243   1.229939   0.000000
    19  O    2.314952   1.223002   2.186688   0.000000
    20  C    1.450187   2.475980   3.204134   3.100781   0.000000
    21  Cl   2.755132   2.935163   3.451202   3.260460   1.739334
    22  C    2.455673   3.754220   4.446404   4.365462   1.368604
    23  C    2.730856   4.209432   4.894353   4.880594   2.353815
    24  C    2.358445   3.747790   4.393441   4.454884   2.786942
    25  N    3.628490   4.934681   5.519121   5.600261   4.094948
    26  O    4.457062   5.885743   6.502982   6.540878   4.508546
    27  N    4.050878   5.533372   6.193048   6.179419   3.651068
    28  O    5.086752   6.554699   7.210037   7.167633   4.433564
    29  C    4.015172   3.307407   3.174496   3.562850   5.435259
    30  C    5.077632   4.207748   4.240600   4.025655   6.454184
    31  O    6.102821   5.073665   4.948530   4.818426   7.438440
    32  O    5.027682   4.384902   4.785731   3.986187   6.356838
    33  H    3.159047   3.660138   4.759202   3.392705   3.937910
    34  H    4.994417   5.471944   6.535988   5.079987   5.701205
    35  H    3.344916   3.997292   4.544353   4.438551   4.531895
    36  H    3.073679   3.089883   2.450876   4.219352   4.078773
    37  H    5.481728   5.577697   4.775546   6.695148   6.306351
    38  H    5.219823   5.791793   5.946237   6.425524   6.380190
    39  H    3.454564   4.629047   5.277751   5.164570   2.153207
    40  H    4.694778   4.140092   3.807986   4.570683   6.112279
    41  H    3.739532   2.754441   2.329337   3.111125   5.056521
                   21         22         23         24         25
    21  Cl   0.000000
    22  C    2.692734   0.000000
    23  C    3.977166   1.411866   0.000000
    24  C    4.524744   2.494143   1.421183   0.000000
    25  N    5.834220   3.607897   2.270720   1.324334   0.000000
    26  O    6.186779   3.619233   2.224933   2.148890   1.364227
    27  N    5.178969   2.492413   1.343882   2.225206   2.304256
    28  O    5.746745   3.111680   2.369246   3.439401   3.440522
    29  C    6.233677   6.414486   6.222445   5.073457   5.644498
    30  C    7.099764   7.486268   7.340903   6.206698   6.740002
    31  O    7.911018   8.541004   8.472736   7.366327   7.918455
    32  O    7.122169   7.275784   7.045619   5.916737   6.364163
    33  H    5.121234   4.326753   3.982383   3.259548   3.794361
    34  H    6.876619   5.877652   5.328257   4.600977   4.679024
    35  H    6.066206   4.794637   3.934710   2.543329   2.518513
    36  H    5.007719   4.792790   4.654476   3.841793   4.556089
    37  H    7.203628   6.749840   6.415144   5.633655   5.930114
    38  H    7.938479   6.503889   5.453659   4.083395   3.500921
    39  H    2.871994   1.083059   2.186807   3.476608   4.457313
    40  H    6.999582   6.995063   6.673853   5.448746   5.849672
    41  H    5.612886   6.167324   6.194656   5.215112   5.984449
                   26         27         28         29         30
    26  O    0.000000
    27  N    1.451715   0.000000
    28  O    2.313742   1.220910   0.000000
    29  C    6.967328   7.291506   8.492465   0.000000
    30  C    8.063443   8.407258   9.602066   1.520092   0.000000
    31  O    9.245091   9.568261  10.759167   2.469390   1.196437
    32  O    7.643660   8.031880   9.204007   2.353480   1.393916
    33  H    4.673612   4.792524   5.809555   4.475577   4.818244
    34  H    5.409268   5.796456   6.693920   5.647666   5.661302
    35  H    3.856866   4.572223   5.774192   3.466945   4.367412
    36  H    5.595795   5.665656   6.738318   3.282320   4.784759
    37  H    6.815375   7.105070   8.055407   4.992745   6.429391
    38  H    4.678785   5.766546   6.886215   4.315761   5.278184
    39  H    4.191013   2.841076   3.028402   7.452577   8.503915
    40  H    7.188499   7.649251   8.856979   1.096300   2.149175
    41  H    7.238365   7.366995   8.527753   1.095166   2.143305
                   31         32         33         34         35
    31  O    0.000000
    32  O    2.267373   0.000000
    33  H    5.933430   3.918356   0.000000
    34  H    6.701478   4.455018   1.857807   0.000000
    35  H    5.546004   3.956828   2.758540   3.657403   0.000000
    36  H    5.596493   5.418769   5.393425   6.990390   3.841980
    37  H    7.032644   7.257096   7.634584   9.049121   5.514397
    38  H    6.276831   5.188787   5.035491   5.554848   2.319681
    39  H    9.534980   8.284830   5.211932   6.669316   5.848640
    40  H    2.833824   3.089348   5.276792   6.347832   3.721000
    41  H    2.808131   3.103299   4.855431   6.254537   4.104259
                   36         37         38         39         40
    36  H    0.000000
    37  H    2.505059   0.000000
    38  H    4.341940   4.907099   0.000000
    39  H    5.713220   7.553693   7.517509   0.000000
    40  H    3.231460   4.401488   3.932202   8.044559   0.000000
    41  H    2.909606   4.766629   5.075431   7.147785   1.759027
                   41
    41  H    0.000000
 Stoichiometry    C19H9ClN4O8
 Framework group  C1[X(C19H9ClN4O8)]
 Deg. of freedom   117
 Full point group                 C1      NOp   1
 Largest Abelian subgroup         C1      NOp   1
 Largest concise Abelian subgroup C1      NOp   1
                         Standard orientation:                         
 ---------------------------------------------------------------------
 Center     Atomic      Atomic             Coordinates (Angstroms)
 Number     Number       Type             X           Y           Z
 ---------------------------------------------------------------------
      1          6           0       -0.843204   -1.841176    2.703785
      2          6           0       -2.075868   -1.549415    2.245462
      3          6           0       -3.195461   -1.544929    3.153917
      4          7           0       -4.087693   -1.528808    3.899052
      5          6           0       -2.369100   -1.218431    0.841370
      6          6           0       -1.737690   -0.423017   -0.049083
      7          6           0       -0.547088    0.467768    0.254823
      8          6           0       -0.659079    1.822130   -0.460719
      9          6           0       -0.287876    1.962404   -1.844090
     10          6           0       -0.424129    3.177637   -2.425189
     11          8           0       -0.889063    4.259549   -1.775945
     12          6           0       -1.277998    4.206723   -0.416132
     13          8           0       -1.684752    5.225060    0.089010
     14          6           0       -1.132194    2.907074    0.214969
     15          6           0        0.868594   -0.103780    0.085153
     16          6           0        1.324669   -1.111768   -0.727112
     17          7           0        0.379608   -1.835618   -1.611134
     18          8           0        0.121252   -1.306065   -2.690752
     19          8           0       -0.052130   -2.908305   -1.212790
     20          6           0        2.705184   -1.547761   -0.811563
     21         17           0        3.128450   -2.815972   -1.924114
     22          6           0        3.679586   -0.966471   -0.046240
     23          6           0        3.245529    0.060316    0.820172
     24          6           0        1.894822    0.494479    0.902967
     25          7           0        1.746567    1.453608    1.804051
     26          8           0        2.986384    1.675601    2.328159
     27          7           0        3.950287    0.787985    1.703254
     28          8           0        5.122694    0.834788    2.040734
     29          6           0       -2.586215   -0.405346   -1.299438
     30          6           0       -3.743755   -1.325066   -0.946033
     31          8           0       -4.691076   -1.662545   -1.594224
     32          8           0       -3.539299   -1.781062    0.355223
     33          1           0        0.001444   -1.908126    2.028694
     34          1           0       -0.672060   -2.044732    3.754724
     35          1           0       -0.605346    0.689681    1.326735
     36          1           0        0.086782    1.130292   -2.426614
     37          1           0       -0.177076    3.398059   -3.457599
     38          1           0       -1.411521    2.863790    1.261545
     39          1           0        4.717492   -1.271759   -0.096902
     40          1           0       -2.973934    0.591160   -1.541352
     41          1           0       -2.095259   -0.781415   -2.203276
 ---------------------------------------------------------------------
 Rotational constants (GHZ):           0.1425569           0.1139160           0.0958200
 Standard basis: 6-31+G(d,p) (6D, 7F)
 There are   657 symmetry adapted cartesian basis functions of A   symmetry.
 There are   657 symmetry adapted basis functions of A   symmetry.
   657 basis functions,  1111 primitive gaussians,   657 cartesian basis functions
   116 alpha electrons      116 beta electrons
       nuclear repulsion energy      3408.6793053615 Hartrees.
 NAtoms=   41 NActive=   41 NUniq=   41 SFac= 1.00D+00 NAtFMM=   60 NAOKFM=F Big=F
 Integral buffers will be    131072 words long.
 Regular integral format.
 Two-electron integral symmetry is turned on.
 One-electron integrals computed using PRISM.
 NBasis=   657 RedAO= T EigKep=  1.03D-06  NBF=   657
 NBsUse=   651 1.00D-06 EigRej=  8.64D-07 NBFU=   651
 ExpMin= 4.38D-02 ExpMax= 2.52D+04 ExpMxC= 3.78D+03 IAcc=3 IRadAn=         5 AccDes= 0.00D+00
 Harris functional with IExCor=  402 and IRadAn=       5 diagonalized for initial guess.
 HarFok:  IExCor=  402 AccDes= 0.00D+00 IRadAn=         5 IDoV= 1 UseB2=F ITyADJ=14
 ICtDFT=  3500011 ScaDFX=  1.000000  1.000000  1.000000  1.000000
 FoFCou: FMM=F IPFlag=           0 FMFlag=      100000 FMFlg1=           0
         NFxFlg=           0 DoJE=T BraDBF=F KetDBF=T FulRan=T
         wScrn=  0.000000 ICntrl=       500 IOpCl=  0 I1Cent=   200000004 NGrid=           0
         NMat0=    1 NMatS0=      1 NMatT0=    0 NMatD0=    1 NMtDS0=    0 NMtDT0=    0
 Petite list used in FoFCou.
 Requested convergence on RMS density matrix=1.00D-08 within 128 cycles.
 Requested convergence on MAX density matrix=1.00D-06.
 Requested convergence on             energy=1.00D-06.
 No special actions if energy rises.
 EnCoef did     2 forward-backward iterations
 EnCoef did     2 forward-backward iterations
 Restarting incremental Fock formation.
 SCF Done:  E(RB3LYP) =  -2010.15644762     A.U. after   24 cycles
            NFock= 24  Conv=0.95D-09     -V/T= 2.0077
 DoSCS=F DFT=T ScalE2(SS,OS)=  1.000000  1.000000
 ExpMin= 4.38D-02 ExpMax= 2.52D+04 ExpMxC= 3.78D+03 IAcc=3 IRadAn=         5 AccDes= 0.00D+00
 HarFok:  IExCor=  205 AccDes= 0.00D+00 IRadAn=         5 IDoV=-2 UseB2=F ITyADJ=14
 ICtDFT= 12500011 ScaDFX=  1.000000  1.000000  1.000000  1.000000
 GSVD:  LWork=       -1584 too small for GESVD, short by        7020 words or        7020 for optimal perf.
 Range of M.O.s used for correlation:    37   651
 NBasis=   657 NAE=   116 NBE=   116 NFC=    36 NFV=     0
 NROrb=    615 NOA=    80 NOB=    80 NVA=   535 NVB=   535

 **** Warning!!: The largest alpha MO coefficient is  0.13755798D+03

 Orbital symmetries:
       Occupied  (A) (A) (A) (A) (A) (A) (A) (A) (A) (A) (A) (A)
                 (A) (A) (A) (A) (A) (A) (A) (A) (A) (A) (A) (A)
                 (A) (A) (A) (A) (A) (A) (A) (A) (A) (A) (A) (A)
                 (A) (A) (A) (A) (A) (A) (A) (A) (A) (A) (A) (A)
                 (A) (A) (A) (A) (A) (A) (A) (A) (A) (A) (A) (A)
                 (A) (A) (A) (A) (A) (A) (A) (A) (A) (A) (A) (A)
                 (A) (A) (A) (A) (A) (A) (A) (A) (A) (A) (A) (A)
                 (A) (A) (A) (A) (A) (A) (A) (A) (A) (A) (A) (A)
                 (A) (A) (A) (A) (A) (A) (A) (A) (A) (A) (A) (A)
                 (A) (A) (A) (A) (A) (A) (A) (A)
       Virtual   (A) (A) (A) (A) (A) (A) (A) (A) (A) (A) (A) (A)
                 (A) (A) (A) (A) (A) (A) (A) (A) (A) (A) (A) (A)
                 (A) (A) (A) (A) (A) (A) (A) (A) (A) (A) (A) (A)
                 (A) (A) (A) (A) (A) (A) (A) (A) (A) (A) (A) (A)
                 (A) (A) (A) (A) (A) (A) (A) (A) (A) (A) (A) (A)
                 (A) (A) (A) (A) (A) (A) (A) (A) (A) (A) (A) (A)
                 (A) (A) (A) (A) (A) (A) (A) (A) (A) (A) (A) (A)
                 (A) (A) (A) (A) (A) (A) (A) (A) (A) (A) (A) (A)
                 (A) (A) (A) (A) (A) (A) (A) (A) (A) (A) (A) (A)
                 (A) (A) (A) (A) (A) (A) (A) (A) (A) (A) (A) (A)
                 (A) (A) (A) (A) (A) (A) (A) (A) (A) (A) (A) (A)
                 (A) (A) (A) (A) (A) (A) (A) (A) (A) (A) (A) (A)
                 (A) (A) (A) (A) (A) (A) (A) (A) (A) (A) (A) (A)
                 (A) (A) (A) (A) (A) (A) (A) (A) (A) (A) (A) (A)
                 (A) (A) (A) (A) (A) (A) (A) (A) (A) (A) (A) (A)
                 (A) (A) (A) (A) (A) (A) (A) (A) (A) (A) (A) (A)
                 (A) (A) (A) (A) (A) (A) (A) (A) (A) (A) (A) (A)
                 (A) (A) (A) (A) (A) (A) (A) (A) (A) (A) (A) (A)
                 (A) (A) (A) (A) (A) (A) (A) (A) (A) (A) (A) (A)
                 (A) (A) (A) (A) (A) (A) (A) (A) (A) (A) (A) (A)
                 (A) (A) (A) (A) (A) (A) (A) (A) (A) (A) (A) (A)
                 (A) (A) (A) (A) (A) (A) (A) (A) (A) (A) (A) (A)
                 (A) (A) (A) (A) (A) (A) (A) (A) (A) (A) (A) (A)
                 (A) (A) (A) (A) (A) (A) (A) (A) (A) (A) (A) (A)
                 (A) (A) (A) (A) (A) (A) (A) (A) (A) (A) (A) (A)
                 (A) (A) (A) (A) (A) (A) (A) (A) (A) (A) (A) (A)
                 (A) (A) (A) (A) (A) (A) (A) (A) (A) (A) (A) (A)
                 (A) (A) (A) (A) (A) (A) (A) (A) (A) (A) (A) (A)
                 (A) (A) (A) (A) (A) (A) (A) (A) (A) (A) (A) (A)
                 (A) (A) (A) (A) (A) (A) (A) (A) (A) (A) (A) (A)
                 (A) (A) (A) (A) (A) (A) (A) (A) (A) (A) (A) (A)
                 (A) (A) (A) (A) (A) (A) (A) (A) (A) (A) (A) (A)
                 (A) (A) (A) (A) (A) (A) (A) (A) (A) (A) (A) (A)
                 (A) (A) (A) (A) (A) (A) (A) (A) (A) (A) (A) (A)
                 (A) (A) (A) (A) (A) (A) (A) (A) (A) (A) (A) (A)
                 (A) (A) (A) (A) (A) (A) (A) (A) (A) (A) (A) (A)
                 (A) (A) (A) (A) (A) (A) (A) (A) (A) (A) (A) (A)
                 (A) (A) (A) (A) (A) (A) (A) (A) (A) (A) (A) (A)
                 (A) (A) (A) (A) (A) (A) (A) (A) (A) (A) (A) (A)
                 (A) (A) (A) (A) (A) (A) (A) (A) (A) (A) (A) (A)
                 (A) (A) (A) (A) (A) (A) (A) (A) (A) (A) (A) (A)
                 (A) (A) (A) (A) (A) (A) (A) (A) (A) (A) (A) (A)
                 (A) (A) (A) (A) (A) (A) (A) (A) (A) (A) (A) (A)
                 (A) (A) (A) (A) (A) (A) (A) (A) (A) (A) (A) (A)
                 (A) (A) (A) (A) (A) (A) (A)
    24 initial guesses have been made.
 Convergence on wavefunction:    0.001000000000000
 Iteration     1 Dimension    24 NMult     0 NNew     24
 CISAX will form    24 AO SS matrices at one time.
 New state      1 was old state      4
 New state      3 was old state      1
 New state      4 was old state      8
 New state      5 was old state      7
 New state      7 was old state      5
 New state      8 was old state     10
 New state     10 was old state     12
 New state     12 was old state     14
 Vector   6 SDiff=5.55D+00 TDiff=6.79D+00 assumed to be singlet.
 Vector  12 SDiff=5.57D+00 TDiff=6.68D+00 assumed to be singlet.
 Iteration     2 Dimension    36 NMult    24 NNew     12
 New state      6 was old state      7
 Iteration     3 Dimension    48 NMult    36 NNew     12
 Iteration     4 Dimension    60 NMult    48 NNew     12
 New state      3 was old state      4
 New state      4 was old state      3
 Iteration     5 Dimension    72 NMult    60 NNew     12
 Iteration     6 Dimension    82 NMult    72 NNew     10
 Iteration     7 Dimension    90 NMult    82 NNew      8
 Iteration     8 Dimension    94 NMult    90 NNew      4
 Iteration     9 Dimension    98 NMult    94 NNew      4
 ***********************************************************************
 Excited states from <AA,BB:AA,BB> singles matrix:
 ***********************************************************************
 
 Ground to excited state transition densities written to RWF  633
 Ground to excited state transition electric dipole moments (Au):
       state          X           Y           Z        Dip. S.      Osc.
         1         0.0000      0.0000      0.0000      0.0000      0.0000
         2         0.0000      0.0000     -0.0000      0.0000      0.0000
         3        -0.0000     -0.0000     -0.0000      0.0000      0.0000
         4         0.0609     -0.0416      0.1061      0.0167      0.0010
         5        -0.1922      0.0391     -0.1550      0.0625      0.0043
         6         0.2668      0.0241     -0.0723      0.0770      0.0054
 Ground to excited state transition velocity dipole moments (Au):
       state          X           Y           Z        Dip. S.      Osc.
         1        -0.0000     -0.0000      0.0000      0.0000      0.0000
         2         0.0000      0.0000     -0.0000      0.0000      0.0000
         3        -0.0000      0.0000      0.0000      0.0000      0.0000
         4        -0.0048      0.0042     -0.0115      0.0002      0.0012
         5         0.0196     -0.0037      0.0154      0.0006      0.0042
         6        -0.0281     -0.0024      0.0071      0.0008      0.0053
 Ground to excited state transition magnetic dipole moments (Au):
       state          X           Y           Z
         1         0.0000      0.0000     -0.0000
         2        -0.0000     -0.0000     -0.0000
         3         0.0000      0.0000      0.0000
         4        -0.0110      0.0757      0.0645
         5         0.1247      0.1253      0.0238
         6         0.1196      0.1230     -0.0188
 Ground to excited state transition velocity quadrupole moments (Au):
       state          XX          YY          ZZ          XY          XZ          YZ
         1         0.0000      0.0000     -0.0000     -0.0000     -0.0000      0.0000
         2         0.0000     -0.0000      0.0000      0.0000      0.0000     -0.0000
         3        -0.0000      0.0000     -0.0000     -0.0000     -0.0000      0.0000
         4        -0.0655      0.0104      0.0460      0.0188     -0.0151     -0.0956
         5         0.2769     -0.0687     -0.0057      0.0262      0.0526     -0.0092
         6        -0.0437     -0.0284      0.0285      0.0463     -0.0506     -0.0572
 <0|del|b> * <b|rxdel|0> + <0|del|b> * <b|delr+rdel|0>
 Rotatory Strengths (R) in cgs (10**-40 erg-esu-cm/Gauss)
       state          XX          YY          ZZ    R(velocity)    E-M Angle
         1        -0.0000      0.0000     -0.0000     -0.0000       90.00
         2        -0.0000     -0.0000      0.0000     -0.0000       90.00
         3         0.0000     -0.0000     -0.0000     -0.0000       90.00
         4        -2.1500     -0.0609     -0.5579     -0.9229      106.32
         5         1.7323      7.7175      6.8144      5.4214       58.50
         6        -0.7119     -7.4062    -17.1813     -8.4331      138.92
 1/2[<0|r|b>*<b|rxdel|0> + (<0|rxdel|b>*<b|r|0>)*]
 Rotatory Strengths (R) in cgs (10**-40 erg-esu-cm/Gauss)
       state          XX          YY          ZZ     R(length)
         1        -0.0000     -0.0000      0.0000     -0.0000
         2         0.0000      0.0000     -0.0000      0.0000
         3         0.0000      0.0000      0.0000      0.0000
         4         0.4731      2.2246     -4.8391     -0.7138
         5        16.9465     -3.4625      2.6059      5.3633
         6       -22.5588     -2.0932     -0.9594     -8.5371
  1/2[<0|del|b>*<b|r|0> + (<0|r|b>*<b|del|0>)*] (Au)
       state          X           Y           Z        Dip. S.   Osc.(frdel)
         1        -0.0000     -0.0000      0.0000      0.0000      0.0000
         2         0.0000      0.0000      0.0000     -0.0000     -0.0000
         3         0.0000     -0.0000     -0.0000     -0.0000     -0.0000
         4        -0.0003     -0.0002     -0.0012      0.0017      0.0011
         5        -0.0038     -0.0001     -0.0024      0.0063      0.0042
         6        -0.0075     -0.0001     -0.0005      0.0081      0.0054

 Excitation energies and oscillator strengths:
 
 Excited State   1:      Triplet-A      1.2239 eV 1013.04 nm  f=0.0000  <S**2>=2.000
     114 ->117         0.35992
     115 ->117         0.59156
     115 ->118        -0.12867
     116 ->117        -0.10861
     114 <-117         0.11941
     115 <-117         0.18685
 This state for optimization and/or second-order correction.
 Total Energy, E(TD-HF/TD-DFT) =  -2010.11147094    
 Copying the excited state density for this state as the 1-particle RhoCI density.
 
 Excited State   2:      Triplet-A      2.4098 eV  514.49 nm  f=0.0000  <S**2>=2.000
     116 ->117         0.56187
     116 ->119         0.17610
     116 ->120         0.33366
 
 Excited State   3:      Triplet-A      2.5369 eV  488.73 nm  f=0.0000  <S**2>=2.000
     103 ->118         0.16522
     104 ->118         0.16752
     111 ->119        -0.11672
     114 ->117         0.22985
     114 ->118         0.27434
     114 ->119         0.25281
     115 ->117        -0.14314
     115 ->118        -0.26296
     115 ->119        -0.19532
     116 ->118        -0.20944
     116 ->120         0.15576
 
 Excited State   4:      Singlet-A      2.5651 eV  483.34 nm  f=0.0010  <S**2>=0.000
     116 ->117         0.70125
 
 Excited State   5:      Singlet-A      2.7834 eV  445.44 nm  f=0.0043  <S**2>=0.000
     114 ->117        -0.43603
     114 ->118        -0.10343
     115 ->117         0.46553
     115 ->118         0.22202
     116 ->118         0.15798
 
 Excited State   6:      Singlet-A      2.8749 eV  431.27 nm  f=0.0054  <S**2>=0.000
     114 ->117         0.11443
     114 ->118        -0.13499
     115 ->117        -0.18276
     116 ->118         0.65352
 SavETr:  write IOETrn=   770 NScale= 10 NData=  16 NLR=1 NState=    6 LETran=     118.

 **********************************************************************

            Population analysis using the SCF Density.

 **********************************************************************

 Orbital symmetries:
       Occupied  (A) (A) (A) (A) (A) (A) (A) (A) (A) (A) (A) (A)
                 (A) (A) (A) (A) (A) (A) (A) (A) (A) (A) (A) (A)
                 (A) (A) (A) (A) (A) (A) (A) (A) (A) (A) (A) (A)
                 (A) (A) (A) (A) (A) (A) (A) (A) (A) (A) (A) (A)
                 (A) (A) (A) (A) (A) (A) (A) (A) (A) (A) (A) (A)
                 (A) (A) (A) (A) (A) (A) (A) (A) (A) (A) (A) (A)
                 (A) (A) (A) (A) (A) (A) (A) (A) (A) (A) (A) (A)
                 (A) (A) (A) (A) (A) (A) (A) (A) (A) (A) (A) (A)
                 (A) (A) (A) (A) (A) (A) (A) (A) (A) (A) (A) (A)
                 (A) (A) (A) (A) (A) (A) (A) (A)
       Virtual   (A) (A) (A) (A) (A) (A) (A) (A) (A) (A) (A) (A)
                 (A) (A) (A) (A) (A) (A) (A) (A) (A) (A) (A) (A)
                 (A) (A) (A) (A) (A) (A) (A) (A) (A) (A) (A) (A)
                 (A) (A) (A) (A) (A) (A) (A) (A) (A) (A) (A) (A)
                 (A) (A) (A) (A) (A) (A) (A) (A) (A) (A) (A) (A)
                 (A) (A) (A) (A) (A) (A) (A) (A) (A) (A) (A) (A)
                 (A) (A) (A) (A) (A) (A) (A) (A) (A) (A) (A) (A)
                 (A) (A) (A) (A) (A) (A) (A) (A) (A) (A) (A) (A)
                 (A) (A) (A) (A) (A) (A) (A) (A) (A) (A) (A) (A)
                 (A) (A) (A) (A) (A) (A) (A) (A) (A) (A) (A) (A)
                 (A) (A) (A) (A) (A) (A) (A) (A) (A) (A) (A) (A)
                 (A) (A) (A) (A) (A) (A) (A) (A) (A) (A) (A) (A)
                 (A) (A) (A) (A) (A) (A) (A) (A) (A) (A) (A) (A)
                 (A) (A) (A) (A) (A) (A) (A) (A) (A) (A) (A) (A)
                 (A) (A) (A) (A) (A) (A) (A) (A) (A) (A) (A) (A)
                 (A) (A) (A) (A) (A) (A) (A) (A) (A) (A) (A) (A)
                 (A) (A) (A) (A) (A) (A) (A) (A) (A) (A) (A) (A)
                 (A) (A) (A) (A) (A) (A) (A) (A) (A) (A) (A) (A)
                 (A) (A) (A) (A) (A) (A) (A) (A) (A) (A) (A) (A)
                 (A) (A) (A) (A) (A) (A) (A) (A) (A) (A) (A) (A)
                 (A) (A) (A) (A) (A) (A) (A) (A) (A) (A) (A) (A)
                 (A) (A) (A) (A) (A) (A) (A) (A) (A) (A) (A) (A)
                 (A) (A) (A) (A) (A) (A) (A) (A) (A) (A) (A) (A)
                 (A) (A) (A) (A) (A) (A) (A) (A) (A) (A) (A) (A)
                 (A) (A) (A) (A) (A) (A) (A) (A) (A) (A) (A) (A)
                 (A) (A) (A) (A) (A) (A) (A) (A) (A) (A) (A) (A)
                 (A) (A) (A) (A) (A) (A) (A) (A) (A) (A) (A) (A)
                 (A) (A) (A) (A) (A) (A) (A) (A) (A) (A) (A) (A)
                 (A) (A) (A) (A) (A) (A) (A) (A) (A) (A) (A) (A)
                 (A) (A) (A) (A) (A) (A) (A) (A) (A) (A) (A) (A)
                 (A) (A) (A) (A) (A) (A) (A) (A) (A) (A) (A) (A)
                 (A) (A) (A) (A) (A) (A) (A) (A) (A) (A) (A) (A)
                 (A) (A) (A) (A) (A) (A) (A) (A) (A) (A) (A) (A)
                 (A) (A) (A) (A) (A) (A) (A) (A) (A) (A) (A) (A)
                 (A) (A) (A) (A) (A) (A) (A) (A) (A) (A) (A) (A)
                 (A) (A) (A) (A) (A) (A) (A) (A) (A) (A) (A) (A)
                 (A) (A) (A) (A) (A) (A) (A) (A) (A) (A) (A) (A)
                 (A) (A) (A) (A) (A) (A) (A) (A) (A) (A) (A) (A)
                 (A) (A) (A) (A) (A) (A) (A) (A) (A) (A) (A) (A)
                 (A) (A) (A) (A) (A) (A) (A) (A) (A) (A) (A) (A)
                 (A) (A) (A) (A) (A) (A) (A) (A) (A) (A) (A) (A)
                 (A) (A) (A) (A) (A) (A) (A) (A) (A) (A) (A) (A)
                 (A) (A) (A) (A) (A) (A) (A) (A) (A) (A) (A) (A)
                 (A) (A) (A) (A) (A) (A) (A) (A) (A) (A) (A) (A)
                 (A) (A) (A) (A) (A) (A) (A)
 The electronic state is 1-A.
 Alpha  occ. eigenvalues -- -101.61854 -19.33299 -19.26135 -19.26051 -19.25498
 Alpha  occ. eigenvalues --  -19.24720 -19.24396 -19.18304 -19.16353 -14.64254
 Alpha  occ. eigenvalues --  -14.60094 -14.46480 -14.37206 -10.35875 -10.34947
 Alpha  occ. eigenvalues --  -10.34234 -10.33781 -10.32161 -10.31494 -10.31372
 Alpha  occ. eigenvalues --  -10.30953 -10.30852 -10.29392 -10.29214 -10.29015
 Alpha  occ. eigenvalues --  -10.27774 -10.26422 -10.26256 -10.26124 -10.25151
 Alpha  occ. eigenvalues --  -10.24396 -10.24086  -9.53294  -7.29760  -7.28706
 Alpha  occ. eigenvalues --   -7.28670  -1.30043  -1.27310  -1.17659  -1.15599
 Alpha  occ. eigenvalues --   -1.14956  -1.12918  -1.07599  -1.05995  -0.99342
 Alpha  occ. eigenvalues --   -0.94914  -0.94419  -0.93921  -0.91476  -0.89382
 Alpha  occ. eigenvalues --   -0.87803  -0.85526  -0.84435  -0.82113  -0.80752
 Alpha  occ. eigenvalues --   -0.78003  -0.75999  -0.72001  -0.70486  -0.70166
 Alpha  occ. eigenvalues --   -0.69860  -0.67941  -0.65792  -0.63804  -0.63356
 Alpha  occ. eigenvalues --   -0.62536  -0.60151  -0.59206  -0.58876  -0.58181
 Alpha  occ. eigenvalues --   -0.58010  -0.57365  -0.56418  -0.56204  -0.55386
 Alpha  occ. eigenvalues --   -0.53363  -0.52079  -0.51895  -0.51509  -0.50403
 Alpha  occ. eigenvalues --   -0.50071  -0.49667  -0.49276  -0.48709  -0.48015
 Alpha  occ. eigenvalues --   -0.47263  -0.46911  -0.46496  -0.46090  -0.45332
 Alpha  occ. eigenvalues --   -0.44729  -0.43546  -0.42857  -0.42464  -0.41995
 Alpha  occ. eigenvalues --   -0.41439  -0.40801  -0.39607  -0.39297  -0.39089
 Alpha  occ. eigenvalues --   -0.38878  -0.38483  -0.38277  -0.37845  -0.37373
 Alpha  occ. eigenvalues --   -0.36389  -0.36316  -0.34863  -0.34460  -0.33838
 Alpha  occ. eigenvalues --   -0.32676  -0.31382  -0.30654  -0.28305  -0.27814
 Alpha  occ. eigenvalues --   -0.27029
 Alpha virt. eigenvalues --   -0.15583  -0.14376  -0.10815  -0.09808  -0.07077
 Alpha virt. eigenvalues --   -0.06694  -0.05354  -0.04736  -0.03733  -0.02868
 Alpha virt. eigenvalues --   -0.01951  -0.01545  -0.01185  -0.01000  -0.00156
 Alpha virt. eigenvalues --    0.00531   0.00721   0.01067   0.01464   0.01817
 Alpha virt. eigenvalues --    0.02164   0.02860   0.03017   0.03885   0.04289
 Alpha virt. eigenvalues --    0.04715   0.05089   0.05303   0.05547   0.05859
 Alpha virt. eigenvalues --    0.06227   0.06390   0.06650   0.07013   0.07158
 Alpha virt. eigenvalues --    0.07598   0.07928   0.07962   0.08139   0.08394
 Alpha virt. eigenvalues --    0.08619   0.08644   0.08996   0.09647   0.09854
 Alpha virt. eigenvalues --    0.10115   0.10516   0.10870   0.10944   0.11350
 Alpha virt. eigenvalues --    0.11486   0.11798   0.11916   0.12172   0.12330
 Alpha virt. eigenvalues --    0.12702   0.13118   0.13348   0.13640   0.13742
 Alpha virt. eigenvalues --    0.14116   0.14315   0.14549   0.14824   0.14919
 Alpha virt. eigenvalues --    0.15276   0.15710   0.15911   0.16155   0.16322
 Alpha virt. eigenvalues --    0.16643   0.16925   0.16945   0.17245   0.17603
 Alpha virt. eigenvalues --    0.18087   0.18458   0.18552   0.18634   0.18969
 Alpha virt. eigenvalues --    0.19366   0.19671   0.19885   0.20164   0.20248
 Alpha virt. eigenvalues --    0.20803   0.21082   0.21243   0.21361   0.21453
 Alpha virt. eigenvalues --    0.21754   0.22219   0.22640   0.22864   0.23031
 Alpha virt. eigenvalues --    0.23276   0.23416   0.23743   0.24074   0.24447
 Alpha virt. eigenvalues --    0.24615   0.25082   0.25275   0.25526   0.25742
 Alpha virt. eigenvalues --    0.25890   0.26115   0.26412   0.26556   0.26822
 Alpha virt. eigenvalues --    0.27417   0.27689   0.27852   0.28294   0.28495
 Alpha virt. eigenvalues --    0.28815   0.28976   0.29162   0.29283   0.29816
 Alpha virt. eigenvalues --    0.29955   0.30145   0.30486   0.30725   0.31123
 Alpha virt. eigenvalues --    0.31271   0.31635   0.31934   0.32327   0.32718
 Alpha virt. eigenvalues --    0.32859   0.33026   0.33628   0.33664   0.33938
 Alpha virt. eigenvalues --    0.34217   0.34602   0.34883   0.35491   0.35586
 Alpha virt. eigenvalues --    0.35852   0.36140   0.36229   0.36922   0.37326
 Alpha virt. eigenvalues --    0.37588   0.37881   0.38454   0.38746   0.38875
 Alpha virt. eigenvalues --    0.39506   0.39876   0.40210   0.40604   0.41319
 Alpha virt. eigenvalues --    0.41657   0.41794   0.42686   0.43075   0.43315
 Alpha virt. eigenvalues --    0.43543   0.44200   0.44561   0.45171   0.45648
 Alpha virt. eigenvalues --    0.46617   0.47677   0.48706   0.49204   0.49600
 Alpha virt. eigenvalues --    0.50436   0.50654   0.51039   0.52325   0.52602
 Alpha virt. eigenvalues --    0.53347   0.54151   0.56747   0.59584   0.60181
 Alpha virt. eigenvalues --    0.60682   0.64441   0.65706   0.65864   0.66843
 Alpha virt. eigenvalues --    0.67396   0.68047   0.69023   0.69455   0.69689
 Alpha virt. eigenvalues --    0.70353   0.70971   0.71548   0.71961   0.72809
 Alpha virt. eigenvalues --    0.72883   0.73552   0.74540   0.76269   0.76567
 Alpha virt. eigenvalues --    0.76902   0.77597   0.77971   0.78867   0.79162
 Alpha virt. eigenvalues --    0.79697   0.80003   0.80828   0.81380   0.81571
 Alpha virt. eigenvalues --    0.82172   0.82841   0.83459   0.83825   0.84637
 Alpha virt. eigenvalues --    0.84906   0.85846   0.86641   0.86874   0.87265
 Alpha virt. eigenvalues --    0.87615   0.88412   0.88775   0.88855   0.89521
 Alpha virt. eigenvalues --    0.90581   0.90671   0.91863   0.92317   0.92896
 Alpha virt. eigenvalues --    0.93656   0.94192   0.96432   0.96932   0.97362
 Alpha virt. eigenvalues --    0.97796   0.98692   0.99122   1.00226   1.00797
 Alpha virt. eigenvalues --    1.00973   1.01272   1.02218   1.02733   1.03066
 Alpha virt. eigenvalues --    1.03589   1.04584   1.05323   1.06106   1.06610
 Alpha virt. eigenvalues --    1.07167   1.08454   1.08722   1.10169   1.10902
 Alpha virt. eigenvalues --    1.11295   1.11806   1.12144   1.13387   1.13903
 Alpha virt. eigenvalues --    1.14953   1.15512   1.16107   1.16875   1.16975
 Alpha virt. eigenvalues --    1.18309   1.18690   1.19301   1.19928   1.20680
 Alpha virt. eigenvalues --    1.21297   1.22115   1.22599   1.23853   1.24005
 Alpha virt. eigenvalues --    1.24480   1.24671   1.25639   1.26506   1.27494
 Alpha virt. eigenvalues --    1.27703   1.28621   1.28817   1.28884   1.29575
 Alpha virt. eigenvalues --    1.29960   1.30803   1.31338   1.31465   1.32096
 Alpha virt. eigenvalues --    1.32337   1.32763   1.33390   1.33672   1.34164
 Alpha virt. eigenvalues --    1.35369   1.36202   1.36480   1.36833   1.37501
 Alpha virt. eigenvalues --    1.38016   1.38319   1.38557   1.39375   1.39877
 Alpha virt. eigenvalues --    1.40067   1.41012   1.41214   1.41831   1.43597
 Alpha virt. eigenvalues --    1.44180   1.44722   1.45903   1.46500   1.48165
 Alpha virt. eigenvalues --    1.48758   1.48925   1.49815   1.50534   1.51049
 Alpha virt. eigenvalues --    1.51912   1.52192   1.53119   1.54295   1.54349
 Alpha virt. eigenvalues --    1.56447   1.57245   1.59469   1.60793   1.61438
 Alpha virt. eigenvalues --    1.63052   1.63464   1.64407   1.65331   1.67494
 Alpha virt. eigenvalues --    1.68075   1.68947   1.69802   1.70918   1.71081
 Alpha virt. eigenvalues --    1.71645   1.72089   1.73822   1.74501   1.75396
 Alpha virt. eigenvalues --    1.75690   1.76003   1.77290   1.77875   1.78499
 Alpha virt. eigenvalues --    1.78816   1.79181   1.79733   1.80553   1.81797
 Alpha virt. eigenvalues --    1.82017   1.83171   1.83776   1.84386   1.85141
 Alpha virt. eigenvalues --    1.85423   1.85666   1.86064   1.86947   1.87682
 Alpha virt. eigenvalues --    1.88712   1.89279   1.89722   1.90747   1.91174
 Alpha virt. eigenvalues --    1.92252   1.92777   1.93206   1.93723   1.94150
 Alpha virt. eigenvalues --    1.95324   1.95784   1.96039   1.97328   1.97698
 Alpha virt. eigenvalues --    1.98657   1.99874   2.00608   2.01266   2.02396
 Alpha virt. eigenvalues --    2.02476   2.03491   2.04492   2.05057   2.05692
 Alpha virt. eigenvalues --    2.06373   2.07395   2.08653   2.09392   2.11107
 Alpha virt. eigenvalues --    2.11803   2.12876   2.13109   2.13389   2.14044
 Alpha virt. eigenvalues --    2.14378   2.15002   2.16343   2.18779   2.19330
 Alpha virt. eigenvalues --    2.20833   2.21568   2.22139   2.22933   2.24538
 Alpha virt. eigenvalues --    2.25613   2.26656   2.28870   2.29929   2.30531
 Alpha virt. eigenvalues --    2.31213   2.32155   2.33611   2.35694   2.36747
 Alpha virt. eigenvalues --    2.37438   2.38610   2.39201   2.42514   2.43526
 Alpha virt. eigenvalues --    2.43702   2.44281   2.45669   2.46977   2.47612
 Alpha virt. eigenvalues --    2.47654   2.48558   2.49434   2.49949   2.50846
 Alpha virt. eigenvalues --    2.51650   2.51954   2.54310   2.55013   2.56289
 Alpha virt. eigenvalues --    2.57066   2.58409   2.59643   2.60724   2.62184
 Alpha virt. eigenvalues --    2.63123   2.64401   2.64713   2.65508   2.66487
 Alpha virt. eigenvalues --    2.68738   2.69075   2.70216   2.70393   2.70895
 Alpha virt. eigenvalues --    2.72134   2.73562   2.74937   2.77317   2.78268
 Alpha virt. eigenvalues --    2.79842   2.80333   2.81326   2.81921   2.82726
 Alpha virt. eigenvalues --    2.84883   2.85248   2.87324   2.88997   2.91882
 Alpha virt. eigenvalues --    2.93146   2.94538   2.95420   2.95789   2.96379
 Alpha virt. eigenvalues --    2.98963   2.99562   3.02352   3.03966   3.04331
 Alpha virt. eigenvalues --    3.05440   3.08259   3.08544   3.11621   3.13860
 Alpha virt. eigenvalues --    3.15995   3.18847   3.21497   3.22578   3.23271
 Alpha virt. eigenvalues --    3.23984   3.27593   3.27977   3.29805   3.32331
 Alpha virt. eigenvalues --    3.36883   3.39066   3.42731   3.46903   3.48105
 Alpha virt. eigenvalues --    3.53318   3.59672   3.74947   4.16784   4.22814
 Alpha virt. eigenvalues --    4.24470   4.25631   4.28016   4.29921   4.31639
 Alpha virt. eigenvalues --    4.34698   4.35896   4.36514   4.39266   4.41499
 Alpha virt. eigenvalues --    4.42640   4.44360   4.45867   4.48743   4.50754
 Alpha virt. eigenvalues --    4.52737   4.54257   4.58977   4.59365   4.61126
 Alpha virt. eigenvalues --    4.64143   4.68624   4.72560   4.72937   4.76768
 Alpha virt. eigenvalues --    4.80358   4.81954   4.83241   4.87730   4.91181
          Condensed to atoms (all electrons):
               1          2          3          4          5          6
     1  C    8.105983  -0.863047  -0.729761  -0.023193   2.370553  -3.377928
     2  C   -0.863047  11.387743  -2.826023   0.240752  -7.059682   5.025314
     3  C   -0.729761  -2.826023  10.862682   0.040621   1.500900  -1.377077
     4  N   -0.023193   0.240752   0.040621   7.202852  -0.063724   0.063417
     5  C    2.370553  -7.059682   1.500900  -0.063724  56.311168 -35.510643
     6  C   -3.377928   5.025314  -1.377077   0.063417 -35.510643  62.134428
     7  C    1.431824  -1.023126  -0.299762  -0.006948  15.663518 -16.045165
     8  C   -0.993882   1.951131  -0.606119   0.010408 -22.932588   4.383711
     9  C   -0.029484   0.241331   0.213000  -0.002873   0.238353   3.723547
    10  C    0.028064  -0.064547   0.012462  -0.000189   0.670454  -0.192254
    11  O   -0.000465   0.001326   0.000003  -0.000001  -0.029580  -0.075289
    12  C   -0.041616   0.068166  -0.008050   0.000255  -0.652276   0.147444
    13  O   -0.000041  -0.000791   0.000405  -0.000002   0.007804   0.008653
    14  C    0.249907  -0.549290  -0.380047   0.003429   2.913767  -3.787497
    15  C    1.003430  -0.885239  -0.023524  -0.001118   7.406247 -15.982490
    16  C    0.031937   0.033266  -0.142497   0.002000  -1.171544  -4.870020
    17  N    0.012384  -0.213660   0.196031  -0.001391   1.813733  -2.259289
    18  O    0.014327  -0.003609  -0.008500   0.000012   0.264555   0.209441
    19  O   -0.024165   0.051338  -0.026067   0.000184  -0.781228   0.543212
    20  C   -0.207524   0.216479  -0.009191   0.000194  -1.675191   1.934747
    21  Cl   0.004489  -0.004769  -0.002913   0.000013   0.012953  -0.027478
    22  C   -0.023231   0.057867   0.009373   0.000000  -0.307855   1.104228
    23  C   -0.407333   0.355999  -0.139664   0.001836  -2.838593   1.679829
    24  C   -0.714312   0.731153  -0.260425   0.006552  -5.812927   5.548333
    25  N    0.054008  -0.021826  -0.014441   0.000247   0.134091  -0.131733
    26  O   -0.013977  -0.003838  -0.000006  -0.000009  -0.019103  -0.073675
    27  N   -0.005441   0.000979  -0.001247   0.000001  -0.006593  -0.005863
    28  O    0.002275  -0.001574  -0.000086   0.000000  -0.000160   0.005683
    29  C   -0.370399  -1.031052   0.023236  -0.006052  -4.807213   3.319412
    30  C   -0.010358   0.107081  -0.020971   0.005725  -0.826300   0.265256
    31  O   -0.002395   0.026758  -0.005001   0.000122  -0.007862   0.038269
    32  O   -0.048569  -0.092817  -0.010806   0.005274   0.176078   0.210060
    33  H    0.466614  -0.158788  -0.021379  -0.000226   0.199903  -0.102658
    34  H    0.354451  -0.015002  -0.016483  -0.000177   0.016414   0.027628
    35  H   -0.006951   0.036974  -0.009722   0.000165   0.005305  -0.225924
    36  H   -0.000297   0.001568   0.000223  -0.000000   0.015588  -0.011704
    37  H   -0.000006  -0.000053  -0.000003   0.000000  -0.000649  -0.009794
    38  H   -0.003021  -0.000351  -0.000542   0.000012  -0.030100   0.005472
    39  H    0.000041   0.000020   0.000013  -0.000000   0.000342  -0.000140
    40  H   -0.001330   0.013966   0.002027  -0.000041  -0.136109   0.070706
    41  H    0.002338  -0.018943  -0.001045   0.000011   0.065674  -0.095337
               7          8          9         10         11         12
     1  C    1.431824  -0.993882  -0.029484   0.028064  -0.000465  -0.041616
     2  C   -1.023126   1.951131   0.241331  -0.064547   0.001326   0.068166
     3  C   -0.299762  -0.606119   0.213000   0.012462   0.000003  -0.008050
     4  N   -0.006948   0.010408  -0.002873  -0.000189  -0.000001   0.000255
     5  C   15.663518 -22.932588   0.238353   0.670454  -0.029580  -0.652276
     6  C  -16.045165   4.383711   3.723547  -0.192254  -0.075289   0.147444
     7  C   43.464048 -23.559760   1.671294   1.510711  -0.038344  -1.821216
     8  C  -23.559760  56.115393  -8.966969  -1.013515   0.459141   2.126690
     9  C    1.671294  -8.966969  26.655774  -6.346437  -0.287060   1.283487
    10  C    1.510711  -1.013515  -6.346437  13.294386   0.163543  -0.769143
    11  O   -0.038344   0.459141  -0.287060   0.163543   8.477480  -0.045967
    12  C   -1.821216   2.126690   1.283487  -0.769143  -0.045967   7.290407
    13  O    0.023128  -0.150519  -0.071015   0.091800  -0.089850   0.429292
    14  C    1.943007  -5.439490 -11.125634  -0.358698  -0.273334  -2.127514
    15  C   12.590262  -9.796567  -0.175787   0.203937   0.000135  -0.424084
    16  C    0.473706   1.467129  -0.232625  -0.249291   0.012602  -0.055811
    17  N    1.367766  -0.497795   0.076043   0.518136   0.000959  -0.007426
    18  O   -0.016822  -0.477154   0.076258  -0.053281  -0.000689  -0.006196
    19  O   -0.118794   0.322881  -0.041879  -0.026587   0.000014   0.002960
    20  C   -5.831445  -0.507080   0.427087  -0.178189   0.001928  -0.041513
    21  Cl  -0.055838  -0.004326  -0.013586  -0.005720  -0.000014  -0.000163
    22  C   -0.352910   0.727412  -0.576395   0.161108  -0.000423  -0.011031
    23  C   -8.441824   4.695257  -0.848665  -0.346759   0.008447   0.014285
    24  C  -12.093116   3.754429   0.409162  -0.774559   0.026991  -0.079658
    25  N    1.195986  -0.389078  -0.217543   0.025341  -0.002103  -0.037888
    26  O   -0.360072   0.181990  -0.006966  -0.002927   0.000475   0.013588
    27  N   -0.185084   0.074488   0.020971   0.003032  -0.000061   0.005032
    28  O    0.020928   0.001838  -0.003080   0.000700  -0.000005   0.000111
    29  C   -3.614335   4.795449  -0.042173  -0.222811   0.024353   0.303686
    30  C   -0.702808   0.121746  -0.015891  -0.034646   0.002495   0.010034
    31  O    0.002026   0.003033  -0.004198   0.001371   0.000006  -0.000389
    32  O   -0.119569  -0.058038   0.016222  -0.002526  -0.000010   0.003481
    33  H    0.024428  -0.067993   0.001348  -0.000284  -0.000001  -0.000261
    34  H   -0.033755   0.000936  -0.000527   0.000011   0.000000  -0.000127
    35  H    0.288748  -0.231702  -0.092085   0.001943  -0.000127   0.019043
    36  H    0.070385  -0.144273   0.368783  -0.071486   0.008749  -0.010118
    37  H   -0.013596   0.099565  -0.218149   0.435734  -0.065104  -0.001592
    38  H   -0.000024  -0.083044  -0.010002  -0.008522   0.009542  -0.031791
    39  H    0.004747   0.000089   0.000653   0.000132   0.000000   0.000000
    40  H   -0.133452   0.084102   0.069099  -0.007283   0.000249   0.006906
    41  H   -0.051838  -0.037726  -0.011890   0.009526   0.000012  -0.002396
              13         14         15         16         17         18
     1  C   -0.000041   0.249907   1.003430   0.031937   0.012384   0.014327
     2  C   -0.000791  -0.549290  -0.885239   0.033266  -0.213660  -0.003609
     3  C    0.000405  -0.380047  -0.023524  -0.142497   0.196031  -0.008500
     4  N   -0.000002   0.003429  -0.001118   0.002000  -0.001391   0.000012
     5  C    0.007804   2.913767   7.406247  -1.171544   1.813733   0.264555
     6  C    0.008653  -3.787497 -15.982490  -4.870020  -2.259289   0.209441
     7  C    0.023128   1.943007  12.590262   0.473706   1.367766  -0.016822
     8  C   -0.150519  -5.439490  -9.796567   1.467129  -0.497795  -0.477154
     9  C   -0.071015 -11.125634  -0.175787  -0.232625   0.076043   0.076258
    10  C    0.091800  -0.358698   0.203937  -0.249291   0.518136  -0.053281
    11  O   -0.089850  -0.273334   0.000135   0.012602   0.000959  -0.000689
    12  C    0.429292  -2.127514  -0.424084  -0.055811  -0.007426  -0.006196
    13  O    8.279311  -0.072370   0.010591   0.000308   0.000103  -0.000018
    14  C   -0.072370  25.590208  -0.085057  -0.253790  -0.110853   0.027034
    15  C    0.010591  -0.085057  35.518456   7.609977  -0.174451   0.275909
    16  C    0.000308  -0.253790   7.609977  17.942128  -1.641391   0.145638
    17  N    0.000103  -0.110853  -0.174451  -1.641391  11.072191  -0.508080
    18  O   -0.000018   0.027034   0.275909   0.145638  -0.508080   7.921357
    19  O   -0.000002   0.007499  -0.087022   0.399336  -0.337525   0.024672
    20  C    0.000124  -0.465375  -7.110053  -5.875780  -0.911364   0.240645
    21  Cl   0.000001   0.005946  -0.138827  -0.124562  -0.065052   0.003640
    22  C   -0.000134   0.370785  -0.142639  -3.853782   0.890563  -0.174034
    23  C   -0.000168   0.249775 -13.429208  -2.618190  -0.702088   0.057665
    24  C   -0.002462  -0.875775  -7.418883  -0.715061  -1.782706   0.267123
    25  N   -0.000144   0.396845  -0.793723  -0.356864   0.003671  -0.001756
    26  O    0.000006  -0.004959   0.400635   0.179904   0.003340  -0.000257
    27  N   -0.000005  -0.011772  -0.133966   0.098729   0.010462  -0.001809
    28  O   -0.000001   0.003078   0.055987   0.018093   0.000064  -0.000020
    29  C   -0.000281  -0.643562  -2.704765  -0.395626   0.224116  -0.229311
    30  C    0.000163  -0.183454  -0.179534  -0.031248   0.089611  -0.060153
    31  O   -0.000001   0.003015   0.000276  -0.001477   0.002649  -0.000446
    32  O    0.000011  -0.014101  -0.075414  -0.012387   0.018037  -0.002861
    33  H    0.000000   0.000115   0.041229  -0.006469  -0.005236   0.000240
    34  H   -0.000000  -0.000041  -0.009725  -0.002438   0.000392  -0.000002
    35  H    0.000084   0.195564   0.085156   0.025882  -0.005958  -0.000011
    36  H    0.000123  -0.025809   0.067998   0.032646   0.000990  -0.011309
    37  H   -0.000992   0.066754   0.000986   0.000553   0.000172  -0.000114
    38  H   -0.009347   0.350384   0.022003   0.011302  -0.000090  -0.000008
    39  H    0.000000  -0.000151   0.043755   0.066544   0.003183  -0.000185
    40  H   -0.000047  -0.041192  -0.007223   0.005396  -0.013322   0.002139
    41  H   -0.000001   0.007429  -0.073142  -0.052334   0.090900  -0.021776
              19         20         21         22         23         24
     1  C   -0.024165  -0.207524   0.004489  -0.023231  -0.407333  -0.714312
     2  C    0.051338   0.216479  -0.004769   0.057867   0.355999   0.731153
     3  C   -0.026067  -0.009191  -0.002913   0.009373  -0.139664  -0.260425
     4  N    0.000184   0.000194   0.000013   0.000000   0.001836   0.006552
     5  C   -0.781228  -1.675191   0.012953  -0.307855  -2.838593  -5.812927
     6  C    0.543212   1.934747  -0.027478   1.104228   1.679829   5.548333
     7  C   -0.118794  -5.831445  -0.055838  -0.352910  -8.441824 -12.093116
     8  C    0.322881  -0.507080  -0.004326   0.727412   4.695257   3.754429
     9  C   -0.041879   0.427087  -0.013586  -0.576395  -0.848665   0.409162
    10  C   -0.026587  -0.178189  -0.005720   0.161108  -0.346759  -0.774559
    11  O    0.000014   0.001928  -0.000014  -0.000423   0.008447   0.026991
    12  C    0.002960  -0.041513  -0.000163  -0.011031   0.014285  -0.079658
    13  O   -0.000002   0.000124   0.000001  -0.000134  -0.000168  -0.002462
    14  C    0.007499  -0.465375   0.005946   0.370785   0.249775  -0.875775
    15  C   -0.087022  -7.110053  -0.138827  -0.142639 -13.429208  -7.418883
    16  C    0.399336  -5.875780  -0.124562  -3.853782  -2.618190  -0.715061
    17  N   -0.337525  -0.911364  -0.065052   0.890563  -0.702088  -1.782706
    18  O    0.024672   0.240645   0.003640  -0.174034   0.057665   0.267123
    19  O    7.761902   0.056247   0.019185  -0.144489   0.069601   0.179408
    20  C    0.056247  19.282232   0.150234  -4.273430   5.281065   5.993766
    21  Cl   0.019185   0.150234  16.938377  -0.223158   0.102212   0.127854
    22  C   -0.144489  -4.273430  -0.223158  20.968959  -2.359337  -6.531098
    23  C    0.069601   5.281065   0.102212  -2.359337  24.093783   2.292849
    24  C    0.179408   5.993766   0.127854  -6.531098   2.292849  23.993021
    25  N    0.000553  -0.176729   0.001452   0.492770   0.542005  -1.249887
    26  O   -0.000059   0.011420  -0.002196  -0.020020  -0.515016   0.420975
    27  N   -0.000430   0.189321  -0.004929  -0.655513  -0.281609   0.436989
    28  O   -0.000022   0.036075   0.002572  -0.006900  -0.187175  -0.089842
    29  C    0.069949  -0.089966  -0.012591   0.031296   0.257509   0.377029
    30  C    0.010700   0.087799   0.000568   0.013182   0.029055   0.143519
    31  O   -0.001440   0.000043   0.000015   0.000028  -0.000057  -0.000862
    32  O   -0.002490  -0.000648  -0.000170   0.002413  -0.002791  -0.003608
    33  H    0.001910   0.009060   0.000218  -0.012203  -0.026154   0.002814
    34  H   -0.000117   0.002732   0.000021   0.001579   0.007343   0.021731
    35  H    0.000313   0.024603  -0.000006   0.006683   0.049509   0.122318
    36  H    0.000432   0.009259   0.000195  -0.010277   0.001977   0.006559
    37  H   -0.000002   0.000677   0.000004   0.000395   0.001688   0.004639
    38  H   -0.000006   0.002886  -0.000002   0.000136   0.011885   0.066279
    39  H   -0.000199  -0.077658  -0.023958   0.142130   0.148536   0.026378
    40  H    0.000662   0.000921  -0.000004  -0.000297   0.001128   0.010241
    41  H   -0.009558   0.003890  -0.000015   0.003710  -0.002097  -0.007474
              25         26         27         28         29         30
     1  C    0.054008  -0.013977  -0.005441   0.002275  -0.370399  -0.010358
     2  C   -0.021826  -0.003838   0.000979  -0.001574  -1.031052   0.107081
     3  C   -0.014441  -0.000006  -0.001247  -0.000086   0.023236  -0.020971
     4  N    0.000247  -0.000009   0.000001   0.000000  -0.006052   0.005725
     5  C    0.134091  -0.019103  -0.006593  -0.000160  -4.807213  -0.826300
     6  C   -0.131733  -0.073675  -0.005863   0.005683   3.319412   0.265256
     7  C    1.195986  -0.360072  -0.185084   0.020928  -3.614335  -0.702808
     8  C   -0.389078   0.181990   0.074488   0.001838   4.795449   0.121746
     9  C   -0.217543  -0.006966   0.020971  -0.003080  -0.042173  -0.015891
    10  C    0.025341  -0.002927   0.003032   0.000700  -0.222811  -0.034646
    11  O   -0.002103   0.000475  -0.000061  -0.000005   0.024353   0.002495
    12  C   -0.037888   0.013588   0.005032   0.000111   0.303686   0.010034
    13  O   -0.000144   0.000006  -0.000005  -0.000001  -0.000281   0.000163
    14  C    0.396845  -0.004959  -0.011772   0.003078  -0.643562  -0.183454
    15  C   -0.793723   0.400635  -0.133966   0.055987  -2.704765  -0.179534
    16  C   -0.356864   0.179904   0.098729   0.018093  -0.395626  -0.031248
    17  N    0.003671   0.003340   0.010462   0.000064   0.224116   0.089611
    18  O   -0.001756  -0.000257  -0.001809  -0.000020  -0.229311  -0.060153
    19  O    0.000553  -0.000059  -0.000430  -0.000022   0.069949   0.010700
    20  C   -0.176729   0.011420   0.189321   0.036075  -0.089966   0.087799
    21  Cl   0.001452  -0.002196  -0.004929   0.002572  -0.012591   0.000568
    22  C    0.492770  -0.020020  -0.655513  -0.006900   0.031296   0.013182
    23  C    0.542005  -0.515016  -0.281609  -0.187175   0.257509   0.029055
    24  C   -1.249887   0.420975   0.436989  -0.089842   0.377029   0.143519
    25  N    8.916986  -0.451087  -0.453242   0.050598  -0.017902  -0.004438
    26  O   -0.451087   7.728082   0.130845  -0.066684   0.006526   0.000321
    27  N   -0.453242   0.130845   7.920732   0.402311   0.000804   0.000642
    28  O    0.050598  -0.066684   0.402311   7.658846   0.000104   0.000002
    29  C   -0.017902   0.006526   0.000804   0.000104  10.524151  -0.028918
    30  C   -0.004438   0.000321   0.000642   0.000002  -0.028918   6.289374
    31  O   -0.000030  -0.000000  -0.000000   0.000000  -0.155649   0.412424
    32  O    0.000184   0.000008   0.000004   0.000000  -0.108131  -0.036469
    33  H   -0.001556  -0.000077   0.000019  -0.000004   0.002214  -0.000698
    34  H   -0.001018   0.000064   0.000101  -0.000002  -0.000150   0.000485
    35  H    0.005770  -0.001018  -0.000494   0.000000  -0.048437  -0.002710
    36  H   -0.001143   0.000039  -0.000147  -0.000001   0.003604   0.007370
    37  H   -0.000016   0.000001   0.000001  -0.000000   0.003425   0.000444
    38  H   -0.002142  -0.000146  -0.000050  -0.000002  -0.001286   0.001589
    39  H   -0.002080  -0.000830  -0.014628   0.004808  -0.000027  -0.000004
    40  H   -0.000134   0.000000  -0.000001  -0.000000   0.378937   0.011426
    41  H    0.000080   0.000000   0.000009   0.000000   0.459213   0.049464
              31         32         33         34         35         36
     1  C   -0.002395  -0.048569   0.466614   0.354451  -0.006951  -0.000297
     2  C    0.026758  -0.092817  -0.158788  -0.015002   0.036974   0.001568
     3  C   -0.005001  -0.010806  -0.021379  -0.016483  -0.009722   0.000223
     4  N    0.000122   0.005274  -0.000226  -0.000177   0.000165  -0.000000
     5  C   -0.007862   0.176078   0.199903   0.016414   0.005305   0.015588
     6  C    0.038269   0.210060  -0.102658   0.027628  -0.225924  -0.011704
     7  C    0.002026  -0.119569   0.024428  -0.033755   0.288748   0.070385
     8  C    0.003033  -0.058038  -0.067993   0.000936  -0.231702  -0.144273
     9  C   -0.004198   0.016222   0.001348  -0.000527  -0.092085   0.368783
    10  C    0.001371  -0.002526  -0.000284   0.000011   0.001943  -0.071486
    11  O    0.000006  -0.000010  -0.000001   0.000000  -0.000127   0.008749
    12  C   -0.000389   0.003481  -0.000261  -0.000127   0.019043  -0.010118
    13  O   -0.000001   0.000011   0.000000  -0.000000   0.000084   0.000123
    14  C    0.003015  -0.014101   0.000115  -0.000041   0.195564  -0.025809
    15  C    0.000276  -0.075414   0.041229  -0.009725   0.085156   0.067998
    16  C   -0.001477  -0.012387  -0.006469  -0.002438   0.025882   0.032646
    17  N    0.002649   0.018037  -0.005236   0.000392  -0.005958   0.000990
    18  O   -0.000446  -0.002861   0.000240  -0.000002  -0.000011  -0.011309
    19  O   -0.001440  -0.002490   0.001910  -0.000117   0.000313   0.000432
    20  C    0.000043  -0.000648   0.009060   0.002732   0.024603   0.009259
    21  Cl   0.000015  -0.000170   0.000218   0.000021  -0.000006   0.000195
    22  C    0.000028   0.002413  -0.012203   0.001579   0.006683  -0.010277
    23  C   -0.000057  -0.002791  -0.026154   0.007343   0.049509   0.001977
    24  C   -0.000862  -0.003608   0.002814   0.021731   0.122318   0.006559
    25  N   -0.000030   0.000184  -0.001556  -0.001018   0.005770  -0.001143
    26  O   -0.000000   0.000008  -0.000077   0.000064  -0.001018   0.000039
    27  N   -0.000000   0.000004   0.000019   0.000101  -0.000494  -0.000147
    28  O    0.000000   0.000000  -0.000004  -0.000002   0.000000  -0.000001
    29  C   -0.155649  -0.108131   0.002214  -0.000150  -0.048437   0.003604
    30  C    0.412424  -0.036469  -0.000698   0.000485  -0.002710   0.007370
    31  O    8.193550  -0.052670   0.000003  -0.000001   0.000013   0.000004
    32  O   -0.052670   8.399487  -0.000119  -0.000216   0.000738   0.000038
    33  H    0.000003  -0.000119   0.531110  -0.030482  -0.002042   0.000000
    34  H   -0.000001  -0.000216  -0.030482   0.505088   0.000227   0.000000
    35  H    0.000013   0.000738  -0.002042   0.000227   0.582679  -0.000118
    36  H    0.000004   0.000038   0.000000   0.000000  -0.000118   0.535864
    37  H    0.000000   0.000000  -0.000000   0.000000   0.000003  -0.002620
    38  H   -0.000002   0.000082  -0.000000   0.000000   0.005408  -0.000105
    39  H   -0.000000  -0.000000   0.000000   0.000000  -0.000000   0.000000
    40  H   -0.003369   0.007705  -0.000001   0.000000   0.000033  -0.000164
    41  H   -0.004315   0.014783   0.000006  -0.000000  -0.000152  -0.000397
              37         38         39         40         41
     1  C   -0.000006  -0.003021   0.000041  -0.001330   0.002338
     2  C   -0.000053  -0.000351   0.000020   0.013966  -0.018943
     3  C   -0.000003  -0.000542   0.000013   0.002027  -0.001045
     4  N    0.000000   0.000012  -0.000000  -0.000041   0.000011
     5  C   -0.000649  -0.030100   0.000342  -0.136109   0.065674
     6  C   -0.009794   0.005472  -0.000140   0.070706  -0.095337
     7  C   -0.013596  -0.000024   0.004747  -0.133452  -0.051838
     8  C    0.099565  -0.083044   0.000089   0.084102  -0.037726
     9  C   -0.218149  -0.010002   0.000653   0.069099  -0.011890
    10  C    0.435734  -0.008522   0.000132  -0.007283   0.009526
    11  O   -0.065104   0.009542   0.000000   0.000249   0.000012
    12  C   -0.001592  -0.031791   0.000000   0.006906  -0.002396
    13  O   -0.000992  -0.009347   0.000000  -0.000047  -0.000001
    14  C    0.066754   0.350384  -0.000151  -0.041192   0.007429
    15  C    0.000986   0.022003   0.043755  -0.007223  -0.073142
    16  C    0.000553   0.011302   0.066544   0.005396  -0.052334
    17  N    0.000172  -0.000090   0.003183  -0.013322   0.090900
    18  O   -0.000114  -0.000008  -0.000185   0.002139  -0.021776
    19  O   -0.000002  -0.000006  -0.000199   0.000662  -0.009558
    20  C    0.000677   0.002886  -0.077658   0.000921   0.003890
    21  Cl   0.000004  -0.000002  -0.023958  -0.000004  -0.000015
    22  C    0.000395   0.000136   0.142130  -0.000297   0.003710
    23  C    0.001688   0.011885   0.148536   0.001128  -0.002097
    24  C    0.004639   0.066279   0.026378   0.010241  -0.007474
    25  N   -0.000016  -0.002142  -0.002080  -0.000134   0.000080
    26  O    0.000001  -0.000146  -0.000830   0.000000   0.000000
    27  N    0.000001  -0.000050  -0.014628  -0.000001   0.000009
    28  O   -0.000000  -0.000002   0.004808  -0.000000   0.000000
    29  C    0.003425  -0.001286  -0.000027   0.378937   0.459213
    30  C    0.000444   0.001589  -0.000004   0.011426   0.049464
    31  O    0.000000  -0.000002  -0.000000  -0.003369  -0.004315
    32  O    0.000000   0.000082  -0.000000   0.007705   0.014783
    33  H   -0.000000  -0.000000   0.000000  -0.000001   0.000006
    34  H    0.000000   0.000000   0.000000   0.000000  -0.000000
    35  H    0.000003   0.005408  -0.000000   0.000033  -0.000152
    36  H   -0.002620  -0.000105   0.000000  -0.000164  -0.000397
    37  H    0.535962   0.000020  -0.000000  -0.000013  -0.000001
    38  H    0.000020   0.545578   0.000000  -0.000029   0.000001
    39  H   -0.000000   0.000000   0.488527  -0.000000  -0.000000
    40  H   -0.000013  -0.000029  -0.000000   0.488521  -0.020859
    41  H   -0.000001   0.000001  -0.000000  -0.020859   0.485167
 Mulliken charges:
               1
     1  C   -0.233900
     2  C    0.288815
     3  C    0.080378
     4  N   -0.478137
     5  C    0.882522
     6  C   -0.286832
     7  C   -0.826907
     8  C    0.580801
     9  C   -0.151501
    10  C   -0.402739
    11  O   -0.290027
    12  C    0.451360
    13  O   -0.453721
    14  C    0.445227
    15  C    0.515471
    16  C    0.106109
    17  N   -0.157820
    18  O    0.047746
    19  O    0.079122
    20  C   -0.532298
    21  Cl   0.340327
    22  C    0.694540
    23  C   -0.806511
    24  C   -0.557458
    25  N   -0.492082
    26  O    0.464704
    27  N   -0.532588
    28  O    0.091483
    29  C   -0.274375
    30  C    0.478124
    31  O   -0.443439
    32  O   -0.210193
    33  H    0.155403
    34  H    0.171058
    35  H    0.170297
    36  H    0.157574
    37  H    0.161680
    38  H    0.148033
    39  H    0.189960
    40  H    0.210708
    41  H    0.219084
 Sum of Mulliken charges =  -0.00000
 Mulliken charges with hydrogens summed into heavy atoms:
               1
     1  C    0.092561
     2  C    0.288815
     3  C    0.080378
     4  N   -0.478137
     5  C    0.882522
     6  C   -0.286832
     7  C   -0.656609
     8  C    0.580801
     9  C    0.006073
    10  C   -0.241058
    11  O   -0.290027
    12  C    0.451360
    13  O   -0.453721
    14  C    0.593260
    15  C    0.515471
    16  C    0.106109
    17  N   -0.157820
    18  O    0.047746
    19  O    0.079122
    20  C   -0.532298
    21  Cl   0.340327
    22  C    0.884500
    23  C   -0.806511
    24  C   -0.557458
    25  N   -0.492082
    26  O    0.464704
    27  N   -0.532588
    28  O    0.091483
    29  C    0.155416
    30  C    0.478124
    31  O   -0.443439
    32  O   -0.210193
 Electronic spatial extent (au):  <R**2>=          12487.3390
 Charge=             -0.0000 electrons
 Dipole moment (field-independent basis, Debye):
    X=              8.1251    Y=             -2.4048    Z=             -2.6977  Tot=              8.8925
 Quadrupole moment (field-independent basis, Debye-Ang):
   XX=           -226.6414   YY=           -224.5071   ZZ=           -196.6729
   XY=            -14.3078   XZ=              1.6814   YZ=            -12.1019
 Traceless Quadrupole moment (field-independent basis, Debye-Ang):
   XX=            -10.7010   YY=             -8.5666   ZZ=             19.2676
   XY=            -14.3078   XZ=              1.6814   YZ=            -12.1019
 Octapole moment (field-independent basis, Debye-Ang**2):
  XXX=            184.3568  YYY=           -176.7334  ZZZ=            -83.1458  XYY=            100.6342
  XXY=             24.8730  XXZ=            -97.2707  XZZ=             69.1535  YZZ=             27.6714
  YYZ=            -20.7555  XYZ=            -16.6293
 Hexadecapole moment (field-independent basis, Debye-Ang**3):
 XXXX=          -8725.1581 YYYY=          -6492.5523 ZZZZ=          -3655.8409 XXXY=           -555.0322
 XXXZ=             14.8055 YYYX=            293.6539 YYYZ=             22.7468 ZZZX=            317.9021
 ZZZY=             -4.8328 XXYY=          -2350.4963 XXZZ=          -2336.5552 YYZZ=          -1419.3330
 XXYZ=             37.6301 YYXZ=              2.5176 ZZXY=           -175.5404
 N-N= 3.408679305361D+03 E-N=-1.151951795858D+04  KE= 1.994834266579D+03
 Unable to Open any file for archive entry.
 1\1\GINC-N2\SP\RB3LYP TD-FC\6-31+G(d,p)\C19H9Cl1N4O8\HPCMGAC13\25-Aug-
 2025\0\\# td=(50-50,nstates=3) b3lyp/6-31+g(d,p) geom=connectivity\\Ti
 tle Card Required\\0,1\C,0,-0.843204,-1.841176,2.703785\C,0,-2.075868,
 -1.549415,2.245462\C,0,-3.195461,-1.544929,3.153917\N,0,-4.087693,-1.5
 28808,3.899052\C,0,-2.3691,-1.218431,0.84137\C,0,-1.73769,-0.423017,-0
 .049083\C,0,-0.547088,0.467768,0.254823\C,0,-0.659079,1.82213,-0.46071
 9\C,0,-0.287876,1.962404,-1.84409\C,0,-0.424129,3.177637,-2.425189\O,0
 ,-0.889063,4.259549,-1.775945\C,0,-1.277998,4.206723,-0.416132\O,0,-1.
 684752,5.22506,0.08901\C,0,-1.132194,2.907074,0.214969\C,0,0.868594,-0
 .10378,0.085153\C,0,1.324669,-1.111768,-0.727112\N,0,0.379608,-1.83561
 8,-1.611134\O,0,0.121252,-1.306065,-2.690752\O,0,-0.05213,-2.908305,-1
 .21279\C,0,2.705184,-1.547761,-0.811563\Cl,0,3.12845,-2.815972,-1.9241
 14\C,0,3.679586,-0.966471,-0.04624\C,0,3.245529,0.060316,0.820172\C,0,
 1.894822,0.494479,0.902967\N,0,1.746567,1.453608,1.804051\O,0,2.986384
 ,1.675601,2.328159\N,0,3.950287,0.787985,1.703254\O,0,5.122694,0.83478
 8,2.040734\C,0,-2.586215,-0.405346,-1.299438\C,0,-3.743755,-1.325066,-
 0.946033\O,0,-4.691076,-1.662545,-1.594224\O,0,-3.539299,-1.781062,0.3
 55223\H,0,0.001444,-1.908126,2.028694\H,0,-0.67206,-2.044732,3.754724\
 H,0,-0.605346,0.689681,1.326735\H,0,0.086782,1.130292,-2.426614\H,0,-0
 .177076,3.398059,-3.457599\H,0,-1.411521,2.86379,1.261545\H,0,4.717492
 ,-1.271759,-0.096902\H,0,-2.973934,0.59116,-1.541352\H,0,-2.095259,-0.
 781415,-2.203276\\Version=ES64L-G16RevC.02\State=1-A\HF=-2010.1564476\
 RMSD=9.519e-10\PG=C01 [X(C19H9Cl1N4O8)]\\@
 The archive entry for this job was punched.


 THE MOST BEAUTIFUL EXPERIENCE WE CAN HAVE IS THE MYSTERIOUS.
 IT IS THE FUNDAMENTAL EMOTION WHICH STANDS AT AT THE CRADLE 
 OF TRUE ART AND TRUE SCIENCE.

                                    -- ALBERT EINSTEIN
 Job cpu time:       0 days  4 hours 46 minutes  8.9 seconds.
 Elapsed time:       0 days  0 hours 18 minutes 17.8 seconds.
 File lengths (MBytes):  RWF=   2424 Int=      0 D2E=      0 Chk=    112 Scr=      2
 Normal termination of Gaussian 16 at Mon Aug 25 15:00:51 2025.
