 Entering Gaussian System, Link 0=g16
 Input=M801E.gjf
 Output=M801E.log
 Initial command:
 /hpc/softwares/Gaussian/g16/l1.exe "/hpc/home/hpcmgac13/pbs.13425.admin1.x8z/Gau-3286945.inp" -scrdir="/hpc/home/hpcmgac13/pbs.13425.admin1.x8z/"
 Default linda workers: n2
 Default is to use  16 SMP processors on each worker.
 Entering Link 1 = /hpc/softwares/Gaussian/g16/l1.exe PID=   3286946.
  
 Copyright (c) 1988-2021, Gaussian, Inc.  All Rights Reserved.
  
 This is part of the Gaussian(R) 16 program.  It is based on
 the Gaussian(R) 09 system (copyright 2009, Gaussian, Inc.),
 the Gaussian(R) 03 system (copyright 2003, Gaussian, Inc.),
 the Gaussian(R) 98 system (copyright 1998, Gaussian, Inc.),
 the Gaussian(R) 94 system (copyright 1995, Gaussian, Inc.),
 the Gaussian 92(TM) system (copyright 1992, Gaussian, Inc.),
 the Gaussian 90(TM) system (copyright 1990, Gaussian, Inc.),
 the Gaussian 88(TM) system (copyright 1988, Gaussian, Inc.),
 the Gaussian 86(TM) system (copyright 1986, Carnegie Mellon
 University), and the Gaussian 82(TM) system (copyright 1983,
 Carnegie Mellon University). Gaussian is a federally registered
 trademark of Gaussian, Inc.
  
 This software contains proprietary and confidential information,
 including trade secrets, belonging to Gaussian, Inc.
  
 This software is provided under written license and may be
 used, copied, transmitted, or stored only in accord with that
 written license.
  
 The following legend is applicable only to US Government
 contracts under FAR:
  
                    RESTRICTED RIGHTS LEGEND
  
 Use, reproduction and disclosure by the US Government is
 subject to restrictions as set forth in subparagraphs (a)
 and (c) of the Commercial Computer Software - Restricted
 Rights clause in FAR 52.227-19.
  
 Gaussian, Inc.
 340 Quinnipiac St., Bldg. 40, Wallingford CT 06492
  
  
 ---------------------------------------------------------------
 Warning -- This program may not be used in any manner that
 competes with the business of Gaussian, Inc. or will provide
 assistance to any competitor of Gaussian, Inc.  The licensee
 of this program is prohibited from giving any competitor of
 Gaussian, Inc. access to this program.  By using this program,
 the user acknowledges that Gaussian, Inc. is engaged in the
 business of creating and licensing software in the field of
 computational chemistry and represents and warrants to the
 licensee that it is not a competitor of Gaussian, Inc. and that
 it will not use this program in any manner prohibited above.
 ---------------------------------------------------------------
  

 Cite this work as:
 Gaussian 16, Revision C.02,
 M. J. Frisch, G. W. Trucks, H. B. Schlegel, G. E. Scuseria, 
 M. A. Robb, J. R. Cheeseman, G. Scalmani, V. Barone, 
 G. A. Petersson, H. Nakatsuji, X. Li, M. Caricato, A. V. Marenich, 
 J. Bloino, B. G. Janesko, R. Gomperts, B. Mennucci, H. P. Hratchian, 
 J. V. Ortiz, A. F. Izmaylov, J. L. Sonnenberg, D. Williams-Young, 
 F. Ding, F. Lipparini, F. Egidi, J. Goings, B. Peng, A. Petrone, 
 T. Henderson, D. Ranasinghe, V. G. Zakrzewski, J. Gao, N. Rega, 
 G. Zheng, W. Liang, M. Hada, M. Ehara, K. Toyota, R. Fukuda, 
 J. Hasegawa, M. Ishida, T. Nakajima, Y. Honda, O. Kitao, H. Nakai, 
 T. Vreven, K. Throssell, J. A. Montgomery, Jr., J. E. Peralta, 
 F. Ogliaro, M. J. Bearpark, J. J. Heyd, E. N. Brothers, K. N. Kudin, 
 V. N. Staroverov, T. A. Keith, R. Kobayashi, J. Normand, 
 K. Raghavachari, A. P. Rendell, J. C. Burant, S. S. Iyengar, 
 J. Tomasi, M. Cossi, J. M. Millam, M. Klene, C. Adamo, R. Cammi, 
 J. W. Ochterski, R. L. Martin, K. Morokuma, O. Farkas, 
 J. B. Foresman, and D. J. Fox, Gaussian, Inc., Wallingford CT, 2019.
 
 ******************************************
 Gaussian 16:  ES64L-G16RevC.02  7-Dec-2021
                25-Aug-2025 
 ******************************************
 SetLPE:    new flags="-opt 'Tsnet.Node.lindarsharg: ssh'  -nodelist 'n2.head.cm.mguif.local' -env GAUSS_MDEF=2147483648 -env GAUSS_EXEDIR="/hpc/softwares/Gaussian/g16/bsd:/hpc/softwares/Gaussian/g16""
 Will use up to    1 processors via Linda.
 ----------------------------------------------------------
 # td=(50-50,nstates=3) b3lyp/6-31+g(d,p) geom=connectivity
 ----------------------------------------------------------
 1/38=1,57=2,172=1/1;
 2/12=2,17=6,18=5,40=1/2;
 3/5=1,6=6,7=111,11=9,25=1,30=1,74=-5/1,2,3,8;
 4//1;
 5/5=2,38=5/2;
 8/6=1,10=2,108=3/1;
 9/41=3,42=1,48=2,70=2/14;
 6/7=2,8=2,9=2,10=2/1;
 99/5=1,9=1/99;
 -------------------
 Title Card Required
 -------------------
 Symbolic Z-matrix:
 Charge =  0 Multiplicity = 1
 C                     5.25601   3.91235  -0.13847 
 C                     5.18178   2.40313  -0.0951 
 C                     6.32799   1.62487   0.09496 
 C                     6.32921   0.21661   0.14581 
 C                     7.64234  -0.50691   0.3625 
 C                     5.08248  -0.40513  -0.00954 
 C                     3.9156    0.35616  -0.20653 
 C                     3.95191   1.74     -0.24603 
 C                     2.73038  -0.57365  -0.35513 
 C                     1.6383   -0.34079   0.65921 
 C                     0.36884  -0.13013   0.35588 
 C                    -0.85303   0.08358   0.07435 
 C                    -2.09453   0.29992  -0.21305 
 C                    -3.31478   0.51754  -0.49816 
 C                    -4.58375   0.74071  -0.79604 
 C                    -5.64431   0.99408   0.26983 
 C                    -6.23511   2.33666   0.10133 
 N                    -6.72329   3.38452  -0.01187 
 C                    -6.73766  -0.06548   0.2819 
 N                    -7.93502   0.18211   0.83048 
 S                    -6.46574  -1.62565  -0.2998 
 O                    -7.78841  -2.3718   -0.03066 
 C                     3.38027  -1.96901  -0.19232 
 O                     2.80795  -3.04535  -0.232 
 N                     4.73852  -1.78292  -0.00571 
 C                     5.62449  -2.92833   0.14507 
 H                     6.28208   4.26428   0.00076 
 H                     4.89719   4.30266  -1.09813 
 H                     4.63856   4.36558   0.64595 
 H                     7.28307   2.13171   0.21319 
 H                     7.88714  -1.18339  -0.46226 
 H                     8.45594   0.2189    0.43866 
 H                     7.64565  -1.09566   1.28546 
 H                     3.03527   2.30632  -0.3929 
 H                     2.30292  -0.5316   -1.36348 
 H                     1.93758  -0.34761   1.70781 
 H                    -4.9195    0.76943  -1.83095 
 H                    -5.15757   0.98798   1.25503 
 H                    -8.60069  -0.59091   0.7863 
 H                    -8.25142   1.11925   1.03473 
 H                     4.99683  -3.81941   0.10217 
 H                     6.3587   -2.97005  -0.66388 
 H                     6.14382  -2.90291   1.10637 
 
                          Input orientation:                          
 ---------------------------------------------------------------------
 Center     Atomic      Atomic             Coordinates (Angstroms)
 Number     Number       Type             X           Y           Z
 ---------------------------------------------------------------------
      1          6           0        5.256005    3.912347   -0.138470
      2          6           0        5.181785    2.403132   -0.095102
      3          6           0        6.327987    1.624874    0.094958
      4          6           0        6.329207    0.216610    0.145808
      5          6           0        7.642336   -0.506908    0.362504
      6          6           0        5.082477   -0.405133   -0.009544
      7          6           0        3.915603    0.356161   -0.206525
      8          6           0        3.951910    1.740000   -0.246025
      9          6           0        2.730377   -0.573645   -0.355125
     10          6           0        1.638295   -0.340786    0.659207
     11          6           0        0.368839   -0.130130    0.355880
     12          6           0       -0.853027    0.083584    0.074348
     13          6           0       -2.094527    0.299919   -0.213048
     14          6           0       -3.314783    0.517538   -0.498155
     15          6           0       -4.583754    0.740705   -0.796039
     16          6           0       -5.644313    0.994078    0.269830
     17          6           0       -6.235109    2.336663    0.101331
     18          7           0       -6.723287    3.384516   -0.011871
     19          6           0       -6.737658   -0.065477    0.281904
     20          7           0       -7.935017    0.182105    0.830479
     21         16           0       -6.465741   -1.625653   -0.299798
     22          8           0       -7.788413   -2.371803   -0.030664
     23          6           0        3.380270   -1.969013   -0.192322
     24          8           0        2.807950   -3.045345   -0.231996
     25          7           0        4.738521   -1.782915   -0.005710
     26          6           0        5.624492   -2.928331    0.145073
     27          1           0        6.282079    4.264282    0.000758
     28          1           0        4.897189    4.302660   -1.098125
     29          1           0        4.638555    4.365579    0.645951
     30          1           0        7.283071    2.131713    0.213185
     31          1           0        7.887143   -1.183392   -0.462256
     32          1           0        8.455944    0.218898    0.438661
     33          1           0        7.645646   -1.095664    1.285457
     34          1           0        3.035269    2.306315   -0.392898
     35          1           0        2.302921   -0.531595   -1.363477
     36          1           0        1.937582   -0.347613    1.707814
     37          1           0       -4.919498    0.769433   -1.830945
     38          1           0       -5.157567    0.987979    1.255027
     39          1           0       -8.600689   -0.590914    0.786297
     40          1           0       -8.251422    1.119248    1.034735
     41          1           0        4.996834   -3.819406    0.102169
     42          1           0        6.358697   -2.970049   -0.663883
     43          1           0        6.143823   -2.902905    1.106369
 ---------------------------------------------------------------------
                    Distance matrix (angstroms):
                    1          2          3          4          5
     1  C    0.000000
     2  C    1.511661   0.000000
     3  C    2.536960   1.398423   0.000000
     4  C    3.858892   2.481027   1.409182   0.000000
     5  C    5.047313   3.838235   2.518648   1.514841   0.000000
     6  C    4.322889   2.811323   2.383935   1.401797   2.588756
     7  C    3.801022   2.409507   2.742284   2.443174   3.867457
     8  C    2.536005   1.405388   2.403178   2.850577   4.363273
     9  C    5.152656   3.864999   4.240148   3.718469   4.964553
    10  C    5.640324   4.544710   5.116191   4.751729   6.013663
    11  C    6.361635   5.457586   6.217682   5.974140   7.283252
    12  C    7.212835   6.467455   7.344587   7.183821   8.520734
    13  C    8.190575   7.575100   8.531654   8.431786   9.787172
    14  C    9.225644   8.712611   9.724247   9.670149  11.038509
    15  C   10.359178   9.930797  10.983703  10.966060  12.344069
    16  C   11.291587  10.923507  11.990181  11.999376  13.371484
    17  C   11.601120  11.418777  12.583245  12.742003  14.168189
    18  N   11.991583  11.945743  13.169795  13.432352  14.888064
    19  C   12.643091  12.178230  13.175861  13.070618  14.386994
    20  N   13.742512  13.335672  14.354646  14.280688  15.599605
    21  S   12.965138  12.326308  13.206106  12.934574  14.167853
    22  O   14.479606  13.821367  14.671808  14.354031  15.548004
    23  C    6.173466   4.729753   4.656994   3.686124   4.539911
    24  O    7.376395   5.944723   5.857346   4.814804   5.492575
    25  N    5.720264   4.210399   3.761590   2.559559   3.193105
    26  C    6.856461   5.355200   4.607504   3.222930   3.159471
    27  H    1.093650   2.164189   2.641487   4.050544   4.974476
    28  H    1.096372   2.166854   3.262080   4.504870   5.727234
    29  H    1.096349   2.166900   3.266380   4.508036   5.730984
    30  H    2.720903   2.141054   1.087680   2.140564   2.667150
    31  H    5.744065   4.507429   3.260033   2.181035   1.094436
    32  H    4.920798   3.971889   2.573539   2.146807   1.092956
    33  H    5.728711   4.496457   3.248821   2.180338   1.094754
    34  H    2.752406   2.169236   3.397699   3.937905   5.450681
    35  H    5.474483   4.302238   4.793594   4.364485   5.611504
    36  H    5.706834   4.619736   5.076186   4.695166   5.863399
    37  H   10.783471  10.378730  11.443199  11.434445  12.815613
    38  H   10.905789  10.522723  11.561546  11.565957  12.917771
    39  H   14.599401  14.131446  15.108045  14.965431  16.248770
    40  H   13.842991  13.541637  14.618413  14.635562  15.990867
    41  H    7.739837   6.228411   5.604659   4.250476   4.247246
    42  H    6.989947   5.529892   4.657263   3.288049   2.961125
    43  H    6.984662   5.524770   4.643022   3.269315   2.922273
                    6          7          8          9         10
     6  C    0.000000
     7  C    1.407112   0.000000
     8  C    2.436329   1.384879   0.000000
     9  C    2.383316   1.513731   2.618587   0.000000
    10  C    3.509096   2.534040   3.240668   1.508554   0.000000
    11  C    4.735773   3.623853   4.086328   2.505812   1.322082
    12  C    5.956181   4.784665   5.092521   3.668403   2.594000
    13  C    7.214423   6.010397   6.215651   4.905405   3.886553
    14  C    8.461917   7.238064   7.373114   6.144518   5.158409
    15  C    9.765631   8.528451   8.611543   7.444356   6.480838
    16  C   10.821269   9.593010   9.638983   8.543053   7.414166
    17  C   11.645492  10.346696  10.210388   9.437064   8.334893
    18  N   12.399093  11.063219  10.803661  10.254590   9.178468
    19  C   11.828605  10.672784  10.853816   9.503038   8.388965
    20  N   13.057781  11.897179  12.036816  10.757669   9.589111
    21  S   11.616164  10.569228  10.947966   9.256261   8.261112
    22  O   13.020294  12.019014  12.441402  10.676310   9.667667
    23  C    2.318758   2.386046   3.753190   1.547875   2.531936
    24  O    3.491945   3.577399   4.920200   2.475980   3.078470
    25  N    1.420072   2.300688   3.617656   2.370035   3.483282
    26  C    2.585385   3.719114   4.974314   3.764392   4.780114
    27  H    4.821057   4.573465   3.444211   6.012219   6.573046
    28  H    4.835562   4.163330   2.861268   5.387529   5.938872
    29  H    4.835952   4.162308   2.856706   5.388806   5.581362
    30  H    3.365681   3.829959   3.385402   5.326252   6.178647
    31  H    2.945639   4.267171   4.907039   5.193795   6.404355
    32  H    3.459853   4.588006   4.803006   5.834410   6.844138
    33  H    2.953590   4.271654   4.902052   5.208059   6.086895
    34  H    3.419060   2.147748   1.087435   2.896300   3.172634
    35  H    3.094359   2.174257   3.021259   1.096020   2.137612
    36  H    3.583712   2.841225   3.497589   2.221561   1.090503
    37  H   10.234091   8.992694   9.063987   7.905852   7.101978
    38  H   10.411455   9.211826   9.262897   8.200666   6.950134
    39  H   13.707549  12.591275  12.808848  11.388424  10.242827
    40  H   13.461319  12.253960  12.286049  11.198103  10.003960
    41  H    3.417173   4.324316   5.667460   3.985086   4.867327
    42  H    2.938655   4.152295   5.305826   4.359219   5.562894
    43  H    2.934379   4.160549   5.309427   4.383267   5.202325
                   11         12         13         14         15
    11  C    0.000000
    12  C    1.271963   0.000000
    13  C    2.564526   1.292563   0.000000
    14  C    3.836394   2.564433   1.271876   0.000000
    15  C    5.158822   3.886863   2.594306   1.322432   0.000000
    16  C    6.117945   4.880946   3.649111   2.498720   1.524815
    17  C    7.054218   5.834715   4.625103   3.492407   2.465629
    18  N    7.923776   6.735246   5.566025   4.480394   3.490309
    19  C    7.107176   5.890177   4.683712   3.558718   2.539920
    20  N    8.323266   7.122922   5.934151   4.819164   3.766770
    21  S    7.026947   5.879119   4.777328   3.815907   3.063948
    22  O    8.468487   7.357957   6.292194   5.346046   4.532477
    23  C    3.570817   4.712226   5.926372   7.148441   8.434022
    24  O    3.846211   4.825639   5.935102   7.088923   8.324038
    25  N    4.685783   5.895391   7.146449   8.389892   9.690103
    26  C    5.957874   7.143871   8.374551   9.601999  10.888333
    27  H    7.375864   8.270030   9.269812  10.314396  11.450625
    28  H    6.501516   7.227744   8.104899   9.062207  10.132475
    29  H    6.206933   6.987108   7.912134   8.909096  10.013492
    30  H    7.276187   8.391079   9.564334  10.743653  11.990620
    31  H    7.635680   8.847810  10.094357  11.330384  12.622869
    32  H    8.095057   9.317080  10.570891  11.811724  13.108413
    33  H    7.399209   8.665152   9.953097  11.221172  12.540459
    34  H    3.688737   4.503076   5.511150   6.598027   7.788656
    35  H    2.618785   3.522186   4.620871   5.779971   7.026167
    36  H    2.082301   3.262153   4.512971   5.762128   7.069762
    37  H    5.792920   4.542765   3.289148   2.101164   1.088384
    38  H    5.709623   4.554229   3.465672   2.586661   2.144126
    39  H    8.991664   7.809487   6.642471   5.551512   4.518049
    40  H    8.736744   7.532011   6.335268   5.204057   4.116651
    41  H    5.923974   7.032423   8.207046   9.394277  10.648430
    42  H    6.706971   7.866297   9.074852  10.284306  11.555276
    43  H    6.449958   7.677245   8.936966  10.185242  11.488079
                   16         17         18         19         20
    16  C    0.000000
    17  C    1.476471   0.000000
    18  N    2.637752   1.161520   0.000000
    19  C    1.522566   2.460780   3.462508   0.000000
    20  N    2.494184   2.839624   3.526086   1.340112   0.000000
    21  S    2.803963   3.989241   5.025040   1.687147   2.589264
    22  O    4.002077   4.959821   5.854063   2.553610   2.699168
    23  C    9.509816  10.539478  11.435677  10.306348  11.563267
    24  O    9.381339  10.528724  11.499393  10.013108  11.267503
    25  N   10.751319  11.721900  12.572805  11.607541  12.852201
    26  C   11.932595  12.975832  13.868825  12.690052  13.928563
    27  H   12.369538  12.665142  13.035095  13.723681  14.814804
    28  H   11.132892  11.368021  11.707194  12.504190  13.614845
    29  H   10.828013  11.074732  11.423076  12.214132  13.252555
    30  H   12.977468  13.520196  14.064076  14.192012  15.354876
    31  H   13.725073  14.565247  15.314480  14.686331  15.933502
    32  H   14.122558  14.846742  15.512355  15.197072  16.395685
    33  H   13.491535  14.347766  15.106995  14.455028  15.639589
    34  H    8.803199   9.283593   9.825330  10.079229  11.240823
    35  H    8.255537   9.125268   9.931525   9.200903  10.494674
    36  H    7.832820   8.750943   9.586280   8.796170   9.925650
    37  H    2.233624   2.814380   3.660785   2.909796   4.064663
    38  H    1.098896   2.076309   3.130479   2.133876   2.922995
    39  H    3.393980   3.825684   4.468306   2.000345   1.021092
    40  H    2.719883   2.533547   2.926093   2.064415   1.009985
    41  H   11.680400  12.808346  13.757570  12.321631  13.556375
    42  H   12.675108  13.687611  14.558294  13.447883  14.713241
    43  H   12.443730  13.479656  14.364701  13.216024  14.415517
                   21         22         23         24         25
    21  S    0.000000
    22  O    1.542282   0.000000
    23  C    9.852582  11.177113   0.000000
    24  O    9.381976  10.619656   1.219678   0.000000
    25  N   11.209224  12.540793   1.383583   2.317766   0.000000
    26  C   12.168345  13.425596   2.463871   2.844078   1.455905
    27  H   14.045945  15.556907   6.878353   8.096567   6.241090
    28  H   12.841277  14.374019   6.515781   7.688191   6.184882
    29  H   12.652853  14.152020   6.512529   7.683990   6.183739
    30  H   14.262215  15.731839   5.675583   6.857611   4.674073
    31  H   14.360615  15.726463   4.582791   5.414618   3.237543
    32  H   15.053384  16.456340   5.563053   6.557812   4.245463
    33  H   14.210037  15.542551   4.597826   5.432055   3.254351
    34  H   10.282910  11.796953   4.293913   5.358902   4.446660
    35  H    8.900439  10.343973   2.144401   2.802542   3.056384
    36  H    8.733827  10.085367   2.884580   3.434845   3.583506
    37  H    3.236003   4.619421   8.892149   8.764851  10.154964
    38  H    3.310570   4.456735   9.150589   9.051431  10.353737
    39  H    2.609270   2.121034  12.099596  11.714017  13.415762
    40  H    3.536116   3.679251  12.097077  11.885207  13.350794
    41  H   11.677532  12.867624   2.474663   2.345645   2.055641
    42  H   12.899851  14.173905   3.177337   3.577709   2.113634
    43  H   12.751854  13.988642   3.193114   3.597160   2.113284
                   26         27         28         29         30
    26  C    0.000000
    27  H    7.224052   0.000000
    28  H    7.373042   1.768315   0.000000
    29  H    7.377267   1.768532   1.764271   0.000000
    30  H    5.325370   2.365367   3.482094   3.488683   0.000000
    31  H    2.921173   5.698049   6.280201   6.524763   3.436720
    32  H    4.243626   4.613305   5.630591   5.640070   2.255068
    33  H    2.957061   5.677921   6.509791   6.267116   3.420116
    34  H    5.864726   3.811873   2.819483   2.808968   4.294374
    35  H    4.364963   6.379285   5.492782   5.785784   5.863529
    36  H    4.763987   6.561880   6.185273   5.535069   6.079081
    37  H   11.346975  11.876213  10.458875  10.508266  12.447368
    38  H   11.524855  11.965486  10.845393  10.379940  12.536468
    39  H   14.430193  15.674399  14.480705  14.137330  16.125600
    40  H   14.481553  14.905804  13.695590  13.298170  15.589115
    41  H    1.090784   8.185851   8.210882   8.210849   6.376129
    42  H    1.093255   7.265202   7.430805   7.647613   5.258488
    43  H    1.092905   7.253279   7.637674   7.436980   5.238611
                   31         32         33         34         35
    31  H    0.000000
    32  H    1.761137   0.000000
    33  H    1.766499   1.761170   0.000000
    34  H    5.976918   5.867923   5.970420   0.000000
    35  H    5.693907   6.455279   5.989970   3.087408   0.000000
    36  H    6.387880   6.664888   5.772344   3.558264   3.098411
    37  H   13.026776  13.577800  13.079503   8.228506   7.353539
    38  H   13.335230  13.659635  12.971691   8.460274   8.051369
    39  H   16.545650  17.079385  16.261837  12.049064  11.113674
    40  H   16.370596  16.742222  16.052584  11.438385  10.948555
    41  H    3.952345   5.327905   3.979340   6.451146   4.496108
    42  H    2.359861   3.972837   2.994910   6.241684   4.783807
    43  H    2.908002   3.941750   2.356621   6.248750   5.145462
                   36         37         38         39         40
    36  H    0.000000
    37  H    7.796804   0.000000
    38  H    7.233945   3.102847   0.000000
    39  H   10.581283   4.717167   3.816766   0.000000
    40  H   10.316032   4.408652   3.104464   1.763055   0.000000
    41  H    4.898006  11.096306  11.293887  13.992277  14.169554
    42  H    5.661128  11.939156  12.327714  15.216653  15.266409
    43  H    4.958197  12.021271  11.953347  14.928107  14.946770
                   41         42         43
    41  H    0.000000
    42  H    1.778458   0.000000
    43  H    1.778757   1.784509   0.000000
 Stoichiometry    C20H17N3O2S
 Framework group  C1[X(C20H17N3O2S)]
 Deg. of freedom   123
 Full point group                 C1      NOp   1
 Largest Abelian subgroup         C1      NOp   1
 Largest concise Abelian subgroup C1      NOp   1
                         Standard orientation:                         
 ---------------------------------------------------------------------
 Center     Atomic      Atomic             Coordinates (Angstroms)
 Number     Number       Type             X           Y           Z
 ---------------------------------------------------------------------
      1          6           0        5.256005    3.912347   -0.138470
      2          6           0        5.181785    2.403132   -0.095102
      3          6           0        6.327987    1.624874    0.094958
      4          6           0        6.329207    0.216610    0.145808
      5          6           0        7.642336   -0.506908    0.362504
      6          6           0        5.082477   -0.405133   -0.009544
      7          6           0        3.915603    0.356161   -0.206525
      8          6           0        3.951910    1.740000   -0.246025
      9          6           0        2.730377   -0.573645   -0.355125
     10          6           0        1.638295   -0.340786    0.659207
     11          6           0        0.368839   -0.130130    0.355880
     12          6           0       -0.853027    0.083584    0.074348
     13          6           0       -2.094527    0.299919   -0.213048
     14          6           0       -3.314783    0.517538   -0.498155
     15          6           0       -4.583754    0.740705   -0.796039
     16          6           0       -5.644313    0.994078    0.269830
     17          6           0       -6.235109    2.336663    0.101331
     18          7           0       -6.723287    3.384516   -0.011871
     19          6           0       -6.737658   -0.065477    0.281904
     20          7           0       -7.935017    0.182105    0.830479
     21         16           0       -6.465741   -1.625653   -0.299798
     22          8           0       -7.788413   -2.371803   -0.030664
     23          6           0        3.380270   -1.969013   -0.192322
     24          8           0        2.807950   -3.045345   -0.231996
     25          7           0        4.738521   -1.782915   -0.005710
     26          6           0        5.624492   -2.928331    0.145073
     27          1           0        6.282079    4.264282    0.000758
     28          1           0        4.897189    4.302660   -1.098125
     29          1           0        4.638555    4.365579    0.645951
     30          1           0        7.283071    2.131713    0.213185
     31          1           0        7.887143   -1.183392   -0.462256
     32          1           0        8.455944    0.218898    0.438661
     33          1           0        7.645646   -1.095664    1.285457
     34          1           0        3.035269    2.306315   -0.392898
     35          1           0        2.302921   -0.531595   -1.363477
     36          1           0        1.937582   -0.347613    1.707814
     37          1           0       -4.919498    0.769433   -1.830945
     38          1           0       -5.157567    0.987979    1.255027
     39          1           0       -8.600689   -0.590914    0.786297
     40          1           0       -8.251422    1.119248    1.034735
     41          1           0        4.996834   -3.819406    0.102169
     42          1           0        6.358697   -2.970049   -0.663883
     43          1           0        6.143823   -2.902905    1.106369
 ---------------------------------------------------------------------
 Rotational constants (GHZ):           0.4010575           0.0484157           0.0436186
 Standard basis: 6-31+G(d,p) (6D, 7F)
 There are   583 symmetry adapted cartesian basis functions of A   symmetry.
 There are   583 symmetry adapted basis functions of A   symmetry.
   583 basis functions,   975 primitive gaussians,   583 cartesian basis functions
    95 alpha electrons       95 beta electrons
       nuclear repulsion energy      2033.0808123163 Hartrees.
 NAtoms=   43 NActive=   43 NUniq=   43 SFac= 1.00D+00 NAtFMM=   60 NAOKFM=F Big=F
 Integral buffers will be    131072 words long.
 Regular integral format.
 Two-electron integral symmetry is turned on.
 One-electron integrals computed using PRISM.
 NBasis=   583 RedAO= T EigKep=  1.65D-06  NBF=   583
 NBsUse=   576 1.00D-06 EigRej=  9.03D-07 NBFU=   576
 ExpMin= 4.05D-02 ExpMax= 2.19D+04 ExpMxC= 3.30D+03 IAcc=3 IRadAn=         5 AccDes= 0.00D+00
 Harris functional with IExCor=  402 and IRadAn=       5 diagonalized for initial guess.
 HarFok:  IExCor=  402 AccDes= 0.00D+00 IRadAn=         5 IDoV= 1 UseB2=F ITyADJ=14
 ICtDFT=  3500011 ScaDFX=  1.000000  1.000000  1.000000  1.000000
 FoFCou: FMM=F IPFlag=           0 FMFlag=      100000 FMFlg1=           0
         NFxFlg=           0 DoJE=T BraDBF=F KetDBF=T FulRan=T
         wScrn=  0.000000 ICntrl=       500 IOpCl=  0 I1Cent=   200000004 NGrid=           0
         NMat0=    1 NMatS0=      1 NMatT0=    0 NMatD0=    1 NMtDS0=    0 NMtDT0=    0
 Petite list used in FoFCou.
 Requested convergence on RMS density matrix=1.00D-08 within 128 cycles.
 Requested convergence on MAX density matrix=1.00D-06.
 Requested convergence on             energy=1.00D-06.
 No special actions if energy rises.
 EnCoef did     1 forward-backward iterations
 SCF Done:  E(RB3LYP) =  -1485.14001565     A.U. after   19 cycles
            NFock= 19  Conv=0.30D-08     -V/T= 2.0080
 DoSCS=F DFT=T ScalE2(SS,OS)=  1.000000  1.000000
 ExpMin= 4.05D-02 ExpMax= 2.19D+04 ExpMxC= 3.30D+03 IAcc=3 IRadAn=         5 AccDes= 0.00D+00
 HarFok:  IExCor=  205 AccDes= 0.00D+00 IRadAn=         5 IDoV=-2 UseB2=F ITyADJ=14
 ICtDFT= 12500011 ScaDFX=  1.000000  1.000000  1.000000  1.000000
 GSVD:  LWork=       -1140 too small for GESVD, short by        4950 words or        4950 for optimal perf.
 Range of M.O.s used for correlation:    31   576
 NBasis=   583 NAE=    95 NBE=    95 NFC=    30 NFV=     0
 NROrb=    546 NOA=    65 NOB=    65 NVA=   481 NVB=   481

 **** Warning!!: The largest alpha MO coefficient is  0.15562676D+03

 Orbital symmetries:
       Occupied  (A) (A) (A) (A) (A) (A) (A) (A) (A) (A) (A) (A)
                 (A) (A) (A) (A) (A) (A) (A) (A) (A) (A) (A) (A)
                 (A) (A) (A) (A) (A) (A) (A) (A) (A) (A) (A) (A)
                 (A) (A) (A) (A) (A) (A) (A) (A) (A) (A) (A) (A)
                 (A) (A) (A) (A) (A) (A) (A) (A) (A) (A) (A) (A)
                 (A) (A) (A) (A) (A) (A) (A) (A) (A) (A) (A) (A)
                 (A) (A) (A) (A) (A) (A) (A) (A) (A) (A) (A) (A)
                 (A) (A) (A) (A) (A) (A) (A) (A) (A) (A) (A)
       Virtual   (A) (A) (A) (A) (A) (A) (A) (A) (A) (A) (A) (A)
                 (A) (A) (A) (A) (A) (A) (A) (A) (A) (A) (A) (A)
                 (A) (A) (A) (A) (A) (A) (A) (A) (A) (A) (A) (A)
                 (A) (A) (A) (A) (A) (A) (A) (A) (A) (A) (A) (A)
                 (A) (A) (A) (A) (A) (A) (A) (A) (A) (A) (A) (A)
                 (A) (A) (A) (A) (A) (A) (A) (A) (A) (A) (A) (A)
                 (A) (A) (A) (A) (A) (A) (A) (A) (A) (A) (A) (A)
                 (A) (A) (A) (A) (A) (A) (A) (A) (A) (A) (A) (A)
                 (A) (A) (A) (A) (A) (A) (A) (A) (A) (A) (A) (A)
                 (A) (A) (A) (A) (A) (A) (A) (A) (A) (A) (A) (A)
                 (A) (A) (A) (A) (A) (A) (A) (A) (A) (A) (A) (A)
                 (A) (A) (A) (A) (A) (A) (A) (A) (A) (A) (A) (A)
                 (A) (A) (A) (A) (A) (A) (A) (A) (A) (A) (A) (A)
                 (A) (A) (A) (A) (A) (A) (A) (A) (A) (A) (A) (A)
                 (A) (A) (A) (A) (A) (A) (A) (A) (A) (A) (A) (A)
                 (A) (A) (A) (A) (A) (A) (A) (A) (A) (A) (A) (A)
                 (A) (A) (A) (A) (A) (A) (A) (A) (A) (A) (A) (A)
                 (A) (A) (A) (A) (A) (A) (A) (A) (A) (A) (A) (A)
                 (A) (A) (A) (A) (A) (A) (A) (A) (A) (A) (A) (A)
                 (A) (A) (A) (A) (A) (A) (A) (A) (A) (A) (A) (A)
                 (A) (A) (A) (A) (A) (A) (A) (A) (A) (A) (A) (A)
                 (A) (A) (A) (A) (A) (A) (A) (A) (A) (A) (A) (A)
                 (A) (A) (A) (A) (A) (A) (A) (A) (A) (A) (A) (A)
                 (A) (A) (A) (A) (A) (A) (A) (A) (A) (A) (A) (A)
                 (A) (A) (A) (A) (A) (A) (A) (A) (A) (A) (A) (A)
                 (A) (A) (A) (A) (A) (A) (A) (A) (A) (A) (A) (A)
                 (A) (A) (A) (A) (A) (A) (A) (A) (A) (A) (A) (A)
                 (A) (A) (A) (A) (A) (A) (A) (A) (A) (A) (A) (A)
                 (A) (A) (A) (A) (A) (A) (A) (A) (A) (A) (A) (A)
                 (A) (A) (A) (A) (A) (A) (A) (A) (A) (A) (A) (A)
                 (A) (A) (A) (A) (A) (A) (A) (A) (A) (A) (A) (A)
                 (A) (A) (A) (A) (A) (A) (A) (A) (A) (A) (A) (A)
                 (A) (A) (A) (A) (A) (A) (A) (A) (A) (A) (A) (A)
                 (A) (A) (A) (A) (A) (A) (A) (A) (A) (A) (A) (A)
                 (A) (A) (A) (A) (A) (A) (A) (A) (A) (A) (A) (A)
                 (A) (A) (A) (A) (A) (A) (A) (A) (A) (A) (A) (A)
                 (A) (A) (A) (A) (A) (A) (A) (A) (A) (A) (A) (A)
                 (A) (A) (A) (A) (A) (A) (A) (A) (A) (A) (A) (A)
                 (A) (A) (A) (A) (A) (A) (A) (A) (A) (A) (A) (A)
                 (A) (A) (A) (A) (A) (A) (A) (A) (A) (A) (A) (A)
                 (A)
    24 initial guesses have been made.
 Convergence on wavefunction:    0.001000000000000
 Iteration     1 Dimension    24 NMult     0 NNew     24
 CISAX will form    24 AO SS matrices at one time.
 New state      1 was old state      6
 New state      2 was old state     12
 New state      3 was old state      2
 New state      4 was old state      1
 New state      5 was old state      4
 New state      6 was old state      3
 New state      7 was old state     10
 New state      8 was old state      9
 New state      9 was old state      8
 New state     10 was old state      7
 New state     11 was old state     24
 New state     12 was old state     14
 Vector   5 SDiff=6.84D+00 TDiff=7.26D+00 assumed to be singlet.
 Vector  11 SDiff=6.85D+00 TDiff=7.02D+00 assumed to be singlet.
 Iteration     2 Dimension    36 NMult    24 NNew     12
 New state      5 was old state      6
 New state      6 was old state      8
 Iteration     3 Dimension    48 NMult    36 NNew     12
 Iteration     4 Dimension    60 NMult    48 NNew     12
 Iteration     5 Dimension    70 NMult    60 NNew     10
 Iteration     6 Dimension    74 NMult    70 NNew      4
 ***********************************************************************
 Excited states from <AA,BB:AA,BB> singles matrix:
 ***********************************************************************
 
 Ground to excited state transition densities written to RWF  633
 Ground to excited state transition electric dipole moments (Au):
       state          X           Y           Z        Dip. S.      Osc.
         1        -0.0000     -0.0000     -0.0000      0.0000      0.0000
         2         0.0000     -0.0000     -0.0000      0.0000      0.0000
         3        -0.0000     -0.0000      0.0000      0.0000      0.0000
         4        -0.6584     -0.1122      0.0369      0.4474      0.0261
         5         0.4652     -0.0394      0.0226      0.2185      0.0141
         6         0.0461      0.0013     -0.0070      0.0022      0.0002
 Ground to excited state transition velocity dipole moments (Au):
       state          X           Y           Z        Dip. S.      Osc.
         1        -0.0000      0.0000     -0.0000      0.0000      0.0000
         2         0.0000      0.0000     -0.0000      0.0000      0.0000
         3         0.0000     -0.0000      0.0000      0.0000      0.0000
         4         0.0508      0.0089     -0.0064      0.0027      0.0206
         5        -0.0448      0.0051     -0.0018      0.0020      0.0140
         6        -0.0050     -0.0007      0.0010      0.0000      0.0002
 Ground to excited state transition magnetic dipole moments (Au):
       state          X           Y           Z
         1        -0.0000     -0.0000     -0.0000
         2         0.0000      0.0000     -0.0000
         3         0.0000      0.0000      0.0000
         4         0.1100     -0.1781     -0.1494
         5        -0.1211      0.0253      0.0677
         6        -1.0547      0.2046     -0.2929
 Ground to excited state transition velocity quadrupole moments (Au):
       state          XX          YY          ZZ          XY          XZ          YZ
         1        -0.0000      0.0000     -0.0000      0.0000      0.0000     -0.0000
         2        -0.0000     -0.0000      0.0000      0.0000     -0.0000      0.0000
         3        -0.0000      0.0000     -0.0000      0.0000     -0.0000     -0.0000
         4        -0.4248     -0.0169      0.0025     -0.1254      0.1034     -0.0065
         5        -0.1515      0.0029     -0.0006      0.0213      0.0036      0.0101
         6         0.0487      0.0351     -0.0088     -0.0860     -0.0003      0.0545
 <0|del|b> * <b|rxdel|0> + <0|del|b> * <b|delr+rdel|0>
 Rotatory Strengths (R) in cgs (10**-40 erg-esu-cm/Gauss)
       state          XX          YY          ZZ    R(velocity)    E-M Angle
         1        -0.0000      0.0000     -0.0000      0.0000       90.00
         2         0.0000      0.0000     -0.0000      0.0000       90.00
         3        -0.0000     -0.0000      0.0000     -0.0000       90.00
         4        -3.1091     21.8497     21.2196     13.3201       68.28
         5        -0.1794     17.8541     22.0084     13.2277       31.37
         6        -1.7695     15.9367     18.0087     10.7253       32.61
 1/2[<0|r|b>*<b|rxdel|0> + (<0|rxdel|b>*<b|r|0>)*]
 Rotatory Strengths (R) in cgs (10**-40 erg-esu-cm/Gauss)
       state          XX          YY          ZZ     R(length)
         1        -0.0000     -0.0000     -0.0000     -0.0000
         2        -0.0000      0.0000     -0.0000     -0.0000
         3         0.0000      0.0000     -0.0000      0.0000
         4        51.2270    -14.1250      3.8968     13.6663
         5        39.8484      0.7054     -1.0827     13.1571
         6        34.3777     -0.1854     -1.4407     10.9172
  1/2[<0|del|b>*<b|r|0> + (<0|r|b>*<b|del|0>)*] (Au)
       state          X           Y           Z        Dip. S.   Osc.(frdel)
         1         0.0000     -0.0000      0.0000     -0.0000     -0.0000
         2         0.0000     -0.0000      0.0000      0.0000      0.0000
         3        -0.0000      0.0000      0.0000     -0.0000     -0.0000
         4        -0.0335     -0.0010     -0.0002      0.0347      0.0231
         5        -0.0208     -0.0002     -0.0000      0.0211      0.0140
         6        -0.0002     -0.0000     -0.0000      0.0002      0.0002

 Excitation energies and oscillator strengths:
 
 Excited State   1:      Triplet-A      1.4893 eV  832.53 nm  f=0.0000  <S**2>=2.000
      89 -> 96         0.13919
      93 -> 96         0.67839
      95 -> 96        -0.13576
      93 <- 96         0.19981
 This state for optimization and/or second-order correction.
 Total Energy, E(TD-HF/TD-DFT) =  -1485.08528667    
 Copying the excited state density for this state as the 1-particle RhoCI density.
 
 Excited State   2:      Triplet-A      1.9552 eV  634.12 nm  f=0.0000  <S**2>=2.000
      95 -> 96        -0.11584
      95 -> 97         0.10650
      95 -> 98         0.69674
      95 <- 98         0.15271
 
 Excited State   3:      Triplet-A      2.3515 eV  527.25 nm  f=0.0000  <S**2>=2.000
      93 -> 96         0.12402
      95 -> 96         0.68140
      95 -> 98         0.11755
 
 Excited State   4:      Singlet-A      2.3837 eV  520.13 nm  f=0.0261  <S**2>=0.000
      95 -> 96         0.70416
 
 Excited State   5:      Singlet-A      2.6325 eV  470.98 nm  f=0.0141  <S**2>=0.000
      94 -> 96         0.70321
 
 Excited State   6:      Singlet-A      2.9102 eV  426.03 nm  f=0.0002  <S**2>=0.000
      90 -> 96        -0.13050
      91 -> 96        -0.22066
      92 -> 96         0.64956
 SavETr:  write IOETrn=   770 NScale= 10 NData=  16 NLR=1 NState=    6 LETran=     118.

 **********************************************************************

            Population analysis using the SCF Density.

 **********************************************************************

 Orbital symmetries:
       Occupied  (A) (A) (A) (A) (A) (A) (A) (A) (A) (A) (A) (A)
                 (A) (A) (A) (A) (A) (A) (A) (A) (A) (A) (A) (A)
                 (A) (A) (A) (A) (A) (A) (A) (A) (A) (A) (A) (A)
                 (A) (A) (A) (A) (A) (A) (A) (A) (A) (A) (A) (A)
                 (A) (A) (A) (A) (A) (A) (A) (A) (A) (A) (A) (A)
                 (A) (A) (A) (A) (A) (A) (A) (A) (A) (A) (A) (A)
                 (A) (A) (A) (A) (A) (A) (A) (A) (A) (A) (A) (A)
                 (A) (A) (A) (A) (A) (A) (A) (A) (A) (A) (A)
       Virtual   (A) (A) (A) (A) (A) (A) (A) (A) (A) (A) (A) (A)
                 (A) (A) (A) (A) (A) (A) (A) (A) (A) (A) (A) (A)
                 (A) (A) (A) (A) (A) (A) (A) (A) (A) (A) (A) (A)
                 (A) (A) (A) (A) (A) (A) (A) (A) (A) (A) (A) (A)
                 (A) (A) (A) (A) (A) (A) (A) (A) (A) (A) (A) (A)
                 (A) (A) (A) (A) (A) (A) (A) (A) (A) (A) (A) (A)
                 (A) (A) (A) (A) (A) (A) (A) (A) (A) (A) (A) (A)
                 (A) (A) (A) (A) (A) (A) (A) (A) (A) (A) (A) (A)
                 (A) (A) (A) (A) (A) (A) (A) (A) (A) (A) (A) (A)
                 (A) (A) (A) (A) (A) (A) (A) (A) (A) (A) (A) (A)
                 (A) (A) (A) (A) (A) (A) (A) (A) (A) (A) (A) (A)
                 (A) (A) (A) (A) (A) (A) (A) (A) (A) (A) (A) (A)
                 (A) (A) (A) (A) (A) (A) (A) (A) (A) (A) (A) (A)
                 (A) (A) (A) (A) (A) (A) (A) (A) (A) (A) (A) (A)
                 (A) (A) (A) (A) (A) (A) (A) (A) (A) (A) (A) (A)
                 (A) (A) (A) (A) (A) (A) (A) (A) (A) (A) (A) (A)
                 (A) (A) (A) (A) (A) (A) (A) (A) (A) (A) (A) (A)
                 (A) (A) (A) (A) (A) (A) (A) (A) (A) (A) (A) (A)
                 (A) (A) (A) (A) (A) (A) (A) (A) (A) (A) (A) (A)
                 (A) (A) (A) (A) (A) (A) (A) (A) (A) (A) (A) (A)
                 (A) (A) (A) (A) (A) (A) (A) (A) (A) (A) (A) (A)
                 (A) (A) (A) (A) (A) (A) (A) (A) (A) (A) (A) (A)
                 (A) (A) (A) (A) (A) (A) (A) (A) (A) (A) (A) (A)
                 (A) (A) (A) (A) (A) (A) (A) (A) (A) (A) (A) (A)
                 (A) (A) (A) (A) (A) (A) (A) (A) (A) (A) (A) (A)
                 (A) (A) (A) (A) (A) (A) (A) (A) (A) (A) (A) (A)
                 (A) (A) (A) (A) (A) (A) (A) (A) (A) (A) (A) (A)
                 (A) (A) (A) (A) (A) (A) (A) (A) (A) (A) (A) (A)
                 (A) (A) (A) (A) (A) (A) (A) (A) (A) (A) (A) (A)
                 (A) (A) (A) (A) (A) (A) (A) (A) (A) (A) (A) (A)
                 (A) (A) (A) (A) (A) (A) (A) (A) (A) (A) (A) (A)
                 (A) (A) (A) (A) (A) (A) (A) (A) (A) (A) (A) (A)
                 (A) (A) (A) (A) (A) (A) (A) (A) (A) (A) (A) (A)
                 (A) (A) (A) (A) (A) (A) (A) (A) (A) (A) (A) (A)
                 (A) (A) (A) (A) (A) (A) (A) (A) (A) (A) (A) (A)
                 (A) (A) (A) (A) (A) (A) (A) (A) (A) (A) (A) (A)
                 (A) (A) (A) (A) (A) (A) (A) (A) (A) (A) (A) (A)
                 (A) (A) (A) (A) (A) (A) (A) (A) (A) (A) (A) (A)
                 (A) (A) (A) (A) (A) (A) (A) (A) (A) (A) (A) (A)
                 (A) (A) (A) (A) (A) (A) (A) (A) (A) (A) (A) (A)
                 (A)
 The electronic state is 1-A.
 Alpha  occ. eigenvalues --  -88.97000 -19.14670 -19.12824 -14.40380 -14.40281
 Alpha  occ. eigenvalues --  -14.37350 -10.31214 -10.30117 -10.29639 -10.26528
 Alpha  occ. eigenvalues --  -10.25248 -10.25179 -10.24925 -10.24817 -10.24700
 Alpha  occ. eigenvalues --  -10.24549 -10.24231 -10.24001 -10.23917 -10.22463
 Alpha  occ. eigenvalues --  -10.21976 -10.21504 -10.20982 -10.20753 -10.20749
 Alpha  occ. eigenvalues --  -10.19887  -8.02026  -5.98522  -5.98051  -5.97876
 Alpha  occ. eigenvalues --   -1.06493  -1.01431  -0.98294  -0.96786  -0.93904
 Alpha  occ. eigenvalues --   -0.87938  -0.86999  -0.85383  -0.83068  -0.80286
 Alpha  occ. eigenvalues --   -0.79955  -0.76984  -0.74760  -0.74350  -0.72750
 Alpha  occ. eigenvalues --   -0.70808  -0.69792  -0.68184  -0.62909  -0.61188
 Alpha  occ. eigenvalues --   -0.60728  -0.60355  -0.58547  -0.57974  -0.56444
 Alpha  occ. eigenvalues --   -0.54821  -0.53825  -0.53135  -0.49503  -0.49035
 Alpha  occ. eigenvalues --   -0.48908  -0.48558  -0.46910  -0.46240  -0.45432
 Alpha  occ. eigenvalues --   -0.44357  -0.44055  -0.43957  -0.43354  -0.43074
 Alpha  occ. eigenvalues --   -0.42809  -0.41380  -0.41307  -0.40523  -0.39844
 Alpha  occ. eigenvalues --   -0.39454  -0.39220  -0.39100  -0.38175  -0.37719
 Alpha  occ. eigenvalues --   -0.37344  -0.37135  -0.36419  -0.36136  -0.35829
 Alpha  occ. eigenvalues --   -0.34501  -0.33690  -0.31204  -0.28303  -0.27345
 Alpha  occ. eigenvalues --   -0.26796  -0.26169  -0.24595  -0.22720  -0.21916
 Alpha virt. eigenvalues --   -0.11189  -0.06993  -0.06411  -0.03784  -0.02926
 Alpha virt. eigenvalues --   -0.01814  -0.01406  -0.01136  -0.00257   0.00012
 Alpha virt. eigenvalues --    0.00299   0.00944   0.01007   0.01321   0.01736
 Alpha virt. eigenvalues --    0.02023   0.02048   0.02884   0.03411   0.03544
 Alpha virt. eigenvalues --    0.03783   0.04178   0.04466   0.04904   0.05073
 Alpha virt. eigenvalues --    0.05379   0.05556   0.06380   0.06566   0.06735
 Alpha virt. eigenvalues --    0.07131   0.07488   0.07638   0.07845   0.08028
 Alpha virt. eigenvalues --    0.08309   0.08643   0.08922   0.09871   0.10018
 Alpha virt. eigenvalues --    0.10207   0.10466   0.10604   0.11030   0.11128
 Alpha virt. eigenvalues --    0.11289   0.11636   0.12076   0.12259   0.12497
 Alpha virt. eigenvalues --    0.12612   0.13158   0.13175   0.13817   0.13857
 Alpha virt. eigenvalues --    0.14327   0.14642   0.14912   0.15164   0.15354
 Alpha virt. eigenvalues --    0.15889   0.16149   0.16300   0.16900   0.17195
 Alpha virt. eigenvalues --    0.17280   0.17516   0.17684   0.17914   0.18205
 Alpha virt. eigenvalues --    0.18326   0.18426   0.18661   0.18800   0.19369
 Alpha virt. eigenvalues --    0.19443   0.19553   0.19927   0.19991   0.20184
 Alpha virt. eigenvalues --    0.20618   0.20955   0.21121   0.21435   0.21693
 Alpha virt. eigenvalues --    0.21794   0.22013   0.22480   0.22895   0.23174
 Alpha virt. eigenvalues --    0.23497   0.23683   0.24050   0.24198   0.24380
 Alpha virt. eigenvalues --    0.24782   0.24910   0.25096   0.25148   0.25546
 Alpha virt. eigenvalues --    0.25704   0.26136   0.26383   0.26611   0.26976
 Alpha virt. eigenvalues --    0.27337   0.27628   0.27937   0.28274   0.28571
 Alpha virt. eigenvalues --    0.29037   0.29218   0.29569   0.29865   0.30602
 Alpha virt. eigenvalues --    0.30925   0.31112   0.31684   0.31922   0.32206
 Alpha virt. eigenvalues --    0.32359   0.32555   0.32895   0.32930   0.33720
 Alpha virt. eigenvalues --    0.34157   0.34401   0.34774   0.36249   0.36392
 Alpha virt. eigenvalues --    0.36691   0.36891   0.37266   0.37768   0.38415
 Alpha virt. eigenvalues --    0.39986   0.40548   0.40822   0.41360   0.42356
 Alpha virt. eigenvalues --    0.43332   0.43618   0.44950   0.46579   0.46988
 Alpha virt. eigenvalues --    0.48128   0.50584   0.50834   0.52567   0.53606
 Alpha virt. eigenvalues --    0.56120   0.56516   0.57760   0.58835   0.59758
 Alpha virt. eigenvalues --    0.60943   0.61960   0.63593   0.63664   0.64329
 Alpha virt. eigenvalues --    0.64436   0.65500   0.65864   0.66691   0.67442
 Alpha virt. eigenvalues --    0.67689   0.68460   0.68738   0.69270   0.69625
 Alpha virt. eigenvalues --    0.70039   0.70100   0.70617   0.71736   0.72784
 Alpha virt. eigenvalues --    0.72890   0.73222   0.73589   0.74008   0.75330
 Alpha virt. eigenvalues --    0.75579   0.76265   0.77010   0.77294   0.77986
 Alpha virt. eigenvalues --    0.78992   0.79451   0.80293   0.80935   0.81452
 Alpha virt. eigenvalues --    0.82496   0.83534   0.83920   0.84252   0.84509
 Alpha virt. eigenvalues --    0.84878   0.86106   0.86847   0.87292   0.87691
 Alpha virt. eigenvalues --    0.87983   0.89685   0.90116   0.90737   0.91524
 Alpha virt. eigenvalues --    0.91784   0.92448   0.93034   0.93927   0.94050
 Alpha virt. eigenvalues --    0.94545   0.94696   0.95886   0.97588   0.97975
 Alpha virt. eigenvalues --    0.98268   0.98818   0.99971   1.00559   1.01097
 Alpha virt. eigenvalues --    1.01684   1.01856   1.02396   1.03277   1.04312
 Alpha virt. eigenvalues --    1.04955   1.05358   1.05765   1.06461   1.08121
 Alpha virt. eigenvalues --    1.08797   1.09161   1.09833   1.10646   1.11280
 Alpha virt. eigenvalues --    1.11645   1.12953   1.13631   1.14311   1.15753
 Alpha virt. eigenvalues --    1.16086   1.16401   1.17562   1.17662   1.17848
 Alpha virt. eigenvalues --    1.19747   1.20910   1.21891   1.22586   1.23117
 Alpha virt. eigenvalues --    1.24433   1.24942   1.25406   1.26007   1.27010
 Alpha virt. eigenvalues --    1.27270   1.27780   1.28017   1.29677   1.29747
 Alpha virt. eigenvalues --    1.30243   1.31301   1.33001   1.33814   1.33995
 Alpha virt. eigenvalues --    1.35053   1.36133   1.37219   1.38700   1.40182
 Alpha virt. eigenvalues --    1.40735   1.42710   1.43518   1.43995   1.44521
 Alpha virt. eigenvalues --    1.45220   1.46486   1.47404   1.48258   1.49260
 Alpha virt. eigenvalues --    1.49682   1.50505   1.52406   1.53571   1.55344
 Alpha virt. eigenvalues --    1.57924   1.58675   1.59080   1.60895   1.62868
 Alpha virt. eigenvalues --    1.63145   1.63972   1.65729   1.67045   1.67423
 Alpha virt. eigenvalues --    1.68171   1.68676   1.70097   1.70448   1.71119
 Alpha virt. eigenvalues --    1.71641   1.74035   1.75354   1.76421   1.77945
 Alpha virt. eigenvalues --    1.78309   1.78876   1.79483   1.80713   1.80925
 Alpha virt. eigenvalues --    1.81851   1.82895   1.83788   1.83826   1.84477
 Alpha virt. eigenvalues --    1.84709   1.85989   1.87175   1.87854   1.88575
 Alpha virt. eigenvalues --    1.89363   1.90926   1.91738   1.92940   1.93829
 Alpha virt. eigenvalues --    1.95550   1.96078   1.96431   1.97490   1.98462
 Alpha virt. eigenvalues --    1.98910   1.99820   2.00725   2.01268   2.01745
 Alpha virt. eigenvalues --    2.02123   2.02611   2.03461   2.03973   2.04973
 Alpha virt. eigenvalues --    2.05329   2.05926   2.06403   2.07114   2.08392
 Alpha virt. eigenvalues --    2.09087   2.09394   2.09639   2.10412   2.10564
 Alpha virt. eigenvalues --    2.12051   2.12122   2.13250   2.14244   2.17006
 Alpha virt. eigenvalues --    2.17838   2.18572   2.19251   2.20497   2.22699
 Alpha virt. eigenvalues --    2.23848   2.25224   2.25831   2.27125   2.27442
 Alpha virt. eigenvalues --    2.28390   2.29120   2.30927   2.31332   2.32563
 Alpha virt. eigenvalues --    2.35561   2.37237   2.37757   2.40568   2.40693
 Alpha virt. eigenvalues --    2.42165   2.42560   2.44446   2.45157   2.46336
 Alpha virt. eigenvalues --    2.47886   2.49094   2.49923   2.50506   2.51547
 Alpha virt. eigenvalues --    2.51938   2.53365   2.54178   2.55100   2.56224
 Alpha virt. eigenvalues --    2.58475   2.59330   2.60011   2.60379   2.62019
 Alpha virt. eigenvalues --    2.63329   2.64015   2.66777   2.67744   2.67844
 Alpha virt. eigenvalues --    2.69151   2.69617   2.71082   2.71207   2.72561
 Alpha virt. eigenvalues --    2.73698   2.74990   2.75630   2.77310   2.80304
 Alpha virt. eigenvalues --    2.81354   2.82935   2.84423   2.84790   2.85843
 Alpha virt. eigenvalues --    2.86930   2.87146   2.88684   2.90268   2.92190
 Alpha virt. eigenvalues --    2.94212   2.94576   2.94706   2.96370   2.98337
 Alpha virt. eigenvalues --    2.98617   3.04245   3.08803   3.12639   3.17518
 Alpha virt. eigenvalues --    3.17872   3.19371   3.22925   3.23081   3.23479
 Alpha virt. eigenvalues --    3.24346   3.25871   3.31704   3.33566   3.36336
 Alpha virt. eigenvalues --    3.39423   3.40897   3.41491   3.42171   3.42683
 Alpha virt. eigenvalues --    3.43889   3.44582   3.46266   3.46601   3.48704
 Alpha virt. eigenvalues --    3.50647   3.52568   3.53596   3.69193   3.71091
 Alpha virt. eigenvalues --    3.98497   4.05636   4.19583   4.23211   4.25513
 Alpha virt. eigenvalues --    4.27630   4.31009   4.32626   4.34971   4.36489
 Alpha virt. eigenvalues --    4.36566   4.39167   4.42032   4.45973   4.48817
 Alpha virt. eigenvalues --    4.52087   4.55731   4.59890   4.61867   4.63608
 Alpha virt. eigenvalues --    4.68272   4.84347   4.84780   4.91308   4.96360
 Alpha virt. eigenvalues --    5.66231
          Condensed to atoms (all electrons):
               1          2          3          4          5          6
     1  C    6.341702  -0.369913   0.238581  -0.047918  -0.106955  -0.044723
     2  C   -0.369913   8.889973  -1.609407   0.956813  -0.332898   0.585465
     3  C    0.238581  -1.609407  17.310871  -4.195532  -0.974219  -3.883257
     4  C   -0.047918   0.956813  -4.195532  10.864300  -1.237931   1.315695
     5  C   -0.106955  -0.332898  -0.974219  -1.237931   7.708244   0.459849
     6  C   -0.044723   0.585465  -3.883257   1.315695   0.459849   8.501846
     7  C   -0.049220  -0.989074   1.392157  -0.532585  -0.802248   1.143925
     8  C   -0.715102  -0.174288  -0.957974  -0.489330   0.279714  -1.161952
     9  C   -0.222299  -0.837608  -0.762513  -1.238651   0.393033  -1.897455
    10  C    0.032393   0.656832   0.349191  -0.329505  -0.055715  -0.305833
    11  C   -0.013849  -0.490812  -0.097632   0.240288   0.029975   0.309676
    12  C   -0.007864  -0.157054  -0.039850   0.069950   0.011347   0.008967
    13  C    0.000125  -0.012455   0.001190   0.003103  -0.000194   0.028574
    14  C   -0.000693  -0.027105  -0.003914   0.006744   0.000419   0.006741
    15  C   -0.000122  -0.007492  -0.000541   0.001079   0.000031   0.003194
    16  C   -0.000003   0.000150   0.000011  -0.000024  -0.000000  -0.000135
    17  C   -0.000000   0.000013   0.000003  -0.000002  -0.000000   0.000002
    18  N   -0.000000  -0.000000  -0.000000   0.000000   0.000000  -0.000000
    19  C    0.000000   0.000008   0.000002  -0.000004  -0.000000  -0.000006
    20  N    0.000000  -0.000000  -0.000000   0.000000   0.000000   0.000000
    21  S   -0.000000   0.000007   0.000000  -0.000001   0.000000  -0.000008
    22  O   -0.000000  -0.000000  -0.000000   0.000000   0.000000   0.000000
    23  C   -0.017453   0.003700   0.157683   0.455866  -0.106237   0.084966
    24  O   -0.000028  -0.004596   0.002585  -0.026338  -0.000275  -0.071076
    25  N    0.002995  -0.080389   0.059004   0.101273  -0.018191   0.201688
    26  C   -0.000038   0.018844  -0.065797   0.065843  -0.086333   0.035507
    27  H    0.490447  -0.088209  -0.026549   0.003067  -0.003284  -0.002648
    28  H    0.456084  -0.141931   0.050201  -0.008083   0.000614  -0.005930
    29  H    0.463247  -0.123628   0.053744  -0.005060   0.000774  -0.004947
    30  H   -0.025465   0.047221   0.228499  -0.011602  -0.024049   0.028797
    31  H   -0.000376  -0.012564   0.031829  -0.172525   0.517963  -0.006878
    32  H   -0.002978   0.012552  -0.115767  -0.086133   0.547983   0.021625
    33  H   -0.000570  -0.023218   0.045481  -0.153093   0.466104  -0.015779
    34  H    0.000948  -0.023024   0.065578   0.011863   0.002531   0.003482
    35  H   -0.000593  -0.034145   0.024581   0.001895  -0.003451   0.028291
    36  H   -0.001070  -0.030495   0.005533   0.000623   0.000021  -0.007222
    37  H   -0.000000   0.000000   0.000000  -0.000000  -0.000000  -0.000000
    38  H    0.000000  -0.000000  -0.000000   0.000000   0.000000   0.000000
    39  H   -0.000000   0.000000   0.000000  -0.000000  -0.000000  -0.000000
    40  H    0.000000  -0.000000  -0.000000   0.000000  -0.000000   0.000000
    41  H   -0.000020   0.000266  -0.012837  -0.041458   0.005894   0.051481
    42  H    0.000017  -0.000903   0.027701   0.036297   0.003801  -0.063054
    43  H   -0.000031  -0.005104   0.044415   0.057050  -0.033034  -0.086226
               7          8          9         10         11         12
     1  C   -0.049220  -0.715102  -0.222299   0.032393  -0.013849  -0.007864
     2  C   -0.989074  -0.174288  -0.837608   0.656832  -0.490812  -0.157054
     3  C    1.392157  -0.957974  -0.762513   0.349191  -0.097632  -0.039850
     4  C   -0.532585  -0.489330  -1.238651  -0.329505   0.240288   0.069950
     5  C   -0.802248   0.279714   0.393033  -0.055715   0.029975   0.011347
     6  C    1.143925  -1.161952  -1.897455  -0.305833   0.309676   0.008967
     7  C   11.593428  -1.503254  -4.408752   0.450650  -0.154344  -0.069901
     8  C   -1.503254   8.413072   3.383219  -0.027943  -0.173599   0.060427
     9  C   -4.408752   3.383219  16.184819  -1.236132   0.080524   0.131146
    10  C    0.450650  -0.027943  -1.236132  20.538524 -10.517995   2.119229
    11  C   -0.154344  -0.173599   0.080524 -10.517995  17.376105  -3.111495
    12  C   -0.069901   0.060427   0.131146   2.119229  -3.111495  16.228296
    13  C    0.022885  -0.050124  -0.061770  -3.473541   2.047054  -7.211795
    14  C    0.023699  -0.015485   0.017816  -0.369885   0.085313   4.299049
    15  C    0.018431  -0.014470   0.007262  -1.724257   0.727833  -7.724695
    16  C   -0.000783   0.000464   0.000267   0.096965  -0.010068   0.644462
    17  C    0.000022   0.000018  -0.000209   0.004654  -0.014015   0.025160
    18  N   -0.000001   0.000000   0.000001   0.000094   0.000277   0.002407
    19  C   -0.000337   0.000112  -0.000066  -0.011135  -0.014082  -0.073959
    20  N    0.000002  -0.000001  -0.000000  -0.000306   0.000641  -0.009716
    21  S    0.000062   0.000006  -0.000132   0.016600  -0.004831   0.152535
    22  O    0.000000  -0.000000   0.000000  -0.000108   0.000293  -0.005261
    23  C    0.285330  -0.779801  -2.388907  -0.255378   0.065349  -0.143288
    24  O   -0.020542   0.019451   0.109374  -0.011107   0.008865  -0.013215
    25  N   -0.142063  -0.194204  -1.111414   0.071273   0.114882   0.023895
    26  C   -0.126117  -0.070875  -0.224174  -0.038185   0.047163   0.002422
    27  H   -0.000507  -0.020530   0.001931   0.000106   0.000029   0.000007
    28  H    0.007695  -0.008983  -0.001150  -0.000363   0.000279  -0.000019
    29  H    0.000552  -0.033676  -0.003130   0.001541  -0.001006   0.000176
    30  H    0.016439   0.020122   0.006229  -0.000743   0.000155  -0.000009
    31  H   -0.014006   0.005262   0.006498  -0.000850   0.000099   0.000004
    32  H   -0.018566  -0.000473  -0.001266  -0.000055  -0.000021  -0.000002
    33  H    0.016876   0.003530   0.004555   0.001282  -0.000065   0.000006
    34  H   -0.030015   0.289488  -0.058322   0.046804  -0.027289   0.007568
    35  H    0.063709  -0.066795   0.186997  -0.012905   0.038880   0.035114
    36  H    0.012220  -0.005147  -0.008420   0.204738   0.068540   0.043625
    37  H   -0.000008   0.000002   0.000013   0.000297   0.001710  -0.002360
    38  H    0.000004  -0.000003   0.000000  -0.002234   0.002500  -0.058931
    39  H   -0.000000   0.000000   0.000000   0.000001   0.000003   0.000078
    40  H   -0.000000  -0.000000  -0.000000  -0.000001  -0.000005  -0.000095
    41  H   -0.008698   0.002259   0.029281  -0.000858  -0.001881   0.000035
    42  H   -0.007269  -0.001075  -0.013419   0.001311   0.000403   0.000144
    43  H    0.026371  -0.000236  -0.015097   0.003114   0.000301  -0.000063
              13         14         15         16         17         18
     1  C    0.000125  -0.000693  -0.000122  -0.000003  -0.000000  -0.000000
     2  C   -0.012455  -0.027105  -0.007492   0.000150   0.000013  -0.000000
     3  C    0.001190  -0.003914  -0.000541   0.000011   0.000003  -0.000000
     4  C    0.003103   0.006744   0.001079  -0.000024  -0.000002   0.000000
     5  C   -0.000194   0.000419   0.000031  -0.000000  -0.000000   0.000000
     6  C    0.028574   0.006741   0.003194  -0.000135   0.000002  -0.000000
     7  C    0.022885   0.023699   0.018431  -0.000783   0.000022  -0.000001
     8  C   -0.050124  -0.015485  -0.014470   0.000464   0.000018   0.000000
     9  C   -0.061770   0.017816   0.007262   0.000267  -0.000209   0.000001
    10  C   -3.473541  -0.369885  -1.724257   0.096965   0.004654   0.000094
    11  C    2.047054   0.085313   0.727833  -0.010068  -0.014015   0.000277
    12  C   -7.211795   4.299049  -7.724695   0.644462   0.025160   0.002407
    13  C   14.287887  -5.369659   5.653859  -0.553130  -0.157576   0.001572
    14  C   -5.369659  26.545478 -22.705668   4.150513  -0.037275   0.011149
    15  C    5.653859 -22.705668  37.629637  -6.045616  -0.083548  -0.077775
    16  C   -0.553130   4.150513  -6.045616  11.998347  -1.575242  -0.020151
    17  C   -0.157576  -0.037275  -0.083548  -1.575242   7.356066   0.450179
    18  N    0.001572   0.011149  -0.077775  -0.020151   0.450179   7.081967
    19  C   -0.002247  -0.918973   1.824012  -4.057149  -0.044664   0.012317
    20  N    0.025909  -0.061959   0.108359  -0.144757  -0.023636   0.007404
    21  S   -0.184287   0.868544  -1.241117   0.804973   0.110236   0.007929
    22  O    0.015154  -0.023271  -0.017541   0.138910  -0.001853  -0.000123
    23  C    0.043710  -0.008431   0.004139  -0.000203  -0.000025   0.000000
    24  O    0.002412  -0.000209   0.000025   0.000006   0.000001  -0.000000
    25  N    0.004048   0.001293   0.000233  -0.000002   0.000001  -0.000000
    26  C    0.002252   0.000459   0.000139  -0.000003   0.000000  -0.000000
    27  H    0.000001   0.000000   0.000000   0.000000   0.000000   0.000000
    28  H    0.000010   0.000002   0.000000  -0.000000   0.000000  -0.000000
    29  H   -0.000046  -0.000001  -0.000001  -0.000000  -0.000000   0.000000
    30  H    0.000001   0.000000   0.000000   0.000000  -0.000000   0.000000
    31  H    0.000000   0.000000   0.000000   0.000000   0.000000  -0.000000
    32  H   -0.000000  -0.000000  -0.000000  -0.000000  -0.000000   0.000000
    33  H   -0.000000   0.000000  -0.000000  -0.000000  -0.000000   0.000000
    34  H   -0.002963  -0.000116  -0.000113  -0.000001  -0.000000   0.000000
    35  H    0.000155   0.003127   0.000420  -0.000002   0.000000  -0.000000
    36  H    0.001706   0.004506   0.000699   0.000026   0.000000   0.000000
    37  H    0.023576   0.002910   0.241730   0.073892  -0.013259   0.000174
    38  H    0.102378  -0.337668   0.338122   0.303129  -0.107935  -0.001733
    39  H   -0.000163   0.003668  -0.015661   0.102427  -0.017886  -0.000104
    40  H   -0.000189  -0.005483   0.003680  -0.043097   0.019211   0.005096
    41  H   -0.000028  -0.000002  -0.000000   0.000000  -0.000000   0.000000
    42  H    0.000001   0.000001   0.000000   0.000000   0.000000  -0.000000
    43  H    0.000002  -0.000000  -0.000000  -0.000000  -0.000000   0.000000
              19         20         21         22         23         24
     1  C    0.000000   0.000000  -0.000000  -0.000000  -0.017453  -0.000028
     2  C    0.000008  -0.000000   0.000007  -0.000000   0.003700  -0.004596
     3  C    0.000002  -0.000000   0.000000  -0.000000   0.157683   0.002585
     4  C   -0.000004   0.000000  -0.000001   0.000000   0.455866  -0.026338
     5  C   -0.000000   0.000000   0.000000   0.000000  -0.106237  -0.000275
     6  C   -0.000006   0.000000  -0.000008   0.000000   0.084966  -0.071076
     7  C   -0.000337   0.000002   0.000062   0.000000   0.285330  -0.020542
     8  C    0.000112  -0.000001   0.000006  -0.000000  -0.779801   0.019451
     9  C   -0.000066  -0.000000  -0.000132   0.000000  -2.388907   0.109374
    10  C   -0.011135  -0.000306   0.016600  -0.000108  -0.255378  -0.011107
    11  C   -0.014082   0.000641  -0.004831   0.000293   0.065349   0.008865
    12  C   -0.073959  -0.009716   0.152535  -0.005261  -0.143288  -0.013215
    13  C   -0.002247   0.025909  -0.184287   0.015154   0.043710   0.002412
    14  C   -0.918973  -0.061959   0.868544  -0.023271  -0.008431  -0.000209
    15  C    1.824012   0.108359  -1.241117  -0.017541   0.004139   0.000025
    16  C   -4.057149  -0.144757   0.804973   0.138910  -0.000203   0.000006
    17  C   -0.044664  -0.023636   0.110236  -0.001853  -0.000025   0.000001
    18  N    0.012317   0.007404   0.007929  -0.000123   0.000000  -0.000000
    19  C   11.278307   0.303089  -1.800486  -0.080902   0.000133  -0.000001
    20  N    0.303089   6.762470  -0.117673  -0.028367  -0.000000  -0.000000
    21  S   -1.800486  -0.117673  16.506422   0.036778  -0.000158   0.000002
    22  O   -0.080902  -0.028367   0.036778   8.622876  -0.000000  -0.000000
    23  C    0.000133  -0.000000  -0.000158  -0.000000   7.887955   0.362586
    24  O   -0.000001  -0.000000   0.000002  -0.000000   0.362586   8.273960
    25  N    0.000001  -0.000000   0.000000  -0.000000   0.440545  -0.085993
    26  C    0.000001   0.000000  -0.000001   0.000000  -0.025040  -0.081277
    27  H    0.000000  -0.000000  -0.000000   0.000000  -0.000142   0.000000
    28  H    0.000000  -0.000000  -0.000000  -0.000000   0.000054  -0.000000
    29  H   -0.000000   0.000000  -0.000000   0.000000  -0.000031   0.000000
    30  H    0.000000  -0.000000   0.000000   0.000000   0.000419  -0.000001
    31  H    0.000000  -0.000000   0.000000  -0.000000  -0.005127   0.000016
    32  H   -0.000000   0.000000   0.000000   0.000000  -0.000511  -0.000001
    33  H   -0.000000   0.000000  -0.000000   0.000000  -0.000261   0.000003
    34  H   -0.000000   0.000000  -0.000000   0.000000   0.011107   0.000029
    35  H    0.000000   0.000000   0.000000   0.000000  -0.024276  -0.000535
    36  H   -0.000004   0.000000   0.000001   0.000000   0.000748   0.001452
    37  H   -0.020207  -0.000002  -0.002588   0.000221   0.000001   0.000000
    38  H    0.044888   0.002727  -0.004606   0.000317  -0.000000  -0.000000
    39  H   -0.088748   0.303158   0.007757   0.037749  -0.000000   0.000000
    40  H    0.027158   0.315238  -0.003158   0.001172  -0.000000   0.000000
    41  H   -0.000000  -0.000000   0.000000  -0.000000  -0.023589   0.007252
    42  H    0.000000  -0.000000  -0.000000  -0.000000   0.005833   0.001570
    43  H    0.000000   0.000000   0.000000   0.000000   0.017501   0.001430
              25         26         27         28         29         30
     1  C    0.002995  -0.000038   0.490447   0.456084   0.463247  -0.025465
     2  C   -0.080389   0.018844  -0.088209  -0.141931  -0.123628   0.047221
     3  C    0.059004  -0.065797  -0.026549   0.050201   0.053744   0.228499
     4  C    0.101273   0.065843   0.003067  -0.008083  -0.005060  -0.011602
     5  C   -0.018191  -0.086333  -0.003284   0.000614   0.000774  -0.024049
     6  C    0.201688   0.035507  -0.002648  -0.005930  -0.004947   0.028797
     7  C   -0.142063  -0.126117  -0.000507   0.007695   0.000552   0.016439
     8  C   -0.194204  -0.070875  -0.020530  -0.008983  -0.033676   0.020122
     9  C   -1.111414  -0.224174   0.001931  -0.001150  -0.003130   0.006229
    10  C    0.071273  -0.038185   0.000106  -0.000363   0.001541  -0.000743
    11  C    0.114882   0.047163   0.000029   0.000279  -0.001006   0.000155
    12  C    0.023895   0.002422   0.000007  -0.000019   0.000176  -0.000009
    13  C    0.004048   0.002252   0.000001   0.000010  -0.000046   0.000001
    14  C    0.001293   0.000459   0.000000   0.000002  -0.000001   0.000000
    15  C    0.000233   0.000139   0.000000   0.000000  -0.000001   0.000000
    16  C   -0.000002  -0.000003   0.000000  -0.000000  -0.000000   0.000000
    17  C    0.000001   0.000000   0.000000   0.000000  -0.000000  -0.000000
    18  N   -0.000000  -0.000000   0.000000  -0.000000   0.000000   0.000000
    19  C    0.000001   0.000001   0.000000   0.000000  -0.000000   0.000000
    20  N   -0.000000   0.000000  -0.000000  -0.000000   0.000000  -0.000000
    21  S    0.000000  -0.000001  -0.000000  -0.000000  -0.000000   0.000000
    22  O   -0.000000   0.000000   0.000000  -0.000000   0.000000   0.000000
    23  C    0.440545  -0.025040  -0.000142   0.000054  -0.000031   0.000419
    24  O   -0.085993  -0.081277   0.000000  -0.000000   0.000000  -0.000001
    25  N    7.570545   0.222485   0.000002   0.000005   0.000024  -0.001110
    26  C    0.222485   5.295499   0.000003  -0.000026  -0.000022   0.000025
    27  H    0.000002   0.000003   0.545508  -0.026380  -0.026265   0.003971
    28  H    0.000005  -0.000026  -0.026380   0.542694  -0.031487   0.000133
    29  H    0.000024  -0.000022  -0.026265  -0.031487   0.542829   0.000135
    30  H   -0.001110   0.000025   0.003971   0.000133   0.000135   0.590982
    31  H    0.003735  -0.005520   0.000000  -0.000000  -0.000000   0.000204
    32  H   -0.001307  -0.000783  -0.000002   0.000000   0.000000   0.004779
    33  H    0.005044  -0.002678   0.000000  -0.000000  -0.000000   0.000195
    34  H   -0.001351   0.000089   0.000075   0.000865   0.000953  -0.000176
    35  H    0.037848   0.001536  -0.000000  -0.000001   0.000000  -0.000000
    36  H    0.009799   0.000215  -0.000000   0.000000  -0.000000  -0.000000
    37  H   -0.000000  -0.000000  -0.000000  -0.000000  -0.000000  -0.000000
    38  H   -0.000000   0.000000  -0.000000   0.000000   0.000000   0.000000
    39  H   -0.000000  -0.000000   0.000000   0.000000   0.000000   0.000000
    40  H    0.000000   0.000000   0.000000   0.000000   0.000000   0.000000
    41  H   -0.056663   0.422226  -0.000000   0.000000   0.000000  -0.000000
    42  H   -0.041067   0.405705   0.000000   0.000000  -0.000000  -0.000000
    43  H   -0.041145   0.386994   0.000000  -0.000000   0.000000  -0.000000
              31         32         33         34         35         36
     1  C   -0.000376  -0.002978  -0.000570   0.000948  -0.000593  -0.001070
     2  C   -0.012564   0.012552  -0.023218  -0.023024  -0.034145  -0.030495
     3  C    0.031829  -0.115767   0.045481   0.065578   0.024581   0.005533
     4  C   -0.172525  -0.086133  -0.153093   0.011863   0.001895   0.000623
     5  C    0.517963   0.547983   0.466104   0.002531  -0.003451   0.000021
     6  C   -0.006878   0.021625  -0.015779   0.003482   0.028291  -0.007222
     7  C   -0.014006  -0.018566   0.016876  -0.030015   0.063709   0.012220
     8  C    0.005262  -0.000473   0.003530   0.289488  -0.066795  -0.005147
     9  C    0.006498  -0.001266   0.004555  -0.058322   0.186997  -0.008420
    10  C   -0.000850  -0.000055   0.001282   0.046804  -0.012905   0.204738
    11  C    0.000099  -0.000021  -0.000065  -0.027289   0.038880   0.068540
    12  C    0.000004  -0.000002   0.000006   0.007568   0.035114   0.043625
    13  C    0.000000  -0.000000  -0.000000  -0.002963   0.000155   0.001706
    14  C    0.000000  -0.000000   0.000000  -0.000116   0.003127   0.004506
    15  C    0.000000  -0.000000  -0.000000  -0.000113   0.000420   0.000699
    16  C    0.000000  -0.000000  -0.000000  -0.000001  -0.000002   0.000026
    17  C    0.000000  -0.000000  -0.000000  -0.000000   0.000000   0.000000
    18  N   -0.000000   0.000000   0.000000   0.000000  -0.000000   0.000000
    19  C    0.000000  -0.000000  -0.000000  -0.000000   0.000000  -0.000004
    20  N   -0.000000   0.000000   0.000000   0.000000   0.000000   0.000000
    21  S    0.000000   0.000000  -0.000000  -0.000000   0.000000   0.000001
    22  O   -0.000000   0.000000   0.000000   0.000000   0.000000   0.000000
    23  C   -0.005127  -0.000511  -0.000261   0.011107  -0.024276   0.000748
    24  O    0.000016  -0.000001   0.000003   0.000029  -0.000535   0.001452
    25  N    0.003735  -0.001307   0.005044  -0.001351   0.037848   0.009799
    26  C   -0.005520  -0.000783  -0.002678   0.000089   0.001536   0.000215
    27  H    0.000000  -0.000002   0.000000   0.000075  -0.000000  -0.000000
    28  H   -0.000000   0.000000  -0.000000   0.000865  -0.000001   0.000000
    29  H   -0.000000   0.000000  -0.000000   0.000953   0.000000  -0.000000
    30  H    0.000204   0.004779   0.000195  -0.000176  -0.000000  -0.000000
    31  H    0.550404  -0.025602  -0.033195  -0.000000  -0.000001   0.000000
    32  H   -0.025602   0.539856  -0.025847  -0.000000  -0.000000  -0.000000
    33  H   -0.033195  -0.025847   0.550352  -0.000000   0.000000  -0.000000
    34  H   -0.000000  -0.000000  -0.000000   0.572106   0.000631  -0.000000
    35  H   -0.000001  -0.000000   0.000000   0.000631   0.533329   0.003805
    36  H    0.000000  -0.000000  -0.000000  -0.000000   0.003805   0.533830
    37  H   -0.000000   0.000000   0.000000  -0.000000   0.000000   0.000000
    38  H    0.000000   0.000000   0.000000   0.000000   0.000000   0.000000
    39  H    0.000000   0.000000   0.000000   0.000000  -0.000000   0.000000
    40  H    0.000000   0.000000   0.000000  -0.000000   0.000000  -0.000000
    41  H    0.000111  -0.000004   0.000100  -0.000000  -0.000008   0.000000
    42  H   -0.001344   0.000091  -0.000126   0.000000   0.000027   0.000001
    43  H   -0.000331   0.000108  -0.001274   0.000000   0.000001   0.000001
              37         38         39         40         41         42
     1  C   -0.000000   0.000000  -0.000000   0.000000  -0.000020   0.000017
     2  C    0.000000  -0.000000   0.000000  -0.000000   0.000266  -0.000903
     3  C    0.000000  -0.000000   0.000000  -0.000000  -0.012837   0.027701
     4  C   -0.000000   0.000000  -0.000000   0.000000  -0.041458   0.036297
     5  C   -0.000000   0.000000  -0.000000  -0.000000   0.005894   0.003801
     6  C   -0.000000   0.000000  -0.000000   0.000000   0.051481  -0.063054
     7  C   -0.000008   0.000004  -0.000000  -0.000000  -0.008698  -0.007269
     8  C    0.000002  -0.000003   0.000000  -0.000000   0.002259  -0.001075
     9  C    0.000013   0.000000   0.000000  -0.000000   0.029281  -0.013419
    10  C    0.000297  -0.002234   0.000001  -0.000001  -0.000858   0.001311
    11  C    0.001710   0.002500   0.000003  -0.000005  -0.001881   0.000403
    12  C   -0.002360  -0.058931   0.000078  -0.000095   0.000035   0.000144
    13  C    0.023576   0.102378  -0.000163  -0.000189  -0.000028   0.000001
    14  C    0.002910  -0.337668   0.003668  -0.005483  -0.000002   0.000001
    15  C    0.241730   0.338122  -0.015661   0.003680  -0.000000   0.000000
    16  C    0.073892   0.303129   0.102427  -0.043097   0.000000   0.000000
    17  C   -0.013259  -0.107935  -0.017886   0.019211  -0.000000   0.000000
    18  N    0.000174  -0.001733  -0.000104   0.005096   0.000000  -0.000000
    19  C   -0.020207   0.044888  -0.088748   0.027158  -0.000000   0.000000
    20  N   -0.000002   0.002727   0.303158   0.315238  -0.000000  -0.000000
    21  S   -0.002588  -0.004606   0.007757  -0.003158   0.000000  -0.000000
    22  O    0.000221   0.000317   0.037749   0.001172  -0.000000  -0.000000
    23  C    0.000001  -0.000000  -0.000000  -0.000000  -0.023589   0.005833
    24  O    0.000000  -0.000000   0.000000   0.000000   0.007252   0.001570
    25  N   -0.000000  -0.000000  -0.000000   0.000000  -0.056663  -0.041067
    26  C   -0.000000   0.000000  -0.000000   0.000000   0.422226   0.405705
    27  H   -0.000000  -0.000000   0.000000   0.000000  -0.000000   0.000000
    28  H   -0.000000   0.000000   0.000000   0.000000   0.000000   0.000000
    29  H   -0.000000   0.000000   0.000000   0.000000   0.000000  -0.000000
    30  H   -0.000000   0.000000   0.000000   0.000000  -0.000000  -0.000000
    31  H   -0.000000   0.000000   0.000000   0.000000   0.000111  -0.001344
    32  H    0.000000   0.000000   0.000000   0.000000  -0.000004   0.000091
    33  H    0.000000   0.000000   0.000000   0.000000   0.000100  -0.000126
    34  H   -0.000000   0.000000   0.000000  -0.000000  -0.000000   0.000000
    35  H    0.000000   0.000000  -0.000000   0.000000  -0.000008   0.000027
    36  H    0.000000   0.000000   0.000000  -0.000000   0.000000   0.000001
    37  H    0.504213   0.002374   0.000007  -0.000008   0.000000  -0.000000
    38  H    0.002374   0.495154  -0.000159   0.000252  -0.000000   0.000000
    39  H    0.000007  -0.000159   0.329634  -0.018278   0.000000   0.000000
    40  H   -0.000008   0.000252  -0.018278   0.374498   0.000000   0.000000
    41  H    0.000000  -0.000000   0.000000   0.000000   0.482973  -0.023959
    42  H   -0.000000   0.000000   0.000000   0.000000  -0.023959   0.553568
    43  H   -0.000000  -0.000000   0.000000   0.000000  -0.023856  -0.038009
              43
     1  C   -0.000031
     2  C   -0.005104
     3  C    0.044415
     4  C    0.057050
     5  C   -0.033034
     6  C   -0.086226
     7  C    0.026371
     8  C   -0.000236
     9  C   -0.015097
    10  C    0.003114
    11  C    0.000301
    12  C   -0.000063
    13  C    0.000002
    14  C   -0.000000
    15  C   -0.000000
    16  C   -0.000000
    17  C   -0.000000
    18  N    0.000000
    19  C    0.000000
    20  N    0.000000
    21  S    0.000000
    22  O    0.000000
    23  C    0.017501
    24  O    0.001430
    25  N   -0.041145
    26  C    0.386994
    27  H    0.000000
    28  H   -0.000000
    29  H    0.000000
    30  H   -0.000000
    31  H   -0.000331
    32  H    0.000108
    33  H   -0.001274
    34  H    0.000000
    35  H    0.000001
    36  H    0.000001
    37  H   -0.000000
    38  H   -0.000000
    39  H    0.000000
    40  H    0.000000
    41  H   -0.023856
    42  H   -0.038009
    43  H    0.555458
 Mulliken charges:
               1
     1  C   -0.399255
     2  C    0.404470
     3  C   -1.343050
     4  C    0.384026
     5  C   -0.643284
     6  C    0.737361
     7  C   -0.196165
     8  C   -0.011826
     9  C   -0.052081
    10  C   -0.220565
    11  C   -0.614146
    12  C    0.763524
    13  C    0.812603
    14  C   -0.145631
    15  C   -0.904267
    16  C    0.135824
    17  C    0.111561
    18  N   -0.480677
    19  C   -0.377058
    20  N   -0.442578
    21  S    0.847197
    22  O   -0.696043
    23  C   -0.048766
    24  O   -0.475824
    25  N   -0.095719
    26  C   -0.180536
    27  H    0.149371
    28  H    0.165714
    29  H    0.165322
    30  H    0.114853
    31  H    0.162193
    32  H    0.152328
    33  H    0.162578
    34  H    0.129258
    35  H    0.182363
    36  H    0.160264
    37  H    0.187312
    38  H    0.221425
    39  H    0.356519
    40  H    0.324008
    41  H    0.191982
    42  H    0.153757
    43  H    0.151662
 Sum of Mulliken charges =  -0.00000
 Mulliken charges with hydrogens summed into heavy atoms:
               1
     1  C    0.081152
     2  C    0.404470
     3  C   -1.228198
     4  C    0.384026
     5  C   -0.166184
     6  C    0.737361
     7  C   -0.196165
     8  C    0.117432
     9  C    0.130282
    10  C   -0.060301
    11  C   -0.614146
    12  C    0.763524
    13  C    0.812603
    14  C   -0.145631
    15  C   -0.716955
    16  C    0.357248
    17  C    0.111561
    18  N   -0.480677
    19  C   -0.377058
    20  N    0.237948
    21  S    0.847197
    22  O   -0.696043
    23  C   -0.048766
    24  O   -0.475824
    25  N   -0.095719
    26  C    0.316865
 Electronic spatial extent (au):  <R**2>=          22521.3496
 Charge=             -0.0000 electrons
 Dipole moment (field-independent basis, Debye):
    X=              8.1839    Y=              3.4905    Z=              1.5446  Tot=              9.0302
 Quadrupole moment (field-independent basis, Debye-Ang):
   XX=           -150.9389   YY=           -185.3811   ZZ=           -155.9071
   XY=            -14.4724   XZ=             -6.2597   YZ=              0.0645
 Traceless Quadrupole moment (field-independent basis, Debye-Ang):
   XX=             13.1368   YY=            -21.3054   ZZ=              8.1686
   XY=            -14.4724   XZ=             -6.2597   YZ=              0.0645
 Octapole moment (field-independent basis, Debye-Ang**2):
  XXX=            458.4727  YYY=            -17.2201  ZZZ=              0.0951  XYY=            194.3793
  XXY=             87.8241  XXZ=             95.7330  XZZ=            -27.0679  YZZ=            -11.3873
  YYZ=              6.1194  XYZ=            -17.5400
 Hexadecapole moment (field-independent basis, Debye-Ang**3):
 XXXX=         -26691.3654 YYYY=          -3689.7693 ZZZZ=           -339.0560 XXXY=          -1406.8196
 XXXZ=           -626.4857 YYYX=            325.9580 YYYZ=             -3.1226 ZZZX=              7.7810
 ZZZY=              2.9580 XXYY=          -6121.2385 XXZZ=          -4552.9470 YYZZ=           -615.9379
 XXYZ=             78.1838 YYXZ=            -13.9852 ZZXY=            -42.1710
 N-N= 2.033080812316D+03 E-N=-7.533858358719D+03  KE= 1.473392043051D+03
 Unable to Open any file for archive entry.
 1\1\GINC-N2\SP\RB3LYP TD-FC\6-31+G(d,p)\C20H17N3O2S1\HPCMGAC13\25-Aug-
 2025\0\\# td=(50-50,nstates=3) b3lyp/6-31+g(d,p) geom=connectivity\\Ti
 tle Card Required\\0,1\C,0,5.256005,3.912347,-0.13847\C,0,5.181785,2.4
 03132,-0.095102\C,0,6.327987,1.624874,0.094958\C,0,6.329207,0.21661,0.
 145808\C,0,7.642336,-0.506908,0.362504\C,0,5.082477,-0.405133,-0.00954
 4\C,0,3.915603,0.356161,-0.206525\C,0,3.95191,1.74,-0.246025\C,0,2.730
 377,-0.573645,-0.355125\C,0,1.638295,-0.340786,0.659207\C,0,0.368839,-
 0.13013,0.35588\C,0,-0.853027,0.083584,0.074348\C,0,-2.094527,0.299919
 ,-0.213048\C,0,-3.314783,0.517538,-0.498155\C,0,-4.583754,0.740705,-0.
 796039\C,0,-5.644313,0.994078,0.26983\C,0,-6.235109,2.336663,0.101331\
 N,0,-6.723287,3.384516,-0.011871\C,0,-6.737658,-0.065477,0.281904\N,0,
 -7.935017,0.182105,0.830479\S,0,-6.465741,-1.625653,-0.299798\O,0,-7.7
 88413,-2.371803,-0.030664\C,0,3.38027,-1.969013,-0.192322\O,0,2.80795,
 -3.045345,-0.231996\N,0,4.738521,-1.782915,-0.00571\C,0,5.624492,-2.92
 8331,0.145073\H,0,6.282079,4.264282,0.000758\H,0,4.897189,4.30266,-1.0
 98125\H,0,4.638555,4.365579,0.645951\H,0,7.283071,2.131713,0.213185\H,
 0,7.887143,-1.183392,-0.462256\H,0,8.455944,0.218898,0.438661\H,0,7.64
 5646,-1.095664,1.285457\H,0,3.035269,2.306315,-0.392898\H,0,2.302921,-
 0.531595,-1.363477\H,0,1.937582,-0.347613,1.707814\H,0,-4.919498,0.769
 433,-1.830945\H,0,-5.157567,0.987979,1.255027\H,0,-8.600689,-0.590914,
 0.786297\H,0,-8.251422,1.119248,1.034735\H,0,4.996834,-3.819406,0.1021
 69\H,0,6.358697,-2.970049,-0.663883\H,0,6.143823,-2.902905,1.106369\\V
 ersion=ES64L-G16RevC.02\State=1-A\HF=-1485.1400156\RMSD=3.026e-09\PG=C
 01 [X(C20H17N3O2S1)]\\@
 The archive entry for this job was punched.



 WE LOSE BECAUSE WE WIN

 GAMBLERS,

 RECOLLECTING WHICH,

 TOSS THEIR DICE AGAIN....


                          EMILY DICKINSON  BOLTS OF MELODY NO. 533
 Job cpu time:       0 days  1 hours 32 minutes 39.0 seconds.
 Elapsed time:       0 days  0 hours  5 minutes 59.5 seconds.
 File lengths (MBytes):  RWF=   1760 Int=      0 D2E=      0 Chk=     87 Scr=      2
 Normal termination of Gaussian 16 at Mon Aug 25 14:58:56 2025.
