 Entering Gaussian System, Link 0=g16
 Input=M803E.gjf
 Output=M803E.log
 Initial command:
 /hpc/softwares/Gaussian/g16/l1.exe "/hpc/home/hpcmgac13/pbs.13418.admin1.x8z/Gau-374717.inp" -scrdir="/hpc/home/hpcmgac13/pbs.13418.admin1.x8z/"
 Default linda workers: n1
 Default is to use  16 SMP processors on each worker.
 Entering Link 1 = /hpc/softwares/Gaussian/g16/l1.exe PID=    374718.
  
 Copyright (c) 1988-2021, Gaussian, Inc.  All Rights Reserved.
  
 This is part of the Gaussian(R) 16 program.  It is based on
 the Gaussian(R) 09 system (copyright 2009, Gaussian, Inc.),
 the Gaussian(R) 03 system (copyright 2003, Gaussian, Inc.),
 the Gaussian(R) 98 system (copyright 1998, Gaussian, Inc.),
 the Gaussian(R) 94 system (copyright 1995, Gaussian, Inc.),
 the Gaussian 92(TM) system (copyright 1992, Gaussian, Inc.),
 the Gaussian 90(TM) system (copyright 1990, Gaussian, Inc.),
 the Gaussian 88(TM) system (copyright 1988, Gaussian, Inc.),
 the Gaussian 86(TM) system (copyright 1986, Carnegie Mellon
 University), and the Gaussian 82(TM) system (copyright 1983,
 Carnegie Mellon University). Gaussian is a federally registered
 trademark of Gaussian, Inc.
  
 This software contains proprietary and confidential information,
 including trade secrets, belonging to Gaussian, Inc.
  
 This software is provided under written license and may be
 used, copied, transmitted, or stored only in accord with that
 written license.
  
 The following legend is applicable only to US Government
 contracts under FAR:
  
                    RESTRICTED RIGHTS LEGEND
  
 Use, reproduction and disclosure by the US Government is
 subject to restrictions as set forth in subparagraphs (a)
 and (c) of the Commercial Computer Software - Restricted
 Rights clause in FAR 52.227-19.
  
 Gaussian, Inc.
 340 Quinnipiac St., Bldg. 40, Wallingford CT 06492
  
  
 ---------------------------------------------------------------
 Warning -- This program may not be used in any manner that
 competes with the business of Gaussian, Inc. or will provide
 assistance to any competitor of Gaussian, Inc.  The licensee
 of this program is prohibited from giving any competitor of
 Gaussian, Inc. access to this program.  By using this program,
 the user acknowledges that Gaussian, Inc. is engaged in the
 business of creating and licensing software in the field of
 computational chemistry and represents and warrants to the
 licensee that it is not a competitor of Gaussian, Inc. and that
 it will not use this program in any manner prohibited above.
 ---------------------------------------------------------------
  

 Cite this work as:
 Gaussian 16, Revision C.02,
 M. J. Frisch, G. W. Trucks, H. B. Schlegel, G. E. Scuseria, 
 M. A. Robb, J. R. Cheeseman, G. Scalmani, V. Barone, 
 G. A. Petersson, H. Nakatsuji, X. Li, M. Caricato, A. V. Marenich, 
 J. Bloino, B. G. Janesko, R. Gomperts, B. Mennucci, H. P. Hratchian, 
 J. V. Ortiz, A. F. Izmaylov, J. L. Sonnenberg, D. Williams-Young, 
 F. Ding, F. Lipparini, F. Egidi, J. Goings, B. Peng, A. Petrone, 
 T. Henderson, D. Ranasinghe, V. G. Zakrzewski, J. Gao, N. Rega, 
 G. Zheng, W. Liang, M. Hada, M. Ehara, K. Toyota, R. Fukuda, 
 J. Hasegawa, M. Ishida, T. Nakajima, Y. Honda, O. Kitao, H. Nakai, 
 T. Vreven, K. Throssell, J. A. Montgomery, Jr., J. E. Peralta, 
 F. Ogliaro, M. J. Bearpark, J. J. Heyd, E. N. Brothers, K. N. Kudin, 
 V. N. Staroverov, T. A. Keith, R. Kobayashi, J. Normand, 
 K. Raghavachari, A. P. Rendell, J. C. Burant, S. S. Iyengar, 
 J. Tomasi, M. Cossi, J. M. Millam, M. Klene, C. Adamo, R. Cammi, 
 J. W. Ochterski, R. L. Martin, K. Morokuma, O. Farkas, 
 J. B. Foresman, and D. J. Fox, Gaussian, Inc., Wallingford CT, 2019.
 
 ******************************************
 Gaussian 16:  ES64L-G16RevC.02  7-Dec-2021
                25-Aug-2025 
 ******************************************
 SetLPE:    new flags="-opt 'Tsnet.Node.lindarsharg: ssh'  -nodelist 'n1' -env GAUSS_MDEF=4294967296 -env GAUSS_EXEDIR="/hpc/softwares/Gaussian/g16/bsd:/hpc/softwares/Gaussian/g16""
 Will use up to    1 processors via Linda.
 ----------------------------------------------------------
 # td=(50-50,nstates=3) b3lyp/6-31+g(d,p) geom=connectivity
 ----------------------------------------------------------
 1/38=1,57=2,172=1/1;
 2/12=2,17=6,18=5,40=1/2;
 3/5=1,6=6,7=111,11=9,25=1,30=1,74=-5/1,2,3,8;
 4//1;
 5/5=2,38=5/2;
 8/6=1,10=2,108=3/1;
 9/41=3,42=1,48=2,70=2/14;
 6/7=2,8=2,9=2,10=2/1;
 99/5=1,9=1/99;
 -------------------
 Title Card Required
 -------------------
 Symbolic Z-matrix:
 Charge =  0 Multiplicity = 1
 C                    -2.10877   2.88148   0.64958 
 C                    -0.80487   2.44051   0.06495 
 C                    -0.28549   1.205    -0.19715 
 C                     1.17997   1.21566  -0.31498 
 C                     1.98902   0.17766   0.00411 
 C                     3.52286   0.24142  -0.04653 
 C                     4.01521   1.5716   -0.65066 
 C                     4.10593   0.1166    1.3838 
 C                     4.06079  -0.9122   -0.93032 
 C                     1.31989  -1.04491   0.49597 
 O                     1.91491  -2.00037   0.99185 
 C                    -0.1661   -1.14091   0.28454 
 O                    -0.57645  -2.42428   0.4922 
 C                    -0.95167  -0.12187  -0.18195 
 C                    -2.30166  -0.42181  -0.91001 
 C                    -2.93305   0.80576  -1.6034 
 C                    -2.0006   -1.43794  -2.05078 
 C                    -3.41984  -1.06635  -0.01317 
 C                    -3.70932  -0.38058   1.24766 
 N                    -3.95203   0.15277   2.2504 
 H                    -1.89371   3.53813   1.50253 
 H                    -2.68584   3.49019  -0.05991 
 H                    -2.7309    2.06821   1.01721 
 H                    -0.09668   3.26045  -0.05543 
 H                     1.6135    2.17662  -0.57162 
 H                     5.10853   1.5585   -0.70743 
 H                     3.63332   1.72793  -1.66624 
 H                     3.73274   2.43467  -0.03723 
 H                     5.20026   0.17114   1.34288 
 H                     3.82308  -0.83052   1.84555 
 H                     3.75191   0.93559   2.02056 
 H                     3.67704  -0.83089  -1.95409 
 H                     5.15481  -0.86237  -0.97741 
 H                     3.77843  -1.88652  -0.52799 
 H                    -1.529    -2.45849   0.6259 
 H                    -3.7081    0.45727  -2.29431 
 H                    -3.40635   1.49574  -0.90738 
 H                    -2.19159   1.35625  -2.18621 
 H                    -2.93013  -1.72232  -2.55764 
 H                    -1.50972  -2.34612  -1.69696 
 H                    -1.34573  -0.9703   -2.79144 
 H                    -4.3475   -1.09103  -0.59813 
 H                    -3.21567  -2.11896   0.21951 
 
                          Input orientation:                          
 ---------------------------------------------------------------------
 Center     Atomic      Atomic             Coordinates (Angstroms)
 Number     Number       Type             X           Y           Z
 ---------------------------------------------------------------------
      1          6           0       -2.108770    2.881480    0.649582
      2          6           0       -0.804867    2.440513    0.064951
      3          6           0       -0.285488    1.204995   -0.197149
      4          6           0        1.179969    1.215663   -0.314984
      5          6           0        1.989023    0.177656    0.004112
      6          6           0        3.522862    0.241417   -0.046528
      7          6           0        4.015212    1.571596   -0.650660
      8          6           0        4.105928    0.116598    1.383802
      9          6           0        4.060787   -0.912197   -0.930316
     10          6           0        1.319887   -1.044909    0.495973
     11          8           0        1.914913   -2.000371    0.991851
     12          6           0       -0.166101   -1.140913    0.284538
     13          8           0       -0.576447   -2.424279    0.492199
     14          6           0       -0.951669   -0.121874   -0.181946
     15          6           0       -2.301664   -0.421814   -0.910005
     16          6           0       -2.933048    0.805760   -1.603398
     17          6           0       -2.000604   -1.437936   -2.050783
     18          6           0       -3.419840   -1.066350   -0.013168
     19          6           0       -3.709323   -0.380582    1.247660
     20          7           0       -3.952026    0.152772    2.250401
     21          1           0       -1.893709    3.538126    1.502529
     22          1           0       -2.685838    3.490192   -0.059914
     23          1           0       -2.730903    2.068215    1.017213
     24          1           0       -0.096682    3.260453   -0.055426
     25          1           0        1.613504    2.176617   -0.571622
     26          1           0        5.108529    1.558497   -0.707431
     27          1           0        3.633316    1.727926   -1.666242
     28          1           0        3.732739    2.434668   -0.037225
     29          1           0        5.200255    0.171136    1.342882
     30          1           0        3.823075   -0.830515    1.845547
     31          1           0        3.751905    0.935590    2.020562
     32          1           0        3.677043   -0.830887   -1.954090
     33          1           0        5.154806   -0.862368   -0.977411
     34          1           0        3.778431   -1.886523   -0.527992
     35          1           0       -1.529004   -2.458489    0.625903
     36          1           0       -3.708096    0.457269   -2.294308
     37          1           0       -3.406349    1.495742   -0.907383
     38          1           0       -2.191594    1.356250   -2.186212
     39          1           0       -2.930133   -1.722321   -2.557644
     40          1           0       -1.509715   -2.346118   -1.696963
     41          1           0       -1.345734   -0.970295   -2.791441
     42          1           0       -4.347498   -1.091033   -0.598125
     43          1           0       -3.215672   -2.118963    0.219506
 ---------------------------------------------------------------------
                    Distance matrix (angstroms):
                    1          2          3          4          5
     1  C    0.000000
     2  C    1.495463   0.000000
     3  C    2.617616   1.365634   0.000000
     4  C    3.810661   2.363087   1.470226   0.000000
     5  C    4.951687   3.595837   2.503863   1.354197   0.000000
     6  C    6.258577   4.855686   3.931246   2.551543   1.535999
     7  C    6.396060   4.949775   4.340056   2.877146   2.545042
     8  C    6.841500   5.590694   4.792551   3.557394   2.527560
     9  C    7.412928   5.992146   4.889800   3.633942   2.520544
    10  C    5.214961   4.104696   2.849511   2.405704   1.477950
    11  O    6.335585   5.289404   4.065693   3.548357   2.392681
    12  C    4.481837   3.644565   2.397824   2.779349   2.542011
    13  O    5.524840   4.888856   3.705602   4.121373   3.686452
    14  C    3.324223   2.578437   1.484793   2.520037   2.961757
    15  C    3.658042   3.373997   2.686938   3.893218   4.427750
    16  C    3.172376   3.159899   3.024318   4.329543   5.215878
    17  C    5.095196   4.576951   3.655498   4.491173   4.769681
    18  C    4.212304   4.375189   3.875180   5.143629   5.550103
    19  C    3.682461   4.218204   4.040318   5.375410   5.859112
    20  N    3.661429   4.462573   4.532237   5.835093   6.351574
    21  H    1.097704   2.111152   3.304358   4.259658   5.349170
    22  H    1.098600   2.157654   3.317023   4.492550   5.729862
    23  H    1.087935   2.180602   2.863543   4.218591   5.184427
    24  H    2.165446   1.090100   2.068971   2.424536   3.722546
    25  H    3.980389   2.514634   2.165745   1.085011   2.113842
    26  H    7.461982   6.028497   5.429620   3.962970   3.484872
    27  H    6.298038   4.816874   4.217667   2.847319   2.810181
    28  H    5.898692   4.538760   4.205213   2.842491   2.852430
    29  H    7.826141   6.545584   5.790849   4.472388   3.479132
    30  H    7.099016   5.940370   5.019581   3.980044   2.787658
    31  H    6.325629   5.182025   4.614257   3.485408   2.783575
    32  H    7.350946   5.904752   4.788873   3.620831   2.775090
    33  H    8.332049   6.892985   5.871933   4.533911   3.473790
    34  H    7.666790   6.330991   5.116872   4.052275   2.783155
    35  H    5.371402   4.983900   3.955359   4.660815   4.439865
    36  H    4.135351   4.234159   4.083064   5.327857   6.149641
    37  H    2.455223   2.933553   3.213836   4.632893   5.628340
    38  H    3.221011   2.857687   2.759074   3.858587   4.864582
    39  H    5.670619   5.359473   4.597310   5.527586   5.862645
    40  H    5.761330   5.149076   4.044574   4.672317   4.637268
    41  H    5.221018   4.481643   3.547726   4.158176   4.500390
    42  H    4.727530   5.045961   4.683210   5.996158   6.490282
    43  H    5.139516   5.159912   4.450649   5.543200   5.692952
                    6          7          8          9         10
     6  C    0.000000
     7  C    1.541674   0.000000
     8  C    1.549642   2.502855   0.000000
     9  C    1.549603   2.499902   2.532903   0.000000
    10  C    2.608072   3.927549   3.146325   3.092644   0.000000
    11  O    2.947769   4.457359   3.071763   3.079549   1.229983
    12  C    3.953339   5.071063   4.586932   4.403949   1.504022
    13  O    4.919400   6.193261   5.401449   5.080736   2.344943
    14  C    4.491297   5.268533   5.299785   5.129267   2.543921
    15  C    5.925417   6.629017   6.827055   6.381353   3.934546
    16  C    6.664916   7.054965   7.677597   7.233128   5.091148
    17  C    6.111133   6.870784   7.176537   6.186462   4.203106
    18  C    7.064876   7.914869   7.745197   7.538216   4.767043
    19  C    7.373351   8.190425   7.832233   8.087076   5.128286
    20  N    7.820338   8.596866   8.104500   8.686558   5.683795
    21  H    6.527412   6.589295   6.907720   7.821773   5.687228
    22  H    7.007330   6.995289   7.719685   8.102813   6.076346
    23  H    6.601387   6.966958   7.119372   7.668297   5.135380
    24  H    4.713359   4.484887   5.442162   5.954913   4.565835
    25  H    2.768821   2.478003   3.778828   3.957098   3.406494
    26  H    2.164678   1.094868   2.730849   2.692911   4.751811
    27  H    2.201223   1.096216   3.481739   2.773908   4.209007
    28  H    2.203290   1.095895   2.744456   3.479473   4.267741
    29  H    2.179231   2.709211   1.096449   2.763951   4.153706
    30  H    2.195248   3.469597   1.090980   2.787220   2.851888
    31  H    2.192532   2.758489   1.096149   3.495341   3.487328
    32  H    2.193718   2.754126   3.496168   1.096350   3.406582
    33  H    2.179019   2.707327   2.762942   1.096165   4.112273
    34  H    2.196646   3.468386   2.788316   1.091284   2.793073
    35  H    5.767409   6.972053   6.241630   6.004881   3.182966
    36  H    7.575346   7.974509   8.643120   8.005714   5.943300
    37  H    7.094249   7.426387   7.974075   7.845815   5.546316
    38  H    6.202911   6.397557   7.344421   6.768707   5.028934
    39  H    7.197438   7.919867   8.271806   7.223397   5.276944
    40  H    5.894583   6.853324   6.862327   5.802962   3.809037
    41  H    5.718918   6.307448   6.952310   5.718184   4.232989
    42  H    8.001390   8.776518   8.766232   8.416745   5.772212
    43  H    7.144929   8.164747   7.743329   7.464933   4.669189
                   11         12         13         14         15
    11  O    0.000000
    12  C    2.359996   0.000000
    13  O    2.576087   1.363281   0.000000
    14  C    3.622684   1.368636   2.428236   0.000000
    15  C    4.887578   2.550425   2.992059   1.562856   0.000000
    16  C    6.173525   3.874253   4.514227   2.609002   1.544790
    17  C    4.990514   2.984518   3.076988   2.514923   1.557086
    18  C    5.508362   3.268181   3.191277   2.648092   1.571643
    19  C    5.858429   3.749684   3.816062   3.116947   2.576572
    20  N    6.375025   4.457742   4.596412   3.872194   3.611372
    21  H    6.741019   5.134349   6.189202   4.137692   4.654876
    22  H    7.240124   5.283451   6.303596   4.008647   4.021696
    23  H    6.175568   4.172952   5.009972   3.065966   3.177839
    24  H    5.728837   4.415022   5.731164   3.491009   4.376225
    25  H    4.470182   3.860830   5.205367   3.466269   4.711145
    26  H    5.074671   6.007707   7.044187   6.310767   7.672915
    27  H    4.890661   5.145032   6.294583   5.162071   6.357457
    28  H    4.902352   5.299931   6.516037   5.338589   6.733146
    29  H    3.953750   5.624886   6.389846   6.344850   7.855309
    30  H    2.395505   4.294953   4.871081   5.235559   6.728487
    31  H    3.612846   4.761976   5.688519   5.300272   6.861229
    32  H    3.626481   4.458400   5.159012   5.006812   6.082959
    33  H    3.958529   5.475596   6.119361   6.202430   7.469778
    34  H    2.407402   4.095787   4.504990   5.060393   6.265689
    35  H    3.493473   1.926147   0.962503   2.538839   2.665345
    36  H    6.961111   4.663728   5.086764   3.520706   2.160355
    37  H    6.644225   4.344172   5.033263   3.027936   2.212997
    38  H    6.183073   4.055003   4.906627   2.781968   2.191422
    39  H    6.012545   4.006982   3.915881   3.481335   2.191120
    40  H    4.367761   2.680329   2.381077   2.748446   2.224732
    41  H    5.099625   3.298832   3.672624   2.772106   2.180467
    42  H    6.524777   4.273835   4.145742   3.555858   2.174985
    43  H    5.189748   3.203232   2.670784   3.045528   2.234171
                   16         17         18         19         20
    16  C    0.000000
    17  C    2.470582   0.000000
    18  C    2.504115   2.510813   0.000000
    19  C    3.184108   3.862311   1.464160   0.000000
    20  N    4.039366   4.983832   2.625495   1.161405   0.000000
    21  H    4.265306   6.115443   5.082087   4.326394   4.031948
    22  H    3.106385   5.359062   4.615519   4.211907   4.251960
    23  H    2.915863   4.715828   3.370729   2.647077   2.584727
    24  H    4.057919   5.448048   5.455858   5.292102   5.462435
    25  H    4.859521   5.321155   6.013589   6.179121   6.560098
    26  H    8.126274   7.830899   8.950134   9.237799   9.634235
    27  H    6.631099   6.473918   7.764512   8.176245   8.680934
    28  H    7.038392   7.205741   7.963485   8.059829   8.336420
    29  H    8.673750   8.121480   8.813415   8.927152   9.197183
    30  H    7.760014   7.033177   7.481327   7.569473   7.847481
    31  H    7.605165   7.436453   7.718662   7.615747   7.747011
    32  H    6.818717   5.710826   7.361275   8.063026   8.766300
    33  H    8.281781   7.258326   8.631102   9.151822   9.715126
    34  H    7.310871   5.993110   7.263115   7.841381   8.463933
    35  H    4.194812   2.903202   2.433459   3.075398   3.915190
    36  H    1.095218   2.562545   2.758280   3.639716   4.561425
    37  H    1.088359   3.448181   2.713691   2.873429   3.474612
    38  H    1.092001   2.803978   3.478462   4.136613   4.922501
    39  H    2.702182   1.096270   2.672914   4.109469   5.260944
    40  H    3.459619   1.091309   2.849833   4.168023   5.271719
    41  H    2.661838   1.093671   3.468421   4.716848   5.785690
    42  H    2.570810   2.781810   1.096965   2.078204   3.133297
    43  H    3.457869   2.663532   1.097185   2.079125   3.134889
                   21         22         23         24         25
    21  H    0.000000
    22  H    1.752425   0.000000
    23  H    1.759848   1.784447   0.000000
    24  H    2.394500   2.599332   3.084008   0.000000
    25  H    4.296086   4.524563   4.627096   2.089472   0.000000
    26  H    7.604879   8.056232   8.043066   5.515069   3.551861
    27  H    6.623137   6.754079   6.915201   4.342379   2.340760
    28  H    5.936782   6.504827   6.559329   3.917489   2.200756
    29  H    7.854071   8.670319   8.161387   6.289411   4.533438
    30  H    7.203076   8.041470   7.214111   5.976137   4.446094
    31  H    6.238150   7.231798   6.657053   4.952407   3.582223
    32  H    7.878437   7.921230   7.635130   5.880900   3.900576
    33  H    8.671564   9.014559   8.645880   6.739869   4.684113
    34  H    8.106973   8.421101   7.771682   6.459968   4.604120
    35  H    6.071316   6.098804   4.699865   5.934817   5.726572
    36  H    5.215328   3.903351   3.810016   5.090456   5.851772
    37  H    3.502440   2.283675   2.118495   3.846288   5.076933
    38  H    4.296060   3.052725   3.325610   3.543289   4.214104
    39  H    6.725435   5.785208   5.214159   6.254405   6.307982
    40  H    6.708840   6.174602   5.323945   6.010403   5.610349
    41  H    6.250145   5.399358   5.065282   5.190871   4.856721
    42  H    5.644727   4.902898   3.899172   6.107323   6.797925
    43  H    5.949487   5.641048   4.289965   6.224291   6.511439
                   26         27         28         29         30
    26  H    0.000000
    27  H    1.767563   0.000000
    28  H    1.763420   1.778501   0.000000
    29  H    2.477290   3.732790   3.030161   0.000000
    30  H    3.725247   4.349056   3.770200   1.775557   0.000000
    31  H    3.109725   3.772848   2.545995   1.772388   1.776182
    32  H    3.051633   2.575324   3.786994   3.767526   3.802442
    33  H    2.436312   3.082052   3.711694   2.540464   3.121476
    34  H    3.697232   3.792217   4.349210   3.123414   2.598237
    35  H    7.872153   7.030615   7.215862   7.260297   5.725607
    36  H    9.025728   7.476989   8.023126   9.626512   8.689955
    37  H    8.517457   7.084254   7.252953   8.993993   8.078036
    38  H    7.451140   5.859871   6.393657   8.276378   7.563945
    39  H    8.877339   7.468445   8.247844   9.214255   8.111056
    40  H    7.747667   6.561215   7.286561   7.784659   6.579140
    41  H    7.238467   5.773856   6.705995   7.825948   6.945343
    42  H    9.820815   8.531166   8.833765   9.824468   8.532155
    43  H    9.147417   8.078567   8.311551   8.793995   7.338124
                   31         32         33         34         35
    31  H    0.000000
    32  H    4.350161   0.000000
    33  H    3.766779   1.771631   0.000000
    34  H    3.802651   1.777189   1.773493   0.000000
    35  H    6.430618   6.033935   7.056312   5.461454   0.000000
    36  H    8.631252   7.504357   9.056859   8.041226   4.666660
    37  H    7.754175   7.528827   8.880257   7.950139   4.638031
    38  H    7.293770   6.267244   7.768723   6.993316   4.785316
    39  H    8.524910   6.694304   8.282686   7.010797   3.555289
    40  H    7.230093   5.409667   6.865501   5.435274   2.325662
    41  H    7.264550   5.094004   6.749768   5.676244   3.731829
    42  H    8.750146   8.142455   9.512619   8.165075   3.363345
    43  H    7.818007   7.341197   8.548482   7.037774   1.767848
                   36         37         38         39         40
    36  H    0.000000
    37  H    1.758704   0.000000
    38  H    1.766247   1.769319   0.000000
    39  H    2.329203   3.647749   3.187633   0.000000
    40  H    3.612295   4.356667   3.796295   1.774114   0.000000
    41  H    2.804609   3.725204   2.548449   1.769329   1.765690
    42  H    2.383928   2.769983   3.627552   2.499432   3.291762
    43  H    3.633003   3.791085   4.348945   2.819826   2.575799
                   41         42         43
    41  H    0.000000
    42  H    3.719651   0.000000
    43  H    3.725843   1.733837   0.000000
 Stoichiometry    C17H23NO2
 Framework group  C1[X(C17H23NO2)]
 Deg. of freedom   123
 Full point group                 C1      NOp   1
 Largest Abelian subgroup         C1      NOp   1
 Largest concise Abelian subgroup C1      NOp   1
                         Standard orientation:                         
 ---------------------------------------------------------------------
 Center     Atomic      Atomic             Coordinates (Angstroms)
 Number     Number       Type             X           Y           Z
 ---------------------------------------------------------------------
      1          6           0        2.108770    2.881480   -0.649582
      2          6           0        0.804867    2.440513   -0.064951
      3          6           0        0.285488    1.204995    0.197149
      4          6           0       -1.179969    1.215663    0.314984
      5          6           0       -1.989023    0.177656   -0.004112
      6          6           0       -3.522862    0.241417    0.046528
      7          6           0       -4.015212    1.571596    0.650660
      8          6           0       -4.105928    0.116598   -1.383802
      9          6           0       -4.060787   -0.912197    0.930316
     10          6           0       -1.319887   -1.044909   -0.495973
     11          8           0       -1.914913   -2.000371   -0.991851
     12          6           0        0.166101   -1.140913   -0.284538
     13          8           0        0.576447   -2.424279   -0.492199
     14          6           0        0.951669   -0.121874    0.181946
     15          6           0        2.301664   -0.421814    0.910005
     16          6           0        2.933048    0.805760    1.603398
     17          6           0        2.000604   -1.437936    2.050783
     18          6           0        3.419840   -1.066350    0.013168
     19          6           0        3.709323   -0.380582   -1.247660
     20          7           0        3.952026    0.152772   -2.250401
     21          1           0        1.893709    3.538126   -1.502529
     22          1           0        2.685838    3.490192    0.059914
     23          1           0        2.730903    2.068215   -1.017213
     24          1           0        0.096682    3.260453    0.055426
     25          1           0       -1.613504    2.176617    0.571622
     26          1           0       -5.108529    1.558497    0.707431
     27          1           0       -3.633316    1.727926    1.666242
     28          1           0       -3.732739    2.434668    0.037225
     29          1           0       -5.200255    0.171136   -1.342882
     30          1           0       -3.823075   -0.830515   -1.845547
     31          1           0       -3.751905    0.935590   -2.020562
     32          1           0       -3.677043   -0.830887    1.954090
     33          1           0       -5.154806   -0.862368    0.977411
     34          1           0       -3.778431   -1.886523    0.527992
     35          1           0        1.529004   -2.458489   -0.625903
     36          1           0        3.708096    0.457269    2.294308
     37          1           0        3.406349    1.495742    0.907383
     38          1           0        2.191594    1.356250    2.186212
     39          1           0        2.930133   -1.722321    2.557644
     40          1           0        1.509715   -2.346118    1.696963
     41          1           0        1.345734   -0.970295    2.791441
     42          1           0        4.347498   -1.091033    0.598125
     43          1           0        3.215672   -2.118963   -0.219506
 ---------------------------------------------------------------------
 Rotational constants (GHZ):           0.5793432           0.2232095           0.1991615
 Standard basis: 6-31+G(d,p) (6D, 7F)
 There are   495 symmetry adapted cartesian basis functions of A   symmetry.
 There are   495 symmetry adapted basis functions of A   symmetry.
   495 basis functions,   801 primitive gaussians,   495 cartesian basis functions
    74 alpha electrons       74 beta electrons
       nuclear repulsion energy      1608.4325902109 Hartrees.
 NAtoms=   43 NActive=   43 NUniq=   43 SFac= 1.00D+00 NAtFMM=   60 NAOKFM=F Big=F
 Integral buffers will be    131072 words long.
 Regular integral format.
 Two-electron integral symmetry is turned on.
 One-electron integrals computed using PRISM.
 NBasis=   495 RedAO= T EigKep=  1.00D-06  NBF=   495
 NBsUse=   493 1.00D-06 EigRej=  6.87D-07 NBFU=   493
 ExpMin= 4.38D-02 ExpMax= 5.48D+03 ExpMxC= 8.25D+02 IAcc=3 IRadAn=         5 AccDes= 0.00D+00
 Harris functional with IExCor=  402 and IRadAn=       5 diagonalized for initial guess.
 HarFok:  IExCor=  402 AccDes= 0.00D+00 IRadAn=         5 IDoV= 1 UseB2=F ITyADJ=14
 ICtDFT=  3500011 ScaDFX=  1.000000  1.000000  1.000000  1.000000
 FoFCou: FMM=F IPFlag=           0 FMFlag=      100000 FMFlg1=           0
         NFxFlg=           0 DoJE=T BraDBF=F KetDBF=T FulRan=T
         wScrn=  0.000000 ICntrl=       500 IOpCl=  0 I1Cent=   200000004 NGrid=           0
         NMat0=    1 NMatS0=      1 NMatT0=    0 NMatD0=    1 NMtDS0=    0 NMtDT0=    0
 Petite list used in FoFCou.
 Requested convergence on RMS density matrix=1.00D-08 within 128 cycles.
 Requested convergence on MAX density matrix=1.00D-06.
 Requested convergence on             energy=1.00D-06.
 No special actions if energy rises.
 SCF Done:  E(RB3LYP) =  -866.851016639     A.U. after   17 cycles
            NFock= 17  Conv=0.63D-08     -V/T= 2.0097
 DoSCS=F DFT=T ScalE2(SS,OS)=  1.000000  1.000000
 ExpMin= 4.38D-02 ExpMax= 5.48D+03 ExpMxC= 8.25D+02 IAcc=3 IRadAn=         5 AccDes= 0.00D+00
 HarFok:  IExCor=  205 AccDes= 0.00D+00 IRadAn=         5 IDoV=-2 UseB2=F ITyADJ=14
 ICtDFT= 12500011 ScaDFX=  1.000000  1.000000  1.000000  1.000000
 Range of M.O.s used for correlation:    21   493
 NBasis=   495 NAE=    74 NBE=    74 NFC=    20 NFV=     0
 NROrb=    473 NOA=    54 NOB=    54 NVA=   419 NVB=   419

 **** Warning!!: The largest alpha MO coefficient is  0.24155591D+03

 Orbital symmetries:
       Occupied  (A) (A) (A) (A) (A) (A) (A) (A) (A) (A) (A) (A)
                 (A) (A) (A) (A) (A) (A) (A) (A) (A) (A) (A) (A)
                 (A) (A) (A) (A) (A) (A) (A) (A) (A) (A) (A) (A)
                 (A) (A) (A) (A) (A) (A) (A) (A) (A) (A) (A) (A)
                 (A) (A) (A) (A) (A) (A) (A) (A) (A) (A) (A) (A)
                 (A) (A) (A) (A) (A) (A) (A) (A) (A) (A) (A) (A)
                 (A) (A)
       Virtual   (A) (A) (A) (A) (A) (A) (A) (A) (A) (A) (A) (A)
                 (A) (A) (A) (A) (A) (A) (A) (A) (A) (A) (A) (A)
                 (A) (A) (A) (A) (A) (A) (A) (A) (A) (A) (A) (A)
                 (A) (A) (A) (A) (A) (A) (A) (A) (A) (A) (A) (A)
                 (A) (A) (A) (A) (A) (A) (A) (A) (A) (A) (A) (A)
                 (A) (A) (A) (A) (A) (A) (A) (A) (A) (A) (A) (A)
                 (A) (A) (A) (A) (A) (A) (A) (A) (A) (A) (A) (A)
                 (A) (A) (A) (A) (A) (A) (A) (A) (A) (A) (A) (A)
                 (A) (A) (A) (A) (A) (A) (A) (A) (A) (A) (A) (A)
                 (A) (A) (A) (A) (A) (A) (A) (A) (A) (A) (A) (A)
                 (A) (A) (A) (A) (A) (A) (A) (A) (A) (A) (A) (A)
                 (A) (A) (A) (A) (A) (A) (A) (A) (A) (A) (A) (A)
                 (A) (A) (A) (A) (A) (A) (A) (A) (A) (A) (A) (A)
                 (A) (A) (A) (A) (A) (A) (A) (A) (A) (A) (A) (A)
                 (A) (A) (A) (A) (A) (A) (A) (A) (A) (A) (A) (A)
                 (A) (A) (A) (A) (A) (A) (A) (A) (A) (A) (A) (A)
                 (A) (A) (A) (A) (A) (A) (A) (A) (A) (A) (A) (A)
                 (A) (A) (A) (A) (A) (A) (A) (A) (A) (A) (A) (A)
                 (A) (A) (A) (A) (A) (A) (A) (A) (A) (A) (A) (A)
                 (A) (A) (A) (A) (A) (A) (A) (A) (A) (A) (A) (A)
                 (A) (A) (A) (A) (A) (A) (A) (A) (A) (A) (A) (A)
                 (A) (A) (A) (A) (A) (A) (A) (A) (A) (A) (A) (A)
                 (A) (A) (A) (A) (A) (A) (A) (A) (A) (A) (A) (A)
                 (A) (A) (A) (A) (A) (A) (A) (A) (A) (A) (A) (A)
                 (A) (A) (A) (A) (A) (A) (A) (A) (A) (A) (A) (A)
                 (A) (A) (A) (A) (A) (A) (A) (A) (A) (A) (A) (A)
                 (A) (A) (A) (A) (A) (A) (A) (A) (A) (A) (A) (A)
                 (A) (A) (A) (A) (A) (A) (A) (A) (A) (A) (A) (A)
                 (A) (A) (A) (A) (A) (A) (A) (A) (A) (A) (A) (A)
                 (A) (A) (A) (A) (A) (A) (A) (A) (A) (A) (A) (A)
                 (A) (A) (A) (A) (A) (A) (A) (A) (A) (A) (A) (A)
                 (A) (A) (A) (A) (A) (A) (A) (A) (A) (A) (A) (A)
                 (A) (A) (A) (A) (A) (A) (A) (A) (A) (A) (A) (A)
                 (A) (A) (A) (A) (A) (A) (A) (A) (A) (A) (A) (A)
                 (A) (A) (A) (A) (A) (A) (A) (A) (A) (A) (A)
    24 initial guesses have been made.
 Convergence on wavefunction:    0.001000000000000
 Iteration     1 Dimension    24 NMult     0 NNew     24
 CISAX will form    24 AO SS matrices at one time.
 New state      1 was old state      2
 New state      2 was old state      4
 New state      3 was old state      6
 New state      4 was old state      3
 New state      6 was old state      8
 New state      7 was old state      1
 New state      8 was old state     10
 New state      9 was old state      7
 New state     10 was old state     14
 New state     11 was old state     12
 New state     12 was old state     20
 Vector   6 SDiff=1.08D+01 TDiff=4.57D+00 assumed to be triplet.
 Vector  12 SDiff=8.23D+00 TDiff=3.11D+00 assumed to be triplet.
 Iteration     2 Dimension    36 NMult    24 NNew     12
 New state      6 was old state      7
 Iteration     3 Dimension    48 NMult    36 NNew     12
 Iteration     4 Dimension    60 NMult    48 NNew     12
 Iteration     5 Dimension    72 NMult    60 NNew     12
 Iteration     6 Dimension    76 NMult    72 NNew      4
 ***********************************************************************
 Excited states from <AA,BB:AA,BB> singles matrix:
 ***********************************************************************
 
 Ground to excited state transition densities written to RWF  633
 Ground to excited state transition electric dipole moments (Au):
       state          X           Y           Z        Dip. S.      Osc.
         1         0.0000     -0.0000     -0.0000      0.0000      0.0000
         2         0.0000     -0.0000      0.0000      0.0000      0.0000
         3        -0.0000      0.0000      0.0000      0.0000      0.0000
         4        -0.1960     -0.1827     -0.0334      0.0729      0.0054
         5        -0.4964     -0.2724     -0.0911      0.3289      0.0293
         6        -1.0127     -1.4150     -0.1829      3.0612      0.2937
 Ground to excited state transition velocity dipole moments (Au):
       state          X           Y           Z        Dip. S.      Osc.
         1         0.0000     -0.0000     -0.0000      0.0000      0.0000
         2         0.0000      0.0000      0.0000      0.0000      0.0000
         3         0.0000      0.0000     -0.0000      0.0000      0.0000
         4         0.0192      0.0177      0.0045      0.0007      0.0042
         5         0.0614      0.0347      0.0115      0.0051      0.0255
         6         0.1415      0.1933      0.0254      0.0580      0.2688
 Ground to excited state transition magnetic dipole moments (Au):
       state          X           Y           Z
         1         0.0000      0.0000     -0.0000
         2         0.0000      0.0000      0.0000
         3        -0.0000     -0.0000     -0.0000
         4        -0.2352     -0.4380     -0.1503
         5         0.0296     -0.0236      0.5105
         6        -0.0365      0.0998     -0.5377
 Ground to excited state transition velocity quadrupole moments (Au):
       state          XX          YY          ZZ          XY          XZ          YZ
         1         0.0000      0.0000      0.0000      0.0000     -0.0000      0.0000
         2         0.0000     -0.0000      0.0000     -0.0000     -0.0000     -0.0000
         3        -0.0000      0.0000     -0.0000      0.0000      0.0000     -0.0000
         4         0.0375      0.0470     -0.0110      0.0269      0.0165     -0.0441
         5         0.2030     -0.0411      0.0535      0.0660      0.0307     -0.1247
         6        -0.2620      0.4940     -0.0448      0.1759     -0.1259     -0.1921
 <0|del|b> * <b|rxdel|0> + <0|del|b> * <b|delr+rdel|0>
 Rotatory Strengths (R) in cgs (10**-40 erg-esu-cm/Gauss)
       state          XX          YY          ZZ    R(velocity)    E-M Angle
         1        -0.0000      0.0000      0.0000     -0.0000       90.00
         2         0.0000      0.0000      0.0000      0.0000       90.00
         3        -0.0000      0.0000     -0.0000      0.0000       90.00
         4       -27.3430    -19.5557    -35.4080    -27.4356      160.12
         5        12.5518     -1.9369     25.7281     12.1143       79.18
         6        84.6289   -123.9676     41.7163      0.7925       89.79
 1/2[<0|r|b>*<b|rxdel|0> + (<0|rxdel|b>*<b|r|0>)*]
 Rotatory Strengths (R) in cgs (10**-40 erg-esu-cm/Gauss)
       state          XX          YY          ZZ     R(length)
         1        -0.0000      0.0000     -0.0000     -0.0000
         2        -0.0000      0.0000     -0.0000      0.0000
         3        -0.0000      0.0000      0.0000      0.0000
         4       -32.5951    -56.5775     -3.5485    -30.9070
         5        10.3870     -4.5429     32.8709     12.9050
         6       -26.1377     99.9108    -69.5594      1.4046
  1/2[<0|del|b>*<b|r|0> + (<0|r|b>*<b|del|0>)*] (Au)
       state          X           Y           Z        Dip. S.   Osc.(frdel)
         1         0.0000      0.0000      0.0000     -0.0000     -0.0000
         2         0.0000     -0.0000      0.0000     -0.0000     -0.0000
         3        -0.0000      0.0000     -0.0000     -0.0000     -0.0000
         4        -0.0038     -0.0032     -0.0001      0.0072      0.0048
         5        -0.0305     -0.0095     -0.0010      0.0410      0.0273
         6        -0.1433     -0.2735     -0.0046      0.4215      0.2810

 Excitation energies and oscillator strengths:
 
 Excited State   1:      Triplet-A      1.8797 eV  659.58 nm  f=0.0000  <S**2>=2.000
      73 -> 75        -0.10048
      74 -> 75         0.69419
      74 <- 75         0.14201
 This state for optimization and/or second-order correction.
 Total Energy, E(TD-HF/TD-DFT) =  -866.781937458    
 Copying the excited state density for this state as the 1-particle RhoCI density.
 
 Excited State   2:      Triplet-A      2.5802 eV  480.53 nm  f=0.0000  <S**2>=2.000
      73 -> 75         0.67881
 
 Excited State   3:      Triplet-A      2.8069 eV  441.72 nm  f=0.0000  <S**2>=2.000
      72 -> 75         0.67404
      74 -> 77         0.14461
 
 Excited State   4:      Singlet-A      3.0297 eV  409.23 nm  f=0.0054  <S**2>=0.000
      72 -> 75        -0.27283
      73 -> 75         0.57748
      74 -> 75         0.28502
 
 Excited State   5:      Singlet-A      3.6372 eV  340.88 nm  f=0.0293  <S**2>=0.000
      72 -> 75         0.62856
      73 -> 75         0.17233
      74 -> 75         0.26218
 
 Excited State   6:      Singlet-A      3.9164 eV  316.58 nm  f=0.2937  <S**2>=0.000
      72 -> 75        -0.14915
      73 -> 75        -0.35402
      74 -> 75         0.57441
 SavETr:  write IOETrn=   770 NScale= 10 NData=  16 NLR=1 NState=    6 LETran=     118.

 **********************************************************************

            Population analysis using the SCF Density.

 **********************************************************************

 Orbital symmetries:
       Occupied  (A) (A) (A) (A) (A) (A) (A) (A) (A) (A) (A) (A)
                 (A) (A) (A) (A) (A) (A) (A) (A) (A) (A) (A) (A)
                 (A) (A) (A) (A) (A) (A) (A) (A) (A) (A) (A) (A)
                 (A) (A) (A) (A) (A) (A) (A) (A) (A) (A) (A) (A)
                 (A) (A) (A) (A) (A) (A) (A) (A) (A) (A) (A) (A)
                 (A) (A) (A) (A) (A) (A) (A) (A) (A) (A) (A) (A)
                 (A) (A)
       Virtual   (A) (A) (A) (A) (A) (A) (A) (A) (A) (A) (A) (A)
                 (A) (A) (A) (A) (A) (A) (A) (A) (A) (A) (A) (A)
                 (A) (A) (A) (A) (A) (A) (A) (A) (A) (A) (A) (A)
                 (A) (A) (A) (A) (A) (A) (A) (A) (A) (A) (A) (A)
                 (A) (A) (A) (A) (A) (A) (A) (A) (A) (A) (A) (A)
                 (A) (A) (A) (A) (A) (A) (A) (A) (A) (A) (A) (A)
                 (A) (A) (A) (A) (A) (A) (A) (A) (A) (A) (A) (A)
                 (A) (A) (A) (A) (A) (A) (A) (A) (A) (A) (A) (A)
                 (A) (A) (A) (A) (A) (A) (A) (A) (A) (A) (A) (A)
                 (A) (A) (A) (A) (A) (A) (A) (A) (A) (A) (A) (A)
                 (A) (A) (A) (A) (A) (A) (A) (A) (A) (A) (A) (A)
                 (A) (A) (A) (A) (A) (A) (A) (A) (A) (A) (A) (A)
                 (A) (A) (A) (A) (A) (A) (A) (A) (A) (A) (A) (A)
                 (A) (A) (A) (A) (A) (A) (A) (A) (A) (A) (A) (A)
                 (A) (A) (A) (A) (A) (A) (A) (A) (A) (A) (A) (A)
                 (A) (A) (A) (A) (A) (A) (A) (A) (A) (A) (A) (A)
                 (A) (A) (A) (A) (A) (A) (A) (A) (A) (A) (A) (A)
                 (A) (A) (A) (A) (A) (A) (A) (A) (A) (A) (A) (A)
                 (A) (A) (A) (A) (A) (A) (A) (A) (A) (A) (A) (A)
                 (A) (A) (A) (A) (A) (A) (A) (A) (A) (A) (A) (A)
                 (A) (A) (A) (A) (A) (A) (A) (A) (A) (A) (A) (A)
                 (A) (A) (A) (A) (A) (A) (A) (A) (A) (A) (A) (A)
                 (A) (A) (A) (A) (A) (A) (A) (A) (A) (A) (A) (A)
                 (A) (A) (A) (A) (A) (A) (A) (A) (A) (A) (A) (A)
                 (A) (A) (A) (A) (A) (A) (A) (A) (A) (A) (A) (A)
                 (A) (A) (A) (A) (A) (A) (A) (A) (A) (A) (A) (A)
                 (A) (A) (A) (A) (A) (A) (A) (A) (A) (A) (A) (A)
                 (A) (A) (A) (A) (A) (A) (A) (A) (A) (A) (A) (A)
                 (A) (A) (A) (A) (A) (A) (A) (A) (A) (A) (A) (A)
                 (A) (A) (A) (A) (A) (A) (A) (A) (A) (A) (A) (A)
                 (A) (A) (A) (A) (A) (A) (A) (A) (A) (A) (A) (A)
                 (A) (A) (A) (A) (A) (A) (A) (A) (A) (A) (A) (A)
                 (A) (A) (A) (A) (A) (A) (A) (A) (A) (A) (A) (A)
                 (A) (A) (A) (A) (A) (A) (A) (A) (A) (A) (A) (A)
                 (A) (A) (A) (A) (A) (A) (A) (A) (A) (A) (A)
 The electronic state is 1-A.
 Alpha  occ. eigenvalues --  -19.20259 -19.13629 -14.35987 -10.27516 -10.26958
 Alpha  occ. eigenvalues --  -10.26465 -10.25788 -10.25302 -10.22879 -10.22678
 Alpha  occ. eigenvalues --  -10.22637 -10.21461 -10.20908 -10.20455 -10.20373
 Alpha  occ. eigenvalues --  -10.20275 -10.20164 -10.17938 -10.16858 -10.16727
 Alpha  occ. eigenvalues --   -1.08663  -1.03017  -0.92936  -0.88110  -0.85434
 Alpha  occ. eigenvalues --   -0.82333  -0.79191  -0.76980  -0.74896  -0.72509
 Alpha  occ. eigenvalues --   -0.71338  -0.68714  -0.67885  -0.66395  -0.62074
 Alpha  occ. eigenvalues --   -0.60987  -0.58037  -0.56476  -0.54688  -0.51269
 Alpha  occ. eigenvalues --   -0.50770  -0.50063  -0.49078  -0.47585  -0.46739
 Alpha  occ. eigenvalues --   -0.45745  -0.44492  -0.43742  -0.43634  -0.43131
 Alpha  occ. eigenvalues --   -0.42786  -0.41404  -0.40978  -0.40734  -0.40234
 Alpha  occ. eigenvalues --   -0.39655  -0.39055  -0.38933  -0.38084  -0.38050
 Alpha  occ. eigenvalues --   -0.37622  -0.37209  -0.36534  -0.36164  -0.35377
 Alpha  occ. eigenvalues --   -0.34630  -0.33968  -0.33762  -0.33367  -0.32830
 Alpha  occ. eigenvalues --   -0.32209  -0.25573  -0.24779  -0.23095
 Alpha virt. eigenvalues --   -0.08985  -0.02583  -0.01161  -0.00807  -0.00109
 Alpha virt. eigenvalues --    0.00224   0.00497   0.00941   0.01207   0.02061
 Alpha virt. eigenvalues --    0.02273   0.02958   0.03451   0.03563   0.04215
 Alpha virt. eigenvalues --    0.04699   0.04907   0.05462   0.05644   0.06044
 Alpha virt. eigenvalues --    0.06208   0.06717   0.06930   0.07463   0.07890
 Alpha virt. eigenvalues --    0.08180   0.08798   0.09248   0.09281   0.10328
 Alpha virt. eigenvalues --    0.10581   0.10731   0.10930   0.11145   0.11628
 Alpha virt. eigenvalues --    0.11883   0.12257   0.12411   0.12755   0.12873
 Alpha virt. eigenvalues --    0.12887   0.13629   0.14179   0.14497   0.14969
 Alpha virt. eigenvalues --    0.15246   0.15942   0.16786   0.16960   0.17173
 Alpha virt. eigenvalues --    0.17285   0.17501   0.18090   0.18203   0.18731
 Alpha virt. eigenvalues --    0.18858   0.19030   0.19465   0.19999   0.20357
 Alpha virt. eigenvalues --    0.20485   0.20643   0.20953   0.21178   0.21488
 Alpha virt. eigenvalues --    0.21728   0.22108   0.22222   0.22539   0.23215
 Alpha virt. eigenvalues --    0.23701   0.23896   0.24271   0.24922   0.25255
 Alpha virt. eigenvalues --    0.25468   0.25867   0.26127   0.26407   0.26519
 Alpha virt. eigenvalues --    0.27255   0.27694   0.27998   0.28008   0.28299
 Alpha virt. eigenvalues --    0.28653   0.28865   0.29311   0.29434   0.29773
 Alpha virt. eigenvalues --    0.30211   0.30539   0.30902   0.31051   0.31342
 Alpha virt. eigenvalues --    0.31759   0.32099   0.32691   0.33231   0.33710
 Alpha virt. eigenvalues --    0.33957   0.34681   0.35381   0.36179   0.36733
 Alpha virt. eigenvalues --    0.36978   0.37542   0.37799   0.38426   0.39319
 Alpha virt. eigenvalues --    0.40084   0.40961   0.41705   0.42188   0.42696
 Alpha virt. eigenvalues --    0.43683   0.44558   0.45278   0.47102   0.47173
 Alpha virt. eigenvalues --    0.49030   0.49700   0.51354   0.53697   0.54925
 Alpha virt. eigenvalues --    0.59885   0.61114   0.64486   0.65757   0.67326
 Alpha virt. eigenvalues --    0.67539   0.68988   0.69300   0.69994   0.70394
 Alpha virt. eigenvalues --    0.71188   0.71478   0.72013   0.72457   0.72923
 Alpha virt. eigenvalues --    0.73371   0.74159   0.74492   0.75331   0.75946
 Alpha virt. eigenvalues --    0.76513   0.78261   0.78701   0.79098   0.80238
 Alpha virt. eigenvalues --    0.80390   0.81002   0.81436   0.82310   0.82723
 Alpha virt. eigenvalues --    0.83318   0.84447   0.85503   0.86435   0.86985
 Alpha virt. eigenvalues --    0.88107   0.88669   0.89179   0.89970   0.90854
 Alpha virt. eigenvalues --    0.91503   0.92356   0.94698   0.95180   0.95975
 Alpha virt. eigenvalues --    0.97308   0.97619   0.98312   0.98804   0.99223
 Alpha virt. eigenvalues --    1.00026   1.00487   1.01152   1.02397   1.03307
 Alpha virt. eigenvalues --    1.03524   1.04041   1.05099   1.05439   1.05903
 Alpha virt. eigenvalues --    1.06417   1.07276   1.08061   1.08985   1.10046
 Alpha virt. eigenvalues --    1.10445   1.11304   1.12941   1.14118   1.14927
 Alpha virt. eigenvalues --    1.16005   1.16619   1.17289   1.18399   1.19138
 Alpha virt. eigenvalues --    1.20015   1.20622   1.21052   1.22328   1.22922
 Alpha virt. eigenvalues --    1.24694   1.25299   1.26369   1.27156   1.27277
 Alpha virt. eigenvalues --    1.29426   1.31124   1.32186   1.33655   1.34288
 Alpha virt. eigenvalues --    1.35560   1.36338   1.37782   1.38655   1.40412
 Alpha virt. eigenvalues --    1.40621   1.41479   1.42351   1.44880   1.45447
 Alpha virt. eigenvalues --    1.47719   1.48414   1.49986   1.51033   1.51087
 Alpha virt. eigenvalues --    1.52858   1.54038   1.55166   1.55876   1.56625
 Alpha virt. eigenvalues --    1.58502   1.59379   1.61083   1.62857   1.63366
 Alpha virt. eigenvalues --    1.65912   1.66491   1.68056   1.70772   1.71833
 Alpha virt. eigenvalues --    1.73235   1.74427   1.76253   1.78345   1.78534
 Alpha virt. eigenvalues --    1.79271   1.80893   1.81483   1.82084   1.83192
 Alpha virt. eigenvalues --    1.84056   1.86993   1.87714   1.87803   1.88939
 Alpha virt. eigenvalues --    1.89648   1.91092   1.91639   1.92836   1.93630
 Alpha virt. eigenvalues --    1.94142   1.95604   1.96155   1.97402   1.98229
 Alpha virt. eigenvalues --    1.99341   2.00019   2.00094   2.02265   2.02883
 Alpha virt. eigenvalues --    2.03709   2.04151   2.04327   2.05093   2.06116
 Alpha virt. eigenvalues --    2.06600   2.06977   2.07499   2.09299   2.11462
 Alpha virt. eigenvalues --    2.11583   2.11741   2.12286   2.12729   2.13389
 Alpha virt. eigenvalues --    2.13626   2.14564   2.15408   2.16379   2.16921
 Alpha virt. eigenvalues --    2.17388   2.17868   2.18362   2.19161   2.19631
 Alpha virt. eigenvalues --    2.20164   2.20962   2.21759   2.23358   2.24281
 Alpha virt. eigenvalues --    2.26307   2.27287   2.28625   2.30766   2.31872
 Alpha virt. eigenvalues --    2.32810   2.36032   2.36837   2.37927   2.39358
 Alpha virt. eigenvalues --    2.40006   2.41450   2.42753   2.43608   2.46733
 Alpha virt. eigenvalues --    2.48677   2.49789   2.50442   2.51314   2.51792
 Alpha virt. eigenvalues --    2.53023   2.55347   2.55799   2.56824   2.59037
 Alpha virt. eigenvalues --    2.60267   2.62130   2.64220   2.65114   2.66342
 Alpha virt. eigenvalues --    2.67267   2.68723   2.69638   2.70150   2.70582
 Alpha virt. eigenvalues --    2.72246   2.73898   2.74855   2.75057   2.75805
 Alpha virt. eigenvalues --    2.76394   2.76507   2.77473   2.78288   2.79901
 Alpha virt. eigenvalues --    2.81733   2.82524   2.84697   2.85653   2.86643
 Alpha virt. eigenvalues --    2.88080   2.88190   2.88947   2.89477   2.89940
 Alpha virt. eigenvalues --    2.90620   2.93296   2.94890   2.95306   2.96270
 Alpha virt. eigenvalues --    2.99000   2.99110   3.00556   3.02256   3.05017
 Alpha virt. eigenvalues --    3.07275   3.12522   3.17982   3.22912   3.26350
 Alpha virt. eigenvalues --    3.27299   3.28204   3.28535   3.30464   3.30657
 Alpha virt. eigenvalues --    3.30956   3.33559   3.39168   3.43226   3.45101
 Alpha virt. eigenvalues --    3.45522   3.46127   3.46240   3.46614   3.47539
 Alpha virt. eigenvalues --    3.48054   3.49597   3.51009   3.52536   3.53480
 Alpha virt. eigenvalues --    3.54460   3.55863   3.57306   3.62554   4.24300
 Alpha virt. eigenvalues --    4.28691   4.30742   4.33061   4.39483   4.43333
 Alpha virt. eigenvalues --    4.44071   4.50216   4.51865   4.53731   4.57826
 Alpha virt. eigenvalues --    4.59534   4.59949   4.60975   4.65050   4.73628
 Alpha virt. eigenvalues --    4.77384   4.83715   4.87124   5.13624
          Condensed to atoms (all electrons):
               1          2          3          4          5          6
     1  C    6.964760  -1.773909   1.813425  -1.233131  -0.424600   0.051246
     2  C   -1.773909  13.237042  -2.853287   3.680041   0.101899  -0.272187
     3  C    1.813425  -2.853287  46.647689   0.494368  -5.690058   1.481716
     4  C   -1.233131   3.680041   0.494368  14.507360   0.217000   0.140873
     5  C   -0.424600   0.101899  -5.690058   0.217000  19.756451  -7.377383
     6  C    0.051246  -0.272187   1.481716   0.140873  -7.377383  13.757505
     7  C   -0.010452  -0.009706  -0.740066  -0.261440   2.003490  -2.288969
     8  C   -0.003357  -0.030636   0.402508   0.220779  -0.356133   0.204642
     9  C    0.001477   0.067010   0.206304   0.047801   0.045567   0.018618
    10  C    0.171362  -0.449299  -3.999078  -2.785822  -1.667222   1.370849
    11  O   -0.001254  -0.008103  -0.131441  -0.052165  -0.275684   0.142996
    12  C   -0.210692  -0.642329 -13.113303  -0.440691   0.440709  -1.574778
    13  O   -0.002318   0.014836   0.158347   0.009840  -0.065867   0.020747
    14  C    0.319961  -4.522822 -20.283443  -8.473786  -1.852199   1.046751
    15  C   -0.285429  -0.609090   2.941793  -0.054649   0.542064  -0.304293
    16  C   -0.187560   0.319900  -3.464387  -0.242274  -0.168991   0.013572
    17  C    0.048880  -0.155063   1.113052  -0.008482  -0.033161   0.033519
    18  C    0.068808  -0.267427   1.991052   0.607031   0.062165  -0.009758
    19  C   -0.074666   0.292364  -0.732762  -0.069694  -0.002481  -0.003318
    20  N   -0.022151  -0.012262   0.133233   0.016614   0.001614  -0.000341
    21  H    0.511352  -0.253291   0.179901  -0.055509  -0.008075  -0.000100
    22  H    0.465052  -0.079085  -0.068738  -0.014329  -0.002283   0.000023
    23  H    0.510581  -0.208758   0.002905  -0.035038  -0.002394   0.000008
    24  H    0.033653   0.349150   0.060993  -0.174459  -0.060361   0.004698
    25  H    0.011374   0.077950  -0.087322   0.318888  -0.056847  -0.041855
    26  H   -0.000064  -0.000340  -0.018350  -0.074573   0.173392  -0.227646
    27  H   -0.000128  -0.004069   0.030302   0.051285  -0.067399  -0.080991
    28  H    0.000450   0.007641   0.020181   0.047109  -0.028818  -0.127744
    29  H   -0.000006  -0.000890  -0.000078  -0.004120  -0.072756  -0.015679
    30  H    0.000027   0.001004  -0.000057   0.003398   0.040641  -0.126193
    31  H   -0.000500  -0.004402  -0.007457  -0.017449  -0.045158  -0.022604
    32  H   -0.000008   0.001892  -0.011772  -0.019417   0.003227  -0.061619
    33  H    0.000004   0.000221  -0.001403   0.000127  -0.078307  -0.011371
    34  H   -0.000007  -0.000580   0.004861   0.007109   0.011236  -0.110126
    35  H    0.001878   0.001955  -0.017478  -0.017468   0.016848   0.003400
    36  H    0.010232  -0.004388  -0.022877  -0.014448  -0.003169   0.000033
    37  H   -0.021178   0.030277   0.143997   0.040377   0.002684  -0.000231
    38  H   -0.003643   0.031944   0.032549   0.066136   0.003008  -0.000179
    39  H   -0.000144   0.002724  -0.029533   0.000871   0.001120  -0.000051
    40  H    0.000041  -0.003800  -0.066393  -0.011890  -0.010539   0.001102
    41  H    0.000240   0.001785   0.045527   0.008756   0.004328   0.000474
    42  H   -0.000355  -0.002609  -0.026852  -0.000872  -0.000185   0.000053
    43  H   -0.001088  -0.003980  -0.068513  -0.006662  -0.000080  -0.000079
               7          8          9         10         11         12
     1  C   -0.010452  -0.003357   0.001477   0.171362  -0.001254  -0.210692
     2  C   -0.009706  -0.030636   0.067010  -0.449299  -0.008103  -0.642329
     3  C   -0.740066   0.402508   0.206304  -3.999078  -0.131441 -13.113303
     4  C   -0.261440   0.220779   0.047801  -2.785822  -0.052165  -0.440691
     5  C    2.003490  -0.356133   0.045567  -1.667222  -0.275684   0.440709
     6  C   -2.288969   0.204642   0.018618   1.370849   0.142996  -1.574778
     7  C    6.749164  -0.361023  -0.308665  -0.076276   0.028401   0.355014
     8  C   -0.361023   6.134768  -0.345783  -0.285676  -0.086788  -0.162386
     9  C   -0.308665  -0.345783   6.019030  -0.027455  -0.070925  -0.214306
    10  C   -0.076276  -0.285676  -0.027455  15.638319   0.685224   0.383841
    11  O    0.028401  -0.086788  -0.070925   0.685224   8.360509  -0.154277
    12  C    0.355014  -0.162386  -0.214306   0.383841  -0.154277  19.938670
    13  O   -0.003853   0.001036  -0.001878  -0.539558   0.008264   0.117778
    14  C   -0.014463  -0.074260  -0.172898  -1.491091  -0.024445   0.115885
    15  C    0.026969   0.001153   0.020079  -1.133262   0.047263   1.755469
    16  C    0.000862  -0.005403   0.000426  -0.037217  -0.001455  -0.083304
    17  C   -0.008589   0.007650  -0.005937   0.196841  -0.003105  -0.275813
    18  C    0.003181   0.002950  -0.004809  -0.322776  -0.010177  -0.660203
    19  C    0.001035  -0.002616   0.000467  -0.039488   0.005291   0.103658
    20  N   -0.000058   0.000166   0.000023  -0.016240  -0.000193  -0.086163
    21  H   -0.000118   0.000015   0.000008  -0.001481  -0.000001  -0.008720
    22  H    0.000013  -0.000016  -0.000015   0.000139   0.000000  -0.003205
    23  H    0.000026   0.000036  -0.000001   0.007243  -0.000002   0.020844
    24  H   -0.004096   0.000357   0.000223  -0.002748   0.000003  -0.019252
    25  H    0.001234  -0.005937   0.008776   0.016355  -0.000993  -0.009332
    26  H    0.510392  -0.007780   0.002518  -0.009055   0.000094   0.002802
    27  H    0.463448   0.004901  -0.020694  -0.019358   0.000047  -0.005775
    28  H    0.465083  -0.019848   0.002062  -0.010790   0.000043  -0.002580
    29  H   -0.014047   0.435440  -0.008387   0.021109   0.000649   0.002042
    30  H    0.023363   0.480954  -0.048647   0.001147  -0.009696  -0.005389
    31  H   -0.043030   0.439766   0.007213   0.025218  -0.000155   0.014966
    32  H   -0.022378   0.004380   0.427848   0.016714  -0.000138   0.008916
    33  H   -0.007925  -0.018987   0.427839   0.026829   0.000431   0.004906
    34  H    0.014838  -0.037266   0.483438   0.015362  -0.009903  -0.017251
    35  H   -0.000139  -0.000208   0.000806   0.207538  -0.001071   0.138435
    36  H   -0.000016  -0.000001   0.000009  -0.000393  -0.000001  -0.018453
    37  H    0.000027   0.000005   0.000002  -0.004359   0.000003  -0.019604
    38  H    0.000071  -0.000019   0.000031  -0.010969   0.000000  -0.055112
    39  H    0.000028  -0.000009  -0.000004   0.014938  -0.000023   0.081121
    40  H   -0.000106   0.000087  -0.000507  -0.017040   0.000107  -0.027863
    41  H    0.000050  -0.000049   0.000261  -0.007173   0.000025  -0.007922
    42  H   -0.000001   0.000001  -0.000003   0.002451  -0.000005   0.002551
    43  H    0.000005  -0.000011  -0.000007   0.014984   0.000033   0.142098
              13         14         15         16         17         18
     1  C   -0.002318   0.319961  -0.285429  -0.187560   0.048880   0.068808
     2  C    0.014836  -4.522822  -0.609090   0.319900  -0.155063  -0.267427
     3  C    0.158347 -20.283443   2.941793  -3.464387   1.113052   1.991052
     4  C    0.009840  -8.473786  -0.054649  -0.242274  -0.008482   0.607031
     5  C   -0.065867  -1.852199   0.542064  -0.168991  -0.033161   0.062165
     6  C    0.020747   1.046751  -0.304293   0.013572   0.033519  -0.009758
     7  C   -0.003853  -0.014463   0.026969   0.000862  -0.008589   0.003181
     8  C    0.001036  -0.074260   0.001153  -0.005403   0.007650   0.002950
     9  C   -0.001878  -0.172898   0.020079   0.000426  -0.005937  -0.004809
    10  C   -0.539558  -1.491091  -1.133262  -0.037217   0.196841  -0.322776
    11  O    0.008264  -0.024445   0.047263  -0.001455  -0.003105  -0.010177
    12  C    0.117778   0.115885   1.755469  -0.083304  -0.275813  -0.660203
    13  O    8.237490   0.186850   0.194370   0.045443  -0.124966  -0.021374
    14  C    0.186850  51.884576 -14.287335   3.897291  -0.739288   0.890810
    15  C    0.194370 -14.287335  23.787026  -1.664440  -0.955612  -4.386267
    16  C    0.045443   3.897291  -1.664440   9.759573  -1.381627  -2.187068
    17  C   -0.124966  -0.739288  -0.955612  -1.381627   6.843911   0.959146
    18  C   -0.021374   0.890810  -4.386267  -2.187068   0.959146  10.337983
    19  C    0.037388   0.076329   0.922783   0.406156  -0.417629  -1.728764
    20  N   -0.001603   0.004898  -0.087493  -0.007783   0.013812   0.017384
    21  H   -0.000009  -0.034391   0.024804  -0.000491   0.001014   0.006566
    22  H    0.000009   0.081393  -0.074612   0.033417  -0.002501   0.000624
    23  H   -0.000014   0.068683   0.036601  -0.032099   0.000261  -0.050250
    24  H    0.000054   0.105422  -0.015780   0.007350  -0.001898  -0.002213
    25  H    0.000110   0.060387  -0.008369   0.002559  -0.000557  -0.000983
    26  H   -0.000001  -0.000857   0.000033   0.000012  -0.000026   0.000000
    27  H    0.000005   0.000509  -0.000286  -0.000001   0.000042  -0.000008
    28  H    0.000001  -0.003985  -0.000020  -0.000037   0.000048   0.000005
    29  H   -0.000003  -0.000683   0.000056  -0.000002   0.000000   0.000002
    30  H   -0.000116  -0.000801  -0.000202   0.000013   0.000030  -0.000027
    31  H    0.000006   0.001909   0.000238  -0.000028   0.000017   0.000030
    32  H   -0.000022   0.002461  -0.001297   0.000067   0.000147  -0.000006
    33  H   -0.000005   0.000937  -0.000073   0.000018  -0.000047  -0.000003
    34  H    0.000084  -0.003716   0.000952  -0.000026  -0.000219  -0.000016
    35  H    0.148799  -0.317734   0.120905   0.013388  -0.020440  -0.106139
    36  H    0.000084   0.082059  -0.084094   0.463032  -0.019956  -0.068535
    37  H   -0.000051  -0.230564  -0.003561   0.380176   0.036605   0.045813
    38  H   -0.000081   0.032866  -0.276487   0.572109  -0.059771   0.025679
    39  H   -0.002797  -0.048538  -0.078292  -0.032798   0.417736   0.020411
    40  H    0.010851   0.018283   0.047253   0.061689   0.435754  -0.095312
    41  H   -0.001083  -0.040946  -0.079813  -0.071214   0.472160   0.042414
    42  H    0.000411   0.120627  -0.210803   0.097725  -0.061164   0.493953
    43  H   -0.014834  -0.233383   0.246631  -0.005992   0.015725   0.194380
              19         20         21         22         23         24
     1  C   -0.074666  -0.022151   0.511352   0.465052   0.510581   0.033653
     2  C    0.292364  -0.012262  -0.253291  -0.079085  -0.208758   0.349150
     3  C   -0.732762   0.133233   0.179901  -0.068738   0.002905   0.060993
     4  C   -0.069694   0.016614  -0.055509  -0.014329  -0.035038  -0.174459
     5  C   -0.002481   0.001614  -0.008075  -0.002283  -0.002394  -0.060361
     6  C   -0.003318  -0.000341  -0.000100   0.000023   0.000008   0.004698
     7  C    0.001035  -0.000058  -0.000118   0.000013   0.000026  -0.004096
     8  C   -0.002616   0.000166   0.000015  -0.000016   0.000036   0.000357
     9  C    0.000467   0.000023   0.000008  -0.000015  -0.000001   0.000223
    10  C   -0.039488  -0.016240  -0.001481   0.000139   0.007243  -0.002748
    11  O    0.005291  -0.000193  -0.000001   0.000000  -0.000002   0.000003
    12  C    0.103658  -0.086163  -0.008720  -0.003205   0.020844  -0.019252
    13  O    0.037388  -0.001603  -0.000009   0.000009  -0.000014   0.000054
    14  C    0.076329   0.004898  -0.034391   0.081393   0.068683   0.105422
    15  C    0.922783  -0.087493   0.024804  -0.074612   0.036601  -0.015780
    16  C    0.406156  -0.007783  -0.000491   0.033417  -0.032099   0.007350
    17  C   -0.417629   0.013812   0.001014  -0.002501   0.000261  -0.001898
    18  C   -1.728764   0.017384   0.006566   0.000624  -0.050250  -0.002213
    19  C    6.850011   0.425267  -0.013239   0.005814   0.045884   0.002602
    20  N    0.425267   7.068744   0.003942  -0.000650  -0.010181  -0.000289
    21  H   -0.013239   0.003942   0.540224  -0.028137  -0.023852  -0.005554
    22  H    0.005814  -0.000650  -0.028137   0.548255  -0.025711  -0.000075
    23  H    0.045884  -0.010181  -0.023852  -0.025711   0.513541   0.004211
    24  H    0.002602  -0.000289  -0.005554  -0.000075   0.004211   0.580616
    25  H    0.000208  -0.000005  -0.000019  -0.000000  -0.000006   0.004913
    26  H    0.000000  -0.000000  -0.000000   0.000000  -0.000000   0.000000
    27  H    0.000002  -0.000000  -0.000000   0.000000  -0.000000  -0.000006
    28  H    0.000001   0.000000   0.000000  -0.000000   0.000000  -0.000016
    29  H   -0.000000   0.000000   0.000000  -0.000000   0.000000  -0.000000
    30  H   -0.000001  -0.000000  -0.000000  -0.000000   0.000000   0.000000
    31  H   -0.000004   0.000000   0.000000  -0.000000   0.000000  -0.000000
    32  H   -0.000013   0.000000  -0.000000   0.000000  -0.000000  -0.000000
    33  H    0.000001  -0.000000  -0.000000   0.000000  -0.000000  -0.000000
    34  H   -0.000004   0.000000   0.000000  -0.000000   0.000000   0.000000
    35  H    0.013055  -0.001347  -0.000000   0.000000  -0.000000  -0.000000
    36  H    0.023931  -0.000832  -0.000005   0.000027   0.000180  -0.000000
    37  H   -0.047582   0.005447   0.000293   0.000244  -0.001018   0.000152
    38  H   -0.004485   0.000182   0.000012   0.000052   0.000171   0.000172
    39  H   -0.006813   0.000132  -0.000000   0.000000  -0.000001  -0.000000
    40  H    0.015014  -0.000333  -0.000000   0.000000   0.000001   0.000000
    41  H   -0.012941   0.000061   0.000000  -0.000001  -0.000002   0.000001
    42  H   -0.103212   0.001992  -0.000000   0.000004   0.000029  -0.000000
    43  H    0.007270  -0.006291  -0.000000   0.000000   0.000019  -0.000000
              25         26         27         28         29         30
     1  C    0.011374  -0.000064  -0.000128   0.000450  -0.000006   0.000027
     2  C    0.077950  -0.000340  -0.004069   0.007641  -0.000890   0.001004
     3  C   -0.087322  -0.018350   0.030302   0.020181  -0.000078  -0.000057
     4  C    0.318888  -0.074573   0.051285   0.047109  -0.004120   0.003398
     5  C   -0.056847   0.173392  -0.067399  -0.028818  -0.072756   0.040641
     6  C   -0.041855  -0.227646  -0.080991  -0.127744  -0.015679  -0.126193
     7  C    0.001234   0.510392   0.463448   0.465083  -0.014047   0.023363
     8  C   -0.005937  -0.007780   0.004901  -0.019848   0.435440   0.480954
     9  C    0.008776   0.002518  -0.020694   0.002062  -0.008387  -0.048647
    10  C    0.016355  -0.009055  -0.019358  -0.010790   0.021109   0.001147
    11  O   -0.000993   0.000094   0.000047   0.000043   0.000649  -0.009696
    12  C   -0.009332   0.002802  -0.005775  -0.002580   0.002042  -0.005389
    13  O    0.000110  -0.000001   0.000005   0.000001  -0.000003  -0.000116
    14  C    0.060387  -0.000857   0.000509  -0.003985  -0.000683  -0.000801
    15  C   -0.008369   0.000033  -0.000286  -0.000020   0.000056  -0.000202
    16  C    0.002559   0.000012  -0.000001  -0.000037  -0.000002   0.000013
    17  C   -0.000557  -0.000026   0.000042   0.000048   0.000000   0.000030
    18  C   -0.000983   0.000000  -0.000008   0.000005   0.000002  -0.000027
    19  C    0.000208   0.000000   0.000002   0.000001  -0.000000  -0.000001
    20  N   -0.000005  -0.000000  -0.000000   0.000000   0.000000  -0.000000
    21  H   -0.000019  -0.000000  -0.000000   0.000000   0.000000  -0.000000
    22  H   -0.000000   0.000000   0.000000  -0.000000  -0.000000  -0.000000
    23  H   -0.000006  -0.000000  -0.000000   0.000000   0.000000   0.000000
    24  H    0.004913   0.000000  -0.000006  -0.000016  -0.000000   0.000000
    25  H    0.587121   0.000077  -0.000918  -0.000421  -0.000013  -0.000006
    26  H    0.000077   0.549220  -0.027539  -0.028260   0.002753   0.000094
    27  H   -0.000918  -0.027539   0.557513  -0.032584   0.000124  -0.000153
    28  H   -0.000421  -0.028260  -0.032584   0.565998  -0.000194   0.000077
    29  H   -0.000013   0.002753   0.000124  -0.000194   0.567191  -0.025526
    30  H   -0.000006   0.000094  -0.000153   0.000077  -0.025526   0.503642
    31  H   -0.000105  -0.000033   0.000036   0.002679  -0.029902  -0.026839
    32  H   -0.000016  -0.000157   0.002475   0.000022   0.000096   0.000022
    33  H   -0.000008   0.002964  -0.000167   0.000120   0.003189   0.000057
    34  H   -0.000008   0.000131   0.000043  -0.000155   0.000024   0.002541
    35  H    0.000000   0.000000  -0.000000  -0.000000   0.000000  -0.000000
    36  H   -0.000000  -0.000000  -0.000000   0.000000   0.000000  -0.000000
    37  H    0.000002  -0.000000   0.000000   0.000000  -0.000000   0.000000
    38  H   -0.000001   0.000000   0.000000   0.000000  -0.000000  -0.000000
    39  H   -0.000000  -0.000000   0.000000   0.000000   0.000000  -0.000000
    40  H    0.000000   0.000000  -0.000000  -0.000000  -0.000000   0.000000
    41  H    0.000001   0.000000  -0.000000  -0.000000  -0.000000   0.000000
    42  H   -0.000000  -0.000000   0.000000   0.000000  -0.000000   0.000000
    43  H    0.000000  -0.000000  -0.000000  -0.000000   0.000000  -0.000000
              31         32         33         34         35         36
     1  C   -0.000500  -0.000008   0.000004  -0.000007   0.001878   0.010232
     2  C   -0.004402   0.001892   0.000221  -0.000580   0.001955  -0.004388
     3  C   -0.007457  -0.011772  -0.001403   0.004861  -0.017478  -0.022877
     4  C   -0.017449  -0.019417   0.000127   0.007109  -0.017468  -0.014448
     5  C   -0.045158   0.003227  -0.078307   0.011236   0.016848  -0.003169
     6  C   -0.022604  -0.061619  -0.011371  -0.110126   0.003400   0.000033
     7  C   -0.043030  -0.022378  -0.007925   0.014838  -0.000139  -0.000016
     8  C    0.439766   0.004380  -0.018987  -0.037266  -0.000208  -0.000001
     9  C    0.007213   0.427848   0.427839   0.483438   0.000806   0.000009
    10  C    0.025218   0.016714   0.026829   0.015362   0.207538  -0.000393
    11  O   -0.000155  -0.000138   0.000431  -0.009903  -0.001071  -0.000001
    12  C    0.014966   0.008916   0.004906  -0.017251   0.138435  -0.018453
    13  O    0.000006  -0.000022  -0.000005   0.000084   0.148799   0.000084
    14  C    0.001909   0.002461   0.000937  -0.003716  -0.317734   0.082059
    15  C    0.000238  -0.001297  -0.000073   0.000952   0.120905  -0.084094
    16  C   -0.000028   0.000067   0.000018  -0.000026   0.013388   0.463032
    17  C    0.000017   0.000147  -0.000047  -0.000219  -0.020440  -0.019956
    18  C    0.000030  -0.000006  -0.000003  -0.000016  -0.106139  -0.068535
    19  C   -0.000004  -0.000013   0.000001  -0.000004   0.013055   0.023931
    20  N    0.000000   0.000000  -0.000000   0.000000  -0.001347  -0.000832
    21  H    0.000000  -0.000000  -0.000000   0.000000  -0.000000  -0.000005
    22  H   -0.000000   0.000000   0.000000  -0.000000   0.000000   0.000027
    23  H    0.000000  -0.000000  -0.000000   0.000000  -0.000000   0.000180
    24  H   -0.000000  -0.000000  -0.000000   0.000000  -0.000000  -0.000000
    25  H   -0.000105  -0.000016  -0.000008  -0.000008   0.000000  -0.000000
    26  H   -0.000033  -0.000157   0.002964   0.000131   0.000000  -0.000000
    27  H    0.000036   0.002475  -0.000167   0.000043  -0.000000  -0.000000
    28  H    0.002679   0.000022   0.000120  -0.000155  -0.000000   0.000000
    29  H   -0.029902   0.000096   0.003189   0.000024   0.000000   0.000000
    30  H   -0.026839   0.000022   0.000057   0.002541  -0.000000  -0.000000
    31  H    0.565513  -0.000162   0.000102   0.000025  -0.000000   0.000000
    32  H   -0.000162   0.566031  -0.029649  -0.027292  -0.000000  -0.000000
    33  H    0.000102  -0.029649   0.565109  -0.025246   0.000000  -0.000000
    34  H    0.000025  -0.027292  -0.025246   0.507812  -0.000000   0.000000
    35  H   -0.000000  -0.000000   0.000000  -0.000000   0.444923   0.000005
    36  H    0.000000  -0.000000  -0.000000   0.000000   0.000005   0.559448
    37  H   -0.000000  -0.000000   0.000000  -0.000000  -0.000008  -0.031597
    38  H    0.000000   0.000000   0.000000  -0.000000  -0.000006  -0.025287
    39  H    0.000000   0.000000  -0.000000   0.000000   0.000272   0.002730
    40  H   -0.000000   0.000000   0.000000  -0.000000  -0.002744   0.000290
    41  H    0.000000   0.000000   0.000000   0.000000   0.000091  -0.000568
    42  H    0.000000   0.000000   0.000000   0.000000  -0.000108   0.004073
    43  H   -0.000000  -0.000000  -0.000000   0.000000   0.017932   0.000025
              37         38         39         40         41         42
     1  C   -0.021178  -0.003643  -0.000144   0.000041   0.000240  -0.000355
     2  C    0.030277   0.031944   0.002724  -0.003800   0.001785  -0.002609
     3  C    0.143997   0.032549  -0.029533  -0.066393   0.045527  -0.026852
     4  C    0.040377   0.066136   0.000871  -0.011890   0.008756  -0.000872
     5  C    0.002684   0.003008   0.001120  -0.010539   0.004328  -0.000185
     6  C   -0.000231  -0.000179  -0.000051   0.001102   0.000474   0.000053
     7  C    0.000027   0.000071   0.000028  -0.000106   0.000050  -0.000001
     8  C    0.000005  -0.000019  -0.000009   0.000087  -0.000049   0.000001
     9  C    0.000002   0.000031  -0.000004  -0.000507   0.000261  -0.000003
    10  C   -0.004359  -0.010969   0.014938  -0.017040  -0.007173   0.002451
    11  O    0.000003   0.000000  -0.000023   0.000107   0.000025  -0.000005
    12  C   -0.019604  -0.055112   0.081121  -0.027863  -0.007922   0.002551
    13  O   -0.000051  -0.000081  -0.002797   0.010851  -0.001083   0.000411
    14  C   -0.230564   0.032866  -0.048538   0.018283  -0.040946   0.120627
    15  C   -0.003561  -0.276487  -0.078292   0.047253  -0.079813  -0.210803
    16  C    0.380176   0.572109  -0.032798   0.061689  -0.071214   0.097725
    17  C    0.036605  -0.059771   0.417736   0.435754   0.472160  -0.061164
    18  C    0.045813   0.025679   0.020411  -0.095312   0.042414   0.493953
    19  C   -0.047582  -0.004485  -0.006813   0.015014  -0.012941  -0.103212
    20  N    0.005447   0.000182   0.000132  -0.000333   0.000061   0.001992
    21  H    0.000293   0.000012  -0.000000  -0.000000   0.000000  -0.000000
    22  H    0.000244   0.000052   0.000000   0.000000  -0.000001   0.000004
    23  H   -0.001018   0.000171  -0.000001   0.000001  -0.000002   0.000029
    24  H    0.000152   0.000172  -0.000000   0.000000   0.000001  -0.000000
    25  H    0.000002  -0.000001  -0.000000   0.000000   0.000001  -0.000000
    26  H   -0.000000   0.000000  -0.000000   0.000000   0.000000  -0.000000
    27  H    0.000000   0.000000   0.000000  -0.000000  -0.000000   0.000000
    28  H    0.000000   0.000000   0.000000  -0.000000  -0.000000   0.000000
    29  H   -0.000000  -0.000000   0.000000  -0.000000  -0.000000  -0.000000
    30  H    0.000000  -0.000000  -0.000000   0.000000   0.000000   0.000000
    31  H   -0.000000   0.000000   0.000000  -0.000000   0.000000   0.000000
    32  H   -0.000000   0.000000   0.000000   0.000000   0.000000   0.000000
    33  H    0.000000   0.000000  -0.000000   0.000000   0.000000   0.000000
    34  H   -0.000000  -0.000000   0.000000  -0.000000   0.000000   0.000000
    35  H   -0.000008  -0.000006   0.000272  -0.002744   0.000091  -0.000108
    36  H   -0.031597  -0.025287   0.002730   0.000290  -0.000568   0.004073
    37  H    0.539831  -0.025847   0.000145  -0.000164   0.000128  -0.000474
    38  H   -0.025847   0.525184   0.000068   0.000004   0.001755   0.000259
    39  H    0.000145   0.000068   0.566173  -0.028623  -0.027971   0.001897
    40  H   -0.000164   0.000004  -0.028623   0.514609  -0.023730   0.000016
    41  H    0.000128   0.001755  -0.027971  -0.023730   0.528282   0.000056
    42  H   -0.000474   0.000259   0.001897   0.000016   0.000056   0.513785
    43  H   -0.000022  -0.000157  -0.000772   0.002676   0.000104  -0.029689
              43
     1  C   -0.001088
     2  C   -0.003980
     3  C   -0.068513
     4  C   -0.006662
     5  C   -0.000080
     6  C   -0.000079
     7  C    0.000005
     8  C   -0.000011
     9  C   -0.000007
    10  C    0.014984
    11  O    0.000033
    12  C    0.142098
    13  O   -0.014834
    14  C   -0.233383
    15  C    0.246631
    16  C   -0.005992
    17  C    0.015725
    18  C    0.194380
    19  C    0.007270
    20  N   -0.006291
    21  H   -0.000000
    22  H    0.000000
    23  H    0.000019
    24  H   -0.000000
    25  H    0.000000
    26  H   -0.000000
    27  H   -0.000000
    28  H   -0.000000
    29  H    0.000000
    30  H   -0.000000
    31  H   -0.000000
    32  H   -0.000000
    33  H   -0.000000
    34  H    0.000000
    35  H    0.017932
    36  H    0.000025
    37  H   -0.000022
    38  H   -0.000157
    39  H   -0.000772
    40  H    0.002676
    41  H    0.000104
    42  H   -0.029689
    43  H    0.579512
 Mulliken charges:
               1
     1  C   -0.728166
     2  C   -0.047325
     3  C   -0.470053
     4  C   -0.417392
     5  C    0.922706
     6  C    0.364670
     7  C   -0.471277
     8  C   -0.537400
     9  C   -0.556916
    10  C    0.137364
    11  O   -0.437382
    12  C    0.188996
    13  O   -0.412368
    14  C   -0.147260
    15  C   -0.114879
    16  C   -0.500584
    17  C   -0.320498
    18  C    0.151730
    19  C    0.025182
    20  N   -0.439296
    21  H    0.164862
    22  H    0.164290
    23  H    0.178102
    24  H    0.132178
    25  H    0.123767
    26  H    0.150200
    27  H    0.149346
    28  H    0.143932
    29  H    0.139614
    30  H    0.186641
    31  H    0.140112
    32  H    0.139648
    33  H    0.140336
    34  H    0.183361
    35  H    0.354657
    36  H    0.148460
    37  H    0.160050
    38  H    0.169795
    39  H    0.146004
    40  H    0.181268
    41  H    0.166913
    42  H    0.196448
    43  H    0.150164
 Sum of Mulliken charges =  -0.00000
 Mulliken charges with hydrogens summed into heavy atoms:
               1
     1  C   -0.220912
     2  C    0.084853
     3  C   -0.470053
     4  C   -0.293625
     5  C    0.922706
     6  C    0.364670
     7  C   -0.027798
     8  C   -0.071034
     9  C   -0.093572
    10  C    0.137364
    11  O   -0.437382
    12  C    0.188996
    13  O   -0.057711
    14  C   -0.147260
    15  C   -0.114879
    16  C   -0.022280
    17  C    0.173687
    18  C    0.498342
    19  C    0.025182
    20  N   -0.439296
 Electronic spatial extent (au):  <R**2>=           6050.6008
 Charge=             -0.0000 electrons
 Dipole moment (field-independent basis, Debye):
    X=              2.5935    Y=              2.6255    Z=              4.5498  Tot=              5.8584
 Quadrupole moment (field-independent basis, Debye-Ang):
   XX=           -122.6687   YY=           -122.3982   ZZ=           -132.7870
   XY=            -12.4565   XZ=             10.4805   YZ=             -2.9567
 Traceless Quadrupole moment (field-independent basis, Debye-Ang):
   XX=              3.2826   YY=              3.5531   ZZ=             -6.8357
   XY=            -12.4565   XZ=             10.4805   YZ=             -2.9567
 Octapole moment (field-independent basis, Debye-Ang**2):
  XXX=            -17.1375  YYY=             21.4730  ZZZ=             22.1446  XYY=             35.1266
  XXY=            -22.2247  XXZ=             58.8122  XZZ=            -24.6936  YZZ=             -5.7239
  YYZ=              2.6326  XYZ=             10.1754
 Hexadecapole moment (field-independent basis, Debye-Ang**3):
 XXXX=          -5748.9768 YYYY=          -1689.4078 ZZZZ=          -1072.4296 XXXY=           -105.7422
 XXXZ=            238.3667 YYYX=            -30.8373 YYYZ=            -19.4908 ZZZX=            103.6798
 ZZZY=              9.8062 XXYY=          -1212.0088 XXZZ=          -1273.4284 YYZZ=           -461.8470
 XXYZ=             13.4665 YYXZ=            -22.4888 ZZXY=            -18.0194
 N-N= 1.608432590211D+03 E-N=-5.227542941082D+03  KE= 8.585395134891D+02
 Unable to Open any file for archive entry.
 1\1\GINC-N1\SP\RB3LYP TD-FC\6-31+G(d,p)\C17H23N1O2\HPCMGAC13\25-Aug-20
 25\0\\# td=(50-50,nstates=3) b3lyp/6-31+g(d,p) geom=connectivity\\Titl
 e Card Required\\0,1\C,0,-2.10877,2.88148,0.649582\C,0,-0.804867,2.440
 513,0.064951\C,0,-0.285488,1.204995,-0.197149\C,0,1.179969,1.215663,-0
 .314984\C,0,1.989023,0.177656,0.004112\C,0,3.522862,0.241417,-0.046528
 \C,0,4.015212,1.571596,-0.65066\C,0,4.105928,0.116598,1.383802\C,0,4.0
 60787,-0.912197,-0.930316\C,0,1.319887,-1.044909,0.495973\O,0,1.914913
 ,-2.000371,0.991851\C,0,-0.166101,-1.140913,0.284538\O,0,-0.576447,-2.
 424279,0.492199\C,0,-0.951669,-0.121874,-0.181946\C,0,-2.301664,-0.421
 814,-0.910005\C,0,-2.933048,0.80576,-1.603398\C,0,-2.000604,-1.437936,
 -2.050783\C,0,-3.41984,-1.06635,-0.013168\C,0,-3.709323,-0.380582,1.24
 766\N,0,-3.952026,0.152772,2.250401\H,0,-1.893709,3.538126,1.502529\H,
 0,-2.685838,3.490192,-0.059914\H,0,-2.730903,2.068215,1.017213\H,0,-0.
 096682,3.260453,-0.055426\H,0,1.613504,2.176617,-0.571622\H,0,5.108529
 ,1.558497,-0.707431\H,0,3.633316,1.727926,-1.666242\H,0,3.732739,2.434
 668,-0.037225\H,0,5.200255,0.171136,1.342882\H,0,3.823075,-0.830515,1.
 845547\H,0,3.751905,0.93559,2.020562\H,0,3.677043,-0.830887,-1.95409\H
 ,0,5.154806,-0.862368,-0.977411\H,0,3.778431,-1.886523,-0.527992\H,0,-
 1.529004,-2.458489,0.625903\H,0,-3.708096,0.457269,-2.294308\H,0,-3.40
 6349,1.495742,-0.907383\H,0,-2.191594,1.35625,-2.186212\H,0,-2.930133,
 -1.722321,-2.557644\H,0,-1.509715,-2.346118,-1.696963\H,0,-1.345734,-0
 .970295,-2.791441\H,0,-4.347498,-1.091033,-0.598125\H,0,-3.215672,-2.1
 18963,0.219506\\Version=ES64L-G16RevC.02\State=1-A\HF=-866.8510166\RMS
 D=6.268e-09\PG=C01 [X(C17H23N1O2)]\\@
 The archive entry for this job was punched.


 THERE'S A SUCKER BORN EVERY MINUTE

              -- PHINEAS TAYLOR (P.T.) BARNUM
 Job cpu time:       0 days  2 hours 28 minutes 52.0 seconds.
 Elapsed time:       0 days  0 hours  9 minutes 35.4 seconds.
 File lengths (MBytes):  RWF=   1357 Int=      0 D2E=      0 Chk=     63 Scr=      2
 Normal termination of Gaussian 16 at Mon Aug 25 14:49:22 2025.
