 Entering Gaussian System, Link 0=g16
 Input=M805e.gjf
 Output=M805e.log
 Initial command:
 /hpc/softwares/Gaussian/g16/l1.exe "/hpc/home/hpcmgac13/pbs.15230.admin1.x8z/Gau-262174.inp" -scrdir="/hpc/home/hpcmgac13/pbs.15230.admin1.x8z/"
 Default linda workers: n2
 Default is to use   8 SMP processors on each worker.
 Entering Link 1 = /hpc/softwares/Gaussian/g16/l1.exe PID=    262175.
  
 Copyright (c) 1988-2021, Gaussian, Inc.  All Rights Reserved.
  
 This is part of the Gaussian(R) 16 program.  It is based on
 the Gaussian(R) 09 system (copyright 2009, Gaussian, Inc.),
 the Gaussian(R) 03 system (copyright 2003, Gaussian, Inc.),
 the Gaussian(R) 98 system (copyright 1998, Gaussian, Inc.),
 the Gaussian(R) 94 system (copyright 1995, Gaussian, Inc.),
 the Gaussian 92(TM) system (copyright 1992, Gaussian, Inc.),
 the Gaussian 90(TM) system (copyright 1990, Gaussian, Inc.),
 the Gaussian 88(TM) system (copyright 1988, Gaussian, Inc.),
 the Gaussian 86(TM) system (copyright 1986, Carnegie Mellon
 University), and the Gaussian 82(TM) system (copyright 1983,
 Carnegie Mellon University). Gaussian is a federally registered
 trademark of Gaussian, Inc.
  
 This software contains proprietary and confidential information,
 including trade secrets, belonging to Gaussian, Inc.
  
 This software is provided under written license and may be
 used, copied, transmitted, or stored only in accord with that
 written license.
  
 The following legend is applicable only to US Government
 contracts under FAR:
  
                    RESTRICTED RIGHTS LEGEND
  
 Use, reproduction and disclosure by the US Government is
 subject to restrictions as set forth in subparagraphs (a)
 and (c) of the Commercial Computer Software - Restricted
 Rights clause in FAR 52.227-19.
  
 Gaussian, Inc.
 340 Quinnipiac St., Bldg. 40, Wallingford CT 06492
  
  
 ---------------------------------------------------------------
 Warning -- This program may not be used in any manner that
 competes with the business of Gaussian, Inc. or will provide
 assistance to any competitor of Gaussian, Inc.  The licensee
 of this program is prohibited from giving any competitor of
 Gaussian, Inc. access to this program.  By using this program,
 the user acknowledges that Gaussian, Inc. is engaged in the
 business of creating and licensing software in the field of
 computational chemistry and represents and warrants to the
 licensee that it is not a competitor of Gaussian, Inc. and that
 it will not use this program in any manner prohibited above.
 ---------------------------------------------------------------
  

 Cite this work as:
 Gaussian 16, Revision C.02,
 M. J. Frisch, G. W. Trucks, H. B. Schlegel, G. E. Scuseria, 
 M. A. Robb, J. R. Cheeseman, G. Scalmani, V. Barone, 
 G. A. Petersson, H. Nakatsuji, X. Li, M. Caricato, A. V. Marenich, 
 J. Bloino, B. G. Janesko, R. Gomperts, B. Mennucci, H. P. Hratchian, 
 J. V. Ortiz, A. F. Izmaylov, J. L. Sonnenberg, D. Williams-Young, 
 F. Ding, F. Lipparini, F. Egidi, J. Goings, B. Peng, A. Petrone, 
 T. Henderson, D. Ranasinghe, V. G. Zakrzewski, J. Gao, N. Rega, 
 G. Zheng, W. Liang, M. Hada, M. Ehara, K. Toyota, R. Fukuda, 
 J. Hasegawa, M. Ishida, T. Nakajima, Y. Honda, O. Kitao, H. Nakai, 
 T. Vreven, K. Throssell, J. A. Montgomery, Jr., J. E. Peralta, 
 F. Ogliaro, M. J. Bearpark, J. J. Heyd, E. N. Brothers, K. N. Kudin, 
 V. N. Staroverov, T. A. Keith, R. Kobayashi, J. Normand, 
 K. Raghavachari, A. P. Rendell, J. C. Burant, S. S. Iyengar, 
 J. Tomasi, M. Cossi, J. M. Millam, M. Klene, C. Adamo, R. Cammi, 
 J. W. Ochterski, R. L. Martin, K. Morokuma, O. Farkas, 
 J. B. Foresman, and D. J. Fox, Gaussian, Inc., Wallingford CT, 2019.
 
 ******************************************
 Gaussian 16:  ES64L-G16RevC.02  7-Dec-2021
                 7-Oct-2025 
 ******************************************
 SetLPE:    new flags="-opt 'Tsnet.Node.lindarsharg: ssh'  -nodelist 'n2.head.cm.mguif.local' -env GAUSS_MDEF=1342177280 -env GAUSS_EXEDIR="/hpc/softwares/Gaussian/g16/bsd:/hpc/softwares/Gaussian/g16""
 Will use up to    1 processors via Linda.
 ----------------------------------------------------------
 # td=(50-50,nstates=3) b3lyp/6-31+g(d,p) geom=connectivity
 ----------------------------------------------------------
 1/38=1,57=2,172=1/1;
 2/12=2,17=6,18=5,40=1/2;
 3/5=1,6=6,7=111,11=9,25=1,30=1,74=-5/1,2,3,8;
 4//1;
 5/5=2,38=5/2;
 8/6=1,10=2,108=3/1;
 9/41=3,42=1,48=2,70=2/14;
 6/7=2,8=2,9=2,10=2/1;
 99/5=1,9=1/99;
 -------------------
 Title Card Required
 -------------------
 Symbolic Z-matrix:
 Charge =  0 Multiplicity = 1
 C                     4.35643  -0.94105   0.00003 
 C                     3.24855   0.09242  -0.00006 
 O                     1.98632  -0.62489   0.00002 
 C                     0.88594   0.11478   0. 
 N                     0.86962   1.43153  -0.00008 
 O                    -0.52243   1.71015  -0.00008 
 C                    -1.14741   0.51822   0.00007 
 C                    -2.64315   0.58336   0.00016 
 Cl                   -3.41685  -1.03148  -0.00009 
 N                    -0.34725  -0.49988   0.00011 
 H                     5.32736  -0.43519  -0.00003 
 H                     4.29784  -1.57698   0.88821 
 H                     4.29782  -1.57716  -0.88802 
 H                     3.2825    0.73404  -0.88728 
 H                     3.28251   0.73421   0.88704 
 H                    -2.98569   1.12298   0.88611 
 H                    -2.98578   1.12331  -0.88555 
 
                          Input orientation:                          
 ---------------------------------------------------------------------
 Center     Atomic      Atomic             Coordinates (Angstroms)
 Number     Number       Type             X           Y           Z
 ---------------------------------------------------------------------
      1          6           0        4.356433   -0.941047    0.000032
      2          6           0        3.248549    0.092424   -0.000058
      3          8           0        1.986322   -0.624893    0.000020
      4          6           0        0.885935    0.114776    0.000004
      5          7           0        0.869618    1.431528   -0.000075
      6          8           0       -0.522432    1.710147   -0.000079
      7          6           0       -1.147406    0.518216    0.000069
      8          6           0       -2.643152    0.583364    0.000164
      9         17           0       -3.416849   -1.031480   -0.000088
     10          7           0       -0.347247   -0.499882    0.000106
     11          1           0        5.327361   -0.435190   -0.000033
     12          1           0        4.297844   -1.576978    0.888209
     13          1           0        4.297822   -1.577156   -0.888017
     14          1           0        3.282500    0.734040   -0.887281
     15          1           0        3.282514    0.734213    0.887040
     16          1           0       -2.985689    1.122977    0.886114
     17          1           0       -2.985783    1.123311   -0.885545
 ---------------------------------------------------------------------
                    Distance matrix (angstroms):
                    1          2          3          4          5
     1  C    0.000000
     2  C    1.515081   0.000000
     3  O    2.391104   1.451813   0.000000
     4  C    3.627550   2.362720   1.325882   0.000000
     5  N    4.217463   2.729929   2.340063   1.316853   0.000000
     6  O    5.552671   4.103331   3.427281   2.128076   1.419659
     7  C    5.694005   4.416528   3.335708   2.072978   2.214165
     8  C    7.163660   5.912120   4.784550   3.560060   3.613715
     9  Cl   7.773808   6.759489   5.418447   4.452848   4.943704
    10  N    4.724323   3.644252   2.336915   1.377876   2.282784
    11  H    1.094802   2.144723   3.346420   4.475347   4.832816
    12  H    1.093938   2.162624   2.653013   3.910507   4.646815
    13  H    1.093938   2.162624   2.653007   3.910523   4.646849
    14  H    2.178663   1.095440   2.077036   2.629503   2.663761
    15  H    2.178665   1.095440   2.077038   2.629473   2.663698
    16  H    7.678027   6.380679   5.344259   4.097698   3.967862
    17  H    7.678148   6.380730   5.344368   4.097748   3.967767
                    6          7          8          9         10
     6  O    0.000000
     7  C    1.345842   0.000000
     8  C    2.401477   1.497164   0.000000
     9  Cl   3.986749   2.748077   1.790622   0.000000
    10  N    2.216961   1.294905   2.538622   3.115293   0.000000
    11  H    6.230774   6.544585   8.035330   8.764518   5.674977
    12  H    5.901636   5.901642   7.323464   7.784801   4.850333
    13  H    5.901664   5.901677   7.323512   7.784750   4.850355
    14  H    4.027086   4.523056   5.993631   6.984658   3.935109
    15  H    4.027039   4.523004   5.993565   6.984707   3.935074
    16  H    2.682861   2.128402   1.092438   2.369164   3.221810
    17  H    2.682634   2.128399   1.092437   2.369172   3.221957
                   11         12         13         14         15
    11  H    0.000000
    12  H    1.775545   0.000000
    13  H    1.775543   1.776226   0.000000
    14  H    2.517094   3.086113   2.524382   0.000000
    15  H    2.517102   2.524381   3.086115   1.774321   0.000000
    16  H    8.504113   7.767858   7.967923   6.525825   6.280247
    17  H    8.504200   7.967998   7.768103   6.280359   6.525719
                   16         17
    16  H    0.000000
    17  H    1.771659   0.000000
 Stoichiometry    C5H7ClN2O2
 Framework group  C1[X(C5H7ClN2O2)]
 Deg. of freedom    45
 Full point group                 C1      NOp   1
 Largest Abelian subgroup         C1      NOp   1
 Largest concise Abelian subgroup C1      NOp   1
                         Standard orientation:                         
 ---------------------------------------------------------------------
 Center     Atomic      Atomic             Coordinates (Angstroms)
 Number     Number       Type             X           Y           Z
 ---------------------------------------------------------------------
      1          6           0        4.356433   -0.941047    0.000032
      2          6           0        3.248549    0.092424   -0.000058
      3          8           0        1.986322   -0.624893    0.000020
      4          6           0        0.885935    0.114776    0.000004
      5          7           0        0.869618    1.431528   -0.000075
      6          8           0       -0.522432    1.710147   -0.000079
      7          6           0       -1.147406    0.518216    0.000069
      8          6           0       -2.643152    0.583364    0.000164
      9         17           0       -3.416849   -1.031480   -0.000088
     10          7           0       -0.347247   -0.499882    0.000106
     11          1           0        5.327361   -0.435190   -0.000033
     12          1           0        4.297844   -1.576978    0.888209
     13          1           0        4.297822   -1.577156   -0.888017
     14          1           0        3.282500    0.734040   -0.887281
     15          1           0        3.282514    0.734213    0.887040
     16          1           0       -2.985689    1.122977    0.886114
     17          1           0       -2.985783    1.123311   -0.885545
 ---------------------------------------------------------------------
 Rotational constants (GHZ):           3.2876922           0.4766540           0.4195874
 Standard basis: 6-31+G(d,p) (6D, 7F)
 There are   229 symmetry adapted cartesian basis functions of A   symmetry.
 There are   229 symmetry adapted basis functions of A   symmetry.
   229 basis functions,   393 primitive gaussians,   229 cartesian basis functions
    42 alpha electrons       42 beta electrons
       nuclear repulsion energy       592.1243252423 Hartrees.
 NAtoms=   17 NActive=   17 NUniq=   17 SFac= 1.00D+00 NAtFMM=   60 NAOKFM=F Big=F
 Integral buffers will be    131072 words long.
 Regular integral format.
 Two-electron integral symmetry is turned on.
 One-electron integrals computed using PRISM.
 NBasis=   229 RedAO= T EigKep=  6.50D-06  NBF=   229
 NBsUse=   229 1.00D-06 EigRej= -1.00D+00 NBFU=   229
 ExpMin= 4.38D-02 ExpMax= 2.52D+04 ExpMxC= 3.78D+03 IAcc=3 IRadAn=         5 AccDes= 0.00D+00
 Harris functional with IExCor=  402 and IRadAn=       5 diagonalized for initial guess.
 HarFok:  IExCor=  402 AccDes= 0.00D+00 IRadAn=         5 IDoV= 1 UseB2=F ITyADJ=14
 ICtDFT=  3500011 ScaDFX=  1.000000  1.000000  1.000000  1.000000
 FoFCou: FMM=F IPFlag=           0 FMFlag=      100000 FMFlg1=           0
         NFxFlg=           0 DoJE=T BraDBF=F KetDBF=T FulRan=T
         wScrn=  0.000000 ICntrl=       500 IOpCl=  0 I1Cent=   200000004 NGrid=           0
         NMat0=    1 NMatS0=      1 NMatT0=    0 NMatD0=    1 NMtDS0=    0 NMtDT0=    0
 Petite list used in FoFCou.
 Requested convergence on RMS density matrix=1.00D-08 within 128 cycles.
 Requested convergence on MAX density matrix=1.00D-06.
 Requested convergence on             energy=1.00D-06.
 No special actions if energy rises.
 SCF Done:  E(RB3LYP) =  -914.870609585     A.U. after   14 cycles
            NFock= 14  Conv=0.48D-08     -V/T= 2.0061
 DoSCS=F DFT=T ScalE2(SS,OS)=  1.000000  1.000000
 ExpMin= 4.38D-02 ExpMax= 2.52D+04 ExpMxC= 3.78D+03 IAcc=3 IRadAn=         5 AccDes= 0.00D+00
 HarFok:  IExCor=  205 AccDes= 0.00D+00 IRadAn=         5 IDoV=-2 UseB2=F ITyADJ=14
 ICtDFT= 12500011 ScaDFX=  1.000000  1.000000  1.000000  1.000000
 Range of M.O.s used for correlation:    15   229
 NBasis=   229 NAE=    42 NBE=    42 NFC=    14 NFV=     0
 NROrb=    215 NOA=    28 NOB=    28 NVA=   187 NVB=   187

 **** Warning!!: The largest alpha MO coefficient is  0.82957470D+02

 Keep R1, R2, and R3 ints in memory in canonical form, NReq=1094498055.
 Orbital symmetries:
       Occupied  (A) (A) (A) (A) (A) (A) (A) (A) (A) (A) (A) (A)
                 (A) (A) (A) (A) (A) (A) (A) (A) (A) (A) (A) (A)
                 (A) (A) (A) (A) (A) (A) (A) (A) (A) (A) (A) (A)
                 (A) (A) (A) (A) (A) (A)
       Virtual   (A) (A) (A) (A) (A) (A) (A) (A) (A) (A) (A) (A)
                 (A) (A) (A) (A) (A) (A) (A) (A) (A) (A) (A) (A)
                 (A) (A) (A) (A) (A) (A) (A) (A) (A) (A) (A) (A)
                 (A) (A) (A) (A) (A) (A) (A) (A) (A) (A) (A) (A)
                 (A) (A) (A) (A) (A) (A) (A) (A) (A) (A) (A) (A)
                 (A) (A) (A) (A) (A) (A) (A) (A) (A) (A) (A) (A)
                 (A) (A) (A) (A) (A) (A) (A) (A) (A) (A) (A) (A)
                 (A) (A) (A) (A) (A) (A) (A) (A) (A) (A) (A) (A)
                 (A) (A) (A) (A) (A) (A) (A) (A) (A) (A) (A) (A)
                 (A) (A) (A) (A) (A) (A) (A) (A) (A) (A) (A) (A)
                 (A) (A) (A) (A) (A) (A) (A) (A) (A) (A) (A) (A)
                 (A) (A) (A) (A) (A) (A) (A) (A) (A) (A) (A) (A)
                 (A) (A) (A) (A) (A) (A) (A) (A) (A) (A) (A) (A)
                 (A) (A) (A) (A) (A) (A) (A) (A) (A) (A) (A) (A)
                 (A) (A) (A) (A) (A) (A) (A) (A) (A) (A) (A) (A)
                 (A) (A) (A) (A) (A) (A) (A)
    24 initial guesses have been made.
 Convergence on wavefunction:    0.001000000000000
 Iteration     1 Dimension    24 NMult     0 NNew     24
 CISAX will form    24 AO SS matrices at one time.
 New state      1 was old state      2
 New state      2 was old state      6
 New state      3 was old state     14
 New state      4 was old state      5
 New state      5 was old state      4
 New state      6 was old state      3
 New state      7 was old state     20
 New state      8 was old state     10
 New state      9 was old state     18
 New state     10 was old state      8
 New state     11 was old state      9
 New state     12 was old state      7
 Vector   5 SDiff=8.51D+00 TDiff=9.48D+00 assumed to be singlet.
 Vector  11 SDiff=8.60D+00 TDiff=9.17D+00 assumed to be singlet.
 Iteration     2 Dimension    36 NMult    24 NNew     12
 New state      2 was old state      3
 New state      3 was old state      2
 New state      5 was old state     19
 Iteration     3 Dimension    48 NMult    36 NNew     12
 New state      4 was old state      5
 New state      5 was old state      4
 Iteration     4 Dimension    60 NMult    48 NNew     12
 Iteration     5 Dimension    72 NMult    60 NNew     12
 Iteration     6 Dimension    80 NMult    72 NNew      8
 Iteration     7 Dimension    82 NMult    80 NNew      2
 ***********************************************************************
 Excited states from <AA,BB:AA,BB> singles matrix:
 ***********************************************************************
 
 Ground to excited state transition densities written to RWF  633
 Ground to excited state transition electric dipole moments (Au):
       state          X           Y           Z        Dip. S.      Osc.
         1         0.0000     -0.0000     -0.0000      0.0000      0.0000
         2        -0.0000      0.0000     -0.0000      0.0000      0.0000
         3        -0.0000     -0.0000     -0.0000      0.0000      0.0000
         4        -0.2543     -0.4439      0.0002      0.2617      0.0384
         5        -0.0001     -0.0004     -0.1620      0.0262      0.0039
         6        -0.0000     -0.0004      0.0179      0.0003      0.0000
 Ground to excited state transition velocity dipole moments (Au):
       state          X           Y           Z        Dip. S.      Osc.
         1        -0.0000     -0.0000      0.0000      0.0000      0.0000
         2         0.0000     -0.0000      0.0000      0.0000      0.0000
         3         0.0000      0.0000      0.0000      0.0000      0.0000
         4         0.0587      0.0934     -0.0001      0.0122      0.0369
         5         0.0000      0.0001      0.0432      0.0019      0.0056
         6         0.0000      0.0001     -0.0000      0.0000      0.0000
 Ground to excited state transition magnetic dipole moments (Au):
       state          X           Y           Z
         1         0.0000     -0.0000     -0.0000
         2        -0.0000     -0.0000      0.0000
         3         0.0000      0.0000      0.0000
         4         0.0000      0.0002     -0.2544
         5        -0.0329     -0.1726     -0.0000
         6         0.1173      0.1948      0.0000
 Ground to excited state transition velocity quadrupole moments (Au):
       state          XX          YY          ZZ          XY          XZ          YZ
         1        -0.0000     -0.0000     -0.0000      0.0000      0.0000      0.0000
         2         0.0000      0.0000      0.0000     -0.0000      0.0000      0.0000
         3         0.0000      0.0000      0.0000      0.0000     -0.0000     -0.0000
         4        -0.6516      0.3496     -0.0180      0.2521     -0.0002      0.0000
         5        -0.0004      0.0003     -0.0000      0.0002      0.0303      0.0248
         6        -0.0009      0.0001     -0.0001      0.0004      0.0259      0.0388
 <0|del|b> * <b|rxdel|0> + <0|del|b> * <b|delr+rdel|0>
 Rotatory Strengths (R) in cgs (10**-40 erg-esu-cm/Gauss)
       state          XX          YY          ZZ    R(velocity)    E-M Angle
         1        -0.0000     -0.0000     -0.0000     -0.0000       90.00
         2         0.0000      0.0000     -0.0000      0.0000       90.00
         3         0.0000      0.0000      0.0000      0.0000       90.00
         4         0.0623      0.0521     -0.0046      0.0366       90.00
         5        -0.0150     -0.0164     -0.0225     -0.0179       90.00
         6         0.0184      0.0035      0.0258      0.0159       90.00
 1/2[<0|r|b>*<b|rxdel|0> + (<0|rxdel|b>*<b|r|0>)*]
 Rotatory Strengths (R) in cgs (10**-40 erg-esu-cm/Gauss)
       state          XX          YY          ZZ     R(length)
         1        -0.0000     -0.0000     -0.0000     -0.0000
         2        -0.0000      0.0000      0.0000      0.0000
         3         0.0000      0.0000      0.0000      0.0000
         4         0.0026      0.0636      0.0365      0.0342
         5        -0.0025     -0.0444     -0.0025     -0.0165
         6         0.0025      0.0522     -0.0001      0.0182
  1/2[<0|del|b>*<b|r|0> + (<0|r|b>*<b|del|0>)*] (Au)
       state          X           Y           Z        Dip. S.   Osc.(frdel)
         1        -0.0000      0.0000     -0.0000      0.0000      0.0000
         2        -0.0000     -0.0000     -0.0000      0.0000      0.0000
         3        -0.0000     -0.0000     -0.0000      0.0000      0.0000
         4        -0.0149     -0.0414     -0.0000      0.0564      0.0376
         5        -0.0000     -0.0000     -0.0070      0.0070      0.0047
         6        -0.0000     -0.0000     -0.0000      0.0000      0.0000

 Excitation energies and oscillator strengths:
 
 Excited State   1:      Triplet-A      4.2340 eV  292.83 nm  f=0.0000  <S**2>=2.000
      39 -> 43        -0.20132
      42 -> 43         0.64630
      42 -> 50         0.16421
 This state for optimization and/or second-order correction.
 Total Energy, E(TD-HF/TD-DFT) =  -914.715013438    
 Copying the excited state density for this state as the 1-particle RhoCI density.
 
 Excited State   2:      Triplet-A      5.4311 eV  228.29 nm  f=0.0000  <S**2>=2.000
      36 -> 43        -0.17626
      39 -> 43         0.57747
      40 -> 43         0.27096
      42 -> 43         0.17834
 
 Excited State   3:      Triplet-A      5.5742 eV  222.42 nm  f=0.0000  <S**2>=2.000
      38 -> 43        -0.29141
      41 -> 43         0.62866
 
 Excited State   4:      Singlet-A      5.9883 eV  207.04 nm  f=0.0384  <S**2>=0.000
      42 -> 43         0.68613
      42 -> 50        -0.10028
 
 Excited State   5:      Singlet-A      6.0311 eV  205.57 nm  f=0.0039  <S**2>=0.000
      38 -> 43        -0.21970
      41 -> 43         0.66664
 
 Excited State   6:      Singlet-A      6.2113 eV  199.61 nm  f=0.0000  <S**2>=0.000
      42 -> 44         0.68854
 SavETr:  write IOETrn=   770 NScale= 10 NData=  16 NLR=1 NState=    6 LETran=     118.

 **********************************************************************

            Population analysis using the SCF Density.

 **********************************************************************

 Orbital symmetries:
       Occupied  (A) (A) (A) (A) (A) (A) (A) (A) (A) (A) (A) (A)
                 (A) (A) (A) (A) (A) (A) (A) (A) (A) (A) (A) (A)
                 (A) (A) (A) (A) (A) (A) (A) (A) (A) (A) (A) (A)
                 (A) (A) (A) (A) (A) (A)
       Virtual   (A) (A) (A) (A) (A) (A) (A) (A) (A) (A) (A) (A)
                 (A) (A) (A) (A) (A) (A) (A) (A) (A) (A) (A) (A)
                 (A) (A) (A) (A) (A) (A) (A) (A) (A) (A) (A) (A)
                 (A) (A) (A) (A) (A) (A) (A) (A) (A) (A) (A) (A)
                 (A) (A) (A) (A) (A) (A) (A) (A) (A) (A) (A) (A)
                 (A) (A) (A) (A) (A) (A) (A) (A) (A) (A) (A) (A)
                 (A) (A) (A) (A) (A) (A) (A) (A) (A) (A) (A) (A)
                 (A) (A) (A) (A) (A) (A) (A) (A) (A) (A) (A) (A)
                 (A) (A) (A) (A) (A) (A) (A) (A) (A) (A) (A) (A)
                 (A) (A) (A) (A) (A) (A) (A) (A) (A) (A) (A) (A)
                 (A) (A) (A) (A) (A) (A) (A) (A) (A) (A) (A) (A)
                 (A) (A) (A) (A) (A) (A) (A) (A) (A) (A) (A) (A)
                 (A) (A) (A) (A) (A) (A) (A) (A) (A) (A) (A) (A)
                 (A) (A) (A) (A) (A) (A) (A) (A) (A) (A) (A) (A)
                 (A) (A) (A) (A) (A) (A) (A) (A) (A) (A) (A) (A)
                 (A) (A) (A) (A) (A) (A) (A)
 The electronic state is 1-A.
 Alpha  occ. eigenvalues -- -101.56094 -19.26549 -19.21676 -14.39984 -14.36440
 Alpha  occ. eigenvalues --  -10.32496 -10.32326 -10.28868 -10.26291 -10.19800
 Alpha  occ. eigenvalues --   -9.47619  -7.24093  -7.22999  -7.22997  -1.18266
 Alpha  occ. eigenvalues --   -1.10869  -0.95787  -0.90244  -0.86516  -0.78979
 Alpha  occ. eigenvalues --   -0.73952  -0.67387  -0.63540  -0.60753  -0.56370
 Alpha  occ. eigenvalues --   -0.53200  -0.50306  -0.49206  -0.47218  -0.47077
 Alpha  occ. eigenvalues --   -0.44397  -0.41826  -0.41263  -0.40682  -0.38054
 Alpha  occ. eigenvalues --   -0.36636  -0.35317  -0.32834  -0.32717  -0.31761
 Alpha  occ. eigenvalues --   -0.31024  -0.27868
 Alpha virt. eigenvalues --   -0.03891  -0.01875  -0.00069   0.00776   0.02747
 Alpha virt. eigenvalues --    0.03369   0.03423   0.03949   0.05122   0.05134
 Alpha virt. eigenvalues --    0.05615   0.06111   0.07200   0.07894   0.07918
 Alpha virt. eigenvalues --    0.08594   0.09462   0.09705   0.10483   0.10995
 Alpha virt. eigenvalues --    0.12098   0.12514   0.13982   0.14253   0.16174
 Alpha virt. eigenvalues --    0.16438   0.16793   0.17848   0.18353   0.19234
 Alpha virt. eigenvalues --    0.20030   0.20546   0.21354   0.21422   0.22347
 Alpha virt. eigenvalues --    0.22432   0.22765   0.23891   0.25233   0.25756
 Alpha virt. eigenvalues --    0.26302   0.26871   0.28445   0.28939   0.29821
 Alpha virt. eigenvalues --    0.30663   0.31019   0.31719   0.31907   0.33535
 Alpha virt. eigenvalues --    0.35696   0.36016   0.39098   0.40600   0.42661
 Alpha virt. eigenvalues --    0.43892   0.46042   0.48667   0.50017   0.57198
 Alpha virt. eigenvalues --    0.59071   0.60702   0.62137   0.64045   0.65116
 Alpha virt. eigenvalues --    0.66042   0.66599   0.67123   0.68812   0.72130
 Alpha virt. eigenvalues --    0.73321   0.74797   0.75836   0.77402   0.81741
 Alpha virt. eigenvalues --    0.84529   0.85954   0.89556   0.89666   0.89990
 Alpha virt. eigenvalues --    0.91469   0.91901   0.93379   0.96335   0.97385
 Alpha virt. eigenvalues --    0.98568   0.98758   1.01382   1.02527   1.02620
 Alpha virt. eigenvalues --    1.03109   1.06027   1.08497   1.10518   1.12434
 Alpha virt. eigenvalues --    1.14054   1.15507   1.16436   1.18047   1.20820
 Alpha virt. eigenvalues --    1.25851   1.29065   1.33004   1.33148   1.34821
 Alpha virt. eigenvalues --    1.35393   1.38863   1.39154   1.41351   1.45393
 Alpha virt. eigenvalues --    1.46163   1.50639   1.53801   1.54143   1.58930
 Alpha virt. eigenvalues --    1.63494   1.63866   1.68605   1.70452   1.70625
 Alpha virt. eigenvalues --    1.73661   1.79062   1.82454   1.89098   1.90981
 Alpha virt. eigenvalues --    1.91450   1.93586   1.98826   2.00740   2.00831
 Alpha virt. eigenvalues --    2.02874   2.03708   2.06029   2.07742   2.07750
 Alpha virt. eigenvalues --    2.11200   2.12090   2.15134   2.15903   2.22093
 Alpha virt. eigenvalues --    2.22115   2.24935   2.28413   2.31815   2.33690
 Alpha virt. eigenvalues --    2.38127   2.42665   2.46743   2.50385   2.52506
 Alpha virt. eigenvalues --    2.55845   2.55917   2.60142   2.68276   2.68502
 Alpha virt. eigenvalues --    2.70907   2.72490   2.73151   2.73571   2.76472
 Alpha virt. eigenvalues --    2.80858   2.84338   2.86567   2.90765   2.93438
 Alpha virt. eigenvalues --    2.97561   3.07525   3.11332   3.19741   3.24904
 Alpha virt. eigenvalues --    3.26556   3.28845   3.31979   3.38643   3.39789
 Alpha virt. eigenvalues --    3.47635   3.50640   4.14773   4.24139   4.28327
 Alpha virt. eigenvalues --    4.36458   4.42544   4.44872   4.53081   4.58657
 Alpha virt. eigenvalues --    4.65208   4.77530
          Condensed to atoms (all electrons):
               1          2          3          4          5          6
     1  C    5.413543  -0.042323  -0.003548  -0.062758   0.029281  -0.007331
     2  C   -0.042323   5.875845  -0.177565   0.160302  -0.077642   0.027805
     3  O   -0.003548  -0.177565   8.464970   0.195337  -0.200223   0.012964
     4  C   -0.062758   0.160302   0.195337   9.441938  -0.773038   0.187975
     5  N    0.029281  -0.077642  -0.200223  -0.773038   7.824845   0.001068
     6  O   -0.007331   0.027805   0.012964   0.187975   0.001068   7.908921
     7  C    0.016236  -0.462495   0.203413  -2.154702   0.446522   0.193821
     8  C   -0.004276  -0.105147   0.035688  -2.401858   0.245571  -0.326305
     9  Cl   0.000489  -0.001208  -0.001864  -0.062727  -0.003758   0.015369
    10  N    0.010547   0.008247  -0.065978   0.809215   0.052960  -0.067805
    11  H    0.427621  -0.074624   0.005157   0.000690   0.000073  -0.000007
    12  H    0.432957  -0.068777  -0.003829   0.000690   0.000023   0.000007
    13  H    0.432957  -0.068775  -0.003830   0.000689   0.000023   0.000007
    14  H   -0.023711   0.394728  -0.045128  -0.012177   0.005492  -0.000217
    15  H   -0.023700   0.394724  -0.045129  -0.012181   0.005493  -0.000218
    16  H    0.000005  -0.000112   0.000047  -0.018884  -0.000696  -0.000737
    17  H    0.000005  -0.000111   0.000047  -0.018872  -0.000693  -0.000737
               7          8          9         10         11         12
     1  C    0.016236  -0.004276   0.000489   0.010547   0.427621   0.432957
     2  C   -0.462495  -0.105147  -0.001208   0.008247  -0.074624  -0.068777
     3  O    0.203413   0.035688  -0.001864  -0.065978   0.005157  -0.003829
     4  C   -2.154702  -2.401858  -0.062727   0.809215   0.000690   0.000690
     5  N    0.446522   0.245571  -0.003758   0.052960   0.000073   0.000023
     6  O    0.193821  -0.326305   0.015369  -0.067805  -0.000007   0.000007
     7  C    9.927828  -2.489775   0.167539   0.174241   0.000322   0.001589
     8  C   -2.489775  11.222608   0.041517  -0.617336   0.000024   0.000094
     9  Cl   0.167539   0.041517  16.914807  -0.000208  -0.000000   0.000000
    10  N    0.174241  -0.617336  -0.000208   7.060338  -0.000216  -0.000317
    11  H    0.000322   0.000024  -0.000000  -0.000216   0.543339  -0.025530
    12  H    0.001589   0.000094   0.000000  -0.000317  -0.025530   0.525132
    13  H    0.001589   0.000094   0.000000  -0.000317  -0.025530  -0.026471
    14  H    0.006052   0.000763  -0.000003  -0.001764  -0.001407   0.004261
    15  H    0.006051   0.000763  -0.000003  -0.001763  -0.001407  -0.005575
    16  H   -0.100063   0.461652  -0.039034  -0.001926  -0.000000   0.000000
    17  H   -0.100152   0.461731  -0.039045  -0.001916  -0.000000  -0.000000
              13         14         15         16         17
     1  C    0.432957  -0.023711  -0.023700   0.000005   0.000005
     2  C   -0.068775   0.394728   0.394724  -0.000112  -0.000111
     3  O   -0.003830  -0.045128  -0.045129   0.000047   0.000047
     4  C    0.000689  -0.012177  -0.012181  -0.018884  -0.018872
     5  N    0.000023   0.005492   0.005493  -0.000696  -0.000693
     6  O    0.000007  -0.000217  -0.000218  -0.000737  -0.000737
     7  C    0.001589   0.006052   0.006051  -0.100063  -0.100152
     8  C    0.000094   0.000763   0.000763   0.461652   0.461731
     9  Cl   0.000000  -0.000003  -0.000003  -0.039034  -0.039045
    10  N   -0.000317  -0.001764  -0.001763  -0.001926  -0.001916
    11  H   -0.025530  -0.001407  -0.001407  -0.000000  -0.000000
    12  H   -0.026471   0.004261  -0.005575   0.000000  -0.000000
    13  H    0.525132  -0.005575   0.004261  -0.000000   0.000000
    14  H   -0.005575   0.561658  -0.041502  -0.000000   0.000000
    15  H    0.004261  -0.041502   0.561658   0.000000  -0.000000
    16  H   -0.000000  -0.000000   0.000000   0.510499  -0.031037
    17  H    0.000000   0.000000  -0.000000  -0.031037   0.510500
 Mulliken charges:
               1
     1  C   -0.595994
     2  C    0.217127
     3  O   -0.370527
     4  C    0.720362
     5  N   -0.555301
     6  O    0.055420
     7  C    0.161984
     8  C   -0.525809
     9  Cl   0.008128
    10  N   -0.356004
    11  H    0.151497
    12  H    0.165745
    13  H    0.165746
    14  H    0.158529
    15  H    0.158529
    16  H    0.220286
    17  H    0.220282
 Sum of Mulliken charges =  -0.00000
 Mulliken charges with hydrogens summed into heavy atoms:
               1
     1  C   -0.113006
     2  C    0.534184
     3  O   -0.370527
     4  C    0.720362
     5  N   -0.555301
     6  O    0.055420
     7  C    0.161984
     8  C   -0.085240
     9  Cl   0.008128
    10  N   -0.356004
 Electronic spatial extent (au):  <R**2>=           2490.6619
 Charge=             -0.0000 electrons
 Dipole moment (field-independent basis, Debye):
    X=              1.0681    Y=              1.4344    Z=              0.0003  Tot=              1.7884
 Quadrupole moment (field-independent basis, Debye-Ang):
   XX=            -52.7941   YY=            -72.4308   ZZ=            -64.0046
   XY=             -6.7039   XZ=             -0.0011   YZ=              0.0009
 Traceless Quadrupole moment (field-independent basis, Debye-Ang):
   XX=             10.2824   YY=             -9.3543   ZZ=             -0.9281
   XY=             -6.7039   XZ=             -0.0011   YZ=              0.0009
 Octapole moment (field-independent basis, Debye-Ang**2):
  XXX=             43.5591  YYY=            -10.6501  ZZZ=              0.0008  XYY=             -9.8264
  XXY=             14.9337  XXZ=              0.0018  XZZ=             -2.3576  YZZ=              2.0444
  YYZ=             -0.0004  XYZ=             -0.0006
 Hexadecapole moment (field-independent basis, Debye-Ang**3):
 XXXX=          -2621.7332 YYYY=           -444.7780 ZZZZ=            -85.5047 XXXY=            -41.9678
 XXXZ=             -0.0079 YYYX=              2.8823 YYYZ=              0.0027 ZZZX=             -0.0025
 ZZZY=              0.0009 XXYY=           -517.0359 XXZZ=           -467.3436 YYZZ=            -84.1299
 XXYZ=              0.0036 YYXZ=              0.0033 ZZXY=             -7.3012
 N-N= 5.921243252423D+02 E-N=-3.337452776206D+03  KE= 9.093241786870D+02
 Unable to Open any file for archive entry.
 1\1\GINC-N2\SP\RB3LYP TD-FC\6-31+G(d,p)\C5H7Cl1N2O2\HPCMGAC13\07-Oct-2
 025\0\\# td=(50-50,nstates=3) b3lyp/6-31+g(d,p) geom=connectivity\\Tit
 le Card Required\\0,1\C,0,4.356433,-0.941047,0.000032\C,0,3.248549,0.0
 92424,-0.000058\O,0,1.986322,-0.624893,0.00002\C,0,0.885935,0.114776,0
 .000004\N,0,0.869618,1.431528,-0.000075\O,0,-0.522432,1.710147,-0.0000
 79\C,0,-1.147406,0.518216,0.000069\C,0,-2.643152,0.583364,0.000164\Cl,
 0,-3.416849,-1.03148,-0.000088\N,0,-0.347247,-0.499882,0.000106\H,0,5.
 327361,-0.43519,-0.000033\H,0,4.297844,-1.576978,0.888209\H,0,4.297822
 ,-1.577156,-0.888017\H,0,3.2825,0.73404,-0.887281\H,0,3.282514,0.73421
 3,0.88704\H,0,-2.985689,1.122977,0.886114\H,0,-2.985783,1.123311,-0.88
 5545\\Version=ES64L-G16RevC.02\State=1-A\HF=-914.8706096\RMSD=4.793e-0
 9\PG=C01 [X(C5H7Cl1N2O2)]\\@
 The archive entry for this job was punched.


 LORD, MAN... WERE YE BUT WHYLES WHERE I AM, 
 THE GENTILES YE WAD NE'ER ENVY 'EM.        
 IT'S TRUE, THEY NEEDNA STARVE OR SWEAT,     
 THRO' WINTER'S CAULD OR SIMMER'S HEAT...  
 THEY'VE NAE SAIR WARK TO CRAZE THEIR BANES, 
 AND FILL AULD AGE WITH GRIPS AN' GRANES...  
                                             
 BUT HUMAN BODIES ARE SIC FOOLS              
 FOR A' THEIR COLLEGES AND SCHOOLS,           
 THAT WHEN NAE REAL ILLS PERPLEX THEM,       
 THEY MAK ENOW THEMSELVES TO VEX THEM,       
 AN' AYE THE LESS THEY HAE TO STURT THEM,    
 IN LIKE PROPORTION LESS WILL HURT THEM....  
                                             
                (ROBERT BURNS 'THE TWA DOGS')
 Job cpu time:       0 days  0 hours 18 minutes  2.9 seconds.
 Elapsed time:       0 days  0 hours  2 minutes 18.7 seconds.
 File lengths (MBytes):  RWF=    392 Int=      0 D2E=      0 Chk=     15 Scr=      2
 Normal termination of Gaussian 16 at Tue Oct  7 12:24:14 2025.
