 Entering Gaussian System, Link 0=g16
 Input=m814e.gjf
 Output=m814e.log
 Initial command:
 /hpc/softwares/Gaussian/g16/l1.exe "/hpc/home/hpcmgac13/pbs.15231.admin1.x8z/Gau-262348.inp" -scrdir="/hpc/home/hpcmgac13/pbs.15231.admin1.x8z/"
 Default linda workers: n2
 Default is to use   8 SMP processors on each worker.
 Entering Link 1 = /hpc/softwares/Gaussian/g16/l1.exe PID=    262349.
  
 Copyright (c) 1988-2021, Gaussian, Inc.  All Rights Reserved.
  
 This is part of the Gaussian(R) 16 program.  It is based on
 the Gaussian(R) 09 system (copyright 2009, Gaussian, Inc.),
 the Gaussian(R) 03 system (copyright 2003, Gaussian, Inc.),
 the Gaussian(R) 98 system (copyright 1998, Gaussian, Inc.),
 the Gaussian(R) 94 system (copyright 1995, Gaussian, Inc.),
 the Gaussian 92(TM) system (copyright 1992, Gaussian, Inc.),
 the Gaussian 90(TM) system (copyright 1990, Gaussian, Inc.),
 the Gaussian 88(TM) system (copyright 1988, Gaussian, Inc.),
 the Gaussian 86(TM) system (copyright 1986, Carnegie Mellon
 University), and the Gaussian 82(TM) system (copyright 1983,
 Carnegie Mellon University). Gaussian is a federally registered
 trademark of Gaussian, Inc.
  
 This software contains proprietary and confidential information,
 including trade secrets, belonging to Gaussian, Inc.
  
 This software is provided under written license and may be
 used, copied, transmitted, or stored only in accord with that
 written license.
  
 The following legend is applicable only to US Government
 contracts under FAR:
  
                    RESTRICTED RIGHTS LEGEND
  
 Use, reproduction and disclosure by the US Government is
 subject to restrictions as set forth in subparagraphs (a)
 and (c) of the Commercial Computer Software - Restricted
 Rights clause in FAR 52.227-19.
  
 Gaussian, Inc.
 340 Quinnipiac St., Bldg. 40, Wallingford CT 06492
  
  
 ---------------------------------------------------------------
 Warning -- This program may not be used in any manner that
 competes with the business of Gaussian, Inc. or will provide
 assistance to any competitor of Gaussian, Inc.  The licensee
 of this program is prohibited from giving any competitor of
 Gaussian, Inc. access to this program.  By using this program,
 the user acknowledges that Gaussian, Inc. is engaged in the
 business of creating and licensing software in the field of
 computational chemistry and represents and warrants to the
 licensee that it is not a competitor of Gaussian, Inc. and that
 it will not use this program in any manner prohibited above.
 ---------------------------------------------------------------
  

 Cite this work as:
 Gaussian 16, Revision C.02,
 M. J. Frisch, G. W. Trucks, H. B. Schlegel, G. E. Scuseria, 
 M. A. Robb, J. R. Cheeseman, G. Scalmani, V. Barone, 
 G. A. Petersson, H. Nakatsuji, X. Li, M. Caricato, A. V. Marenich, 
 J. Bloino, B. G. Janesko, R. Gomperts, B. Mennucci, H. P. Hratchian, 
 J. V. Ortiz, A. F. Izmaylov, J. L. Sonnenberg, D. Williams-Young, 
 F. Ding, F. Lipparini, F. Egidi, J. Goings, B. Peng, A. Petrone, 
 T. Henderson, D. Ranasinghe, V. G. Zakrzewski, J. Gao, N. Rega, 
 G. Zheng, W. Liang, M. Hada, M. Ehara, K. Toyota, R. Fukuda, 
 J. Hasegawa, M. Ishida, T. Nakajima, Y. Honda, O. Kitao, H. Nakai, 
 T. Vreven, K. Throssell, J. A. Montgomery, Jr., J. E. Peralta, 
 F. Ogliaro, M. J. Bearpark, J. J. Heyd, E. N. Brothers, K. N. Kudin, 
 V. N. Staroverov, T. A. Keith, R. Kobayashi, J. Normand, 
 K. Raghavachari, A. P. Rendell, J. C. Burant, S. S. Iyengar, 
 J. Tomasi, M. Cossi, J. M. Millam, M. Klene, C. Adamo, R. Cammi, 
 J. W. Ochterski, R. L. Martin, K. Morokuma, O. Farkas, 
 J. B. Foresman, and D. J. Fox, Gaussian, Inc., Wallingford CT, 2019.
 
 ******************************************
 Gaussian 16:  ES64L-G16RevC.02  7-Dec-2021
                 7-Oct-2025 
 ******************************************
 SetLPE:    new flags="-opt 'Tsnet.Node.lindarsharg: ssh'  -nodelist 'n2.head.cm.mguif.local' -env GAUSS_MDEF=1342177280 -env GAUSS_EXEDIR="/hpc/softwares/Gaussian/g16/bsd:/hpc/softwares/Gaussian/g16""
 Will use up to    1 processors via Linda.
 ----------------------------------------------------------
 # td=(50-50,nstates=3) b3lyp/6-31+g(d,p) geom=connectivity
 ----------------------------------------------------------
 1/38=1,57=2,172=1/1;
 2/12=2,17=6,18=5,40=1/2;
 3/5=1,6=6,7=111,11=9,25=1,30=1,74=-5/1,2,3,8;
 4//1;
 5/5=2,38=5/2;
 8/6=1,10=2,108=3/1;
 9/41=3,42=1,48=2,70=2/14;
 6/7=2,8=2,9=2,10=2/1;
 99/5=1,9=1/99;
 -------------------
 Title Card Required
 -------------------
 Symbolic Z-matrix:
 Charge =  0 Multiplicity = 1
 Cl                   -4.54591  -1.59956   0.61721 
 C                    -3.52119  -0.20092   0.32053 
 C                    -3.84457   1.02148   0.90904 
 C                    -3.02359   2.12248   0.65583 
 C                    -1.90274   2.00045  -0.16784 
 C                    -1.58327   0.76773  -0.75286 
 C                    -0.35566   0.62442  -1.64496 
 C                     0.90046   0.24185  -0.88186 
 C                     1.75726   1.20279  -0.34084 
 F                     1.47945   2.51334  -0.50897 
 C                     2.90858   0.86944   0.36799 
 F                     3.70434   1.82628   0.86717 
 C                     3.23245  -0.47239   0.55538 
 F                     4.3348   -0.81002   1.23564 
 C                     2.40447  -1.46086   0.02802 
 F                     2.71382  -2.75405   0.19863 
 C                     1.26076  -1.09167  -0.67545 
 F                     0.48614  -2.07587  -1.17836 
 C                    -2.40505  -0.33982  -0.50427 
 H                    -4.71859   1.10824   1.54481 
 H                    -3.26494   3.08241   1.10248 
 H                    -1.27492   2.8659   -0.35769 
 H                    -0.54298  -0.13582  -2.40757 
 H                    -0.17169   1.56835  -2.16447 
 H                    -2.18089  -1.30361  -0.94927 
 
                          Input orientation:                          
 ---------------------------------------------------------------------
 Center     Atomic      Atomic             Coordinates (Angstroms)
 Number     Number       Type             X           Y           Z
 ---------------------------------------------------------------------
      1         17           0       -4.545910   -1.599556    0.617210
      2          6           0       -3.521185   -0.200919    0.320526
      3          6           0       -3.844571    1.021480    0.909035
      4          6           0       -3.023595    2.122477    0.655827
      5          6           0       -1.902742    2.000445   -0.167837
      6          6           0       -1.583267    0.767725   -0.752862
      7          6           0       -0.355656    0.624424   -1.644962
      8          6           0        0.900463    0.241848   -0.881859
      9          6           0        1.757262    1.202794   -0.340837
     10          9           0        1.479451    2.513341   -0.508974
     11          6           0        2.908581    0.869443    0.367993
     12          9           0        3.704342    1.826277    0.867168
     13          6           0        3.232450   -0.472388    0.555379
     14          9           0        4.334798   -0.810017    1.235642
     15          6           0        2.404474   -1.460857    0.028018
     16          9           0        2.713816   -2.754052    0.198629
     17          6           0        1.260757   -1.091670   -0.675452
     18          9           0        0.486141   -2.075871   -1.178361
     19          6           0       -2.405049   -0.339824   -0.504268
     20          1           0       -4.718592    1.108244    1.544811
     21          1           0       -3.264937    3.082414    1.102480
     22          1           0       -1.274917    2.865903   -0.357688
     23          1           0       -0.542980   -0.135818   -2.407567
     24          1           0       -0.171685    1.568351   -2.164471
     25          1           0       -2.180888   -1.303613   -0.949270
 ---------------------------------------------------------------------
                    Distance matrix (angstroms):
                    1          2          3          4          5
     1  Cl   0.000000
     2  C    1.759053   0.000000
     3  C    2.728895   1.394697   0.000000
     4  C    4.021500   2.399623   1.396535   0.000000
     5  C    4.534605   2.775583   2.426670   1.396290   0.000000
     6  C    4.032167   2.417842   2.817763   2.427818   1.401398
     7  C    5.255639   3.816400   4.342014   3.828275   2.543385
     8  C    5.941461   4.603558   5.131323   4.615135   3.385329
     9  C    6.964266   5.501801   5.742437   4.969482   3.749907
    10  F    7.381679   5.749925   5.708030   4.667650   3.437829
    11  C    7.856685   6.518421   6.776496   6.069897   4.971429
    12  F    8.936748   7.524399   7.591807   6.737769   5.704468
    13  C    7.859848   6.763168   7.241612   6.773589   5.745271
    14  F    8.937159   7.932522   8.388273   7.942396   6.983936
    15  C    6.976691   6.065183   6.781501   6.534398   5.529112
    16  F    7.362859   6.738589   7.600774   7.543703   6.637179
    17  C    5.970453   4.965116   5.748076   5.518942   4.452704
    18  F    5.363999   4.671271   5.718905   5.771362   4.831591
    19  C    2.725422   1.394754   2.433680   2.791298   2.417097
    20  H    2.867480   2.155589   1.084275   2.166097   3.414410
    21  H    4.878240   3.384877   2.149615   1.085921   2.154051
    22  H    5.620511   3.861488   3.407287   2.153548   1.085921
    23  H    5.226400   4.039361   4.820756   4.542877   3.380675
    24  H    6.075132   4.530417   4.820332   4.049016   2.677650
    25  H    2.852152   2.150514   3.409867   3.876156   3.406582
                    6          7          8          9         10
     6  C    0.000000
     7  C    1.524272   0.000000
     8  C    2.542066   1.518725   0.000000
     9  C    3.393845   2.549446   1.396505   0.000000
    10  F    3.533681   2.868117   2.373594   1.350179   0.000000
    11  C    4.630698   3.842820   2.447150   1.392515   2.348166
    12  F    5.630616   4.923295   3.664867   2.374685   2.704804
    13  C    5.142033   4.349598   2.830892   2.405331   3.622213
    14  F    6.439481   5.688221   4.169519   3.630480   4.716079
    15  C    4.634483   3.842600   2.447270   2.765859   4.115614
    16  F    5.636770   4.922864   3.664849   4.106416   5.456170
    17  C    3.398796   2.549062   1.396670   2.371297   3.615473
    18  F    3.542533   2.866694   2.373057   3.614808   4.742954
    19  C    1.401353   2.535935   3.377473   4.441983   4.819742
    20  H    3.901989   5.426227   6.181678   6.745465   6.678927
    21  H    3.409999   4.696176   5.418208   5.553253   5.042801
    22  H    2.157219   2.743418   3.448579   3.458370   2.780959
    23  H    2.153285   1.092989   2.133997   3.369624   3.835743
    24  H    2.150862   1.093038   2.134058   2.679573   2.521889
    25  H    2.164756   2.744592   3.447857   4.707578   5.306701
                   11         12         13         14         15
    11  C    0.000000
    12  F    1.340874   0.000000
    13  C    1.393024   2.367225   0.000000
    14  F    2.368015   2.735561   1.338627   0.000000
    15  C    2.408320   3.633054   1.393099   2.368143   0.000000
    16  F    3.632676   4.733656   2.366906   2.735370   1.340580
    17  C    2.765875   4.106726   2.405416   3.630611   1.392572
    18  F    4.115131   5.455984   3.622047   4.716138   2.348104
    19  C    5.518861   6.625518   5.737754   6.976669   4.967047
    20  H    7.721120   8.480601   8.166789   9.259545   7.722630
    21  H    6.599169   7.085485   7.426438   8.539597   7.344250
    22  H    4.691921   5.232028   5.682802   6.893475   5.692762
    23  H    4.541757   5.710819   4.811050   6.125376   4.046639
    24  H    4.048442   4.927570   4.811479   6.125830   4.540892
    25  H    5.688589   6.908805   5.679712   6.889967   4.690987
                   16         17         18         19         20
    16  F    0.000000
    17  C    2.374639   0.000000
    18  F    2.705285   1.349666   0.000000
    19  C    5.703099   3.746026   3.439075   0.000000
    20  H    8.483527   6.746985   6.681579   3.412932   0.000000
    21  H    8.403973   6.408270   6.773531   3.877210   2.491208
    22  H    6.913998   4.710945   5.309987   3.402259   4.309033
    23  H    4.924848   2.677189   2.516713   2.670481   5.882577
    24  H    5.709074   3.368201   3.832167   3.374214   5.885986
    25  H    5.232549   3.459020   2.786020   1.084972   4.298539
                   21         22         23         24         25
    21  H    0.000000
    22  H    2.477730   0.000000
    23  H    5.485116   3.707838   0.000000
    24  H    4.746953   2.482987   1.761008   0.000000
    25  H    4.962063   4.307623   2.484576   3.709688   0.000000
 Stoichiometry    C13H6ClF5
 Framework group  C1[X(C13H6ClF5)]
 Deg. of freedom    69
 Full point group                 C1      NOp   1
 Largest Abelian subgroup         C1      NOp   1
 Largest concise Abelian subgroup C1      NOp   1
                         Standard orientation:                         
 ---------------------------------------------------------------------
 Center     Atomic      Atomic             Coordinates (Angstroms)
 Number     Number       Type             X           Y           Z
 ---------------------------------------------------------------------
      1         17           0        4.545910   -1.599556   -0.617210
      2          6           0        3.521185   -0.200919   -0.320526
      3          6           0        3.844571    1.021480   -0.909035
      4          6           0        3.023595    2.122477   -0.655827
      5          6           0        1.902742    2.000445    0.167837
      6          6           0        1.583267    0.767725    0.752862
      7          6           0        0.355656    0.624424    1.644962
      8          6           0       -0.900463    0.241848    0.881859
      9          6           0       -1.757262    1.202794    0.340837
     10          9           0       -1.479451    2.513341    0.508974
     11          6           0       -2.908581    0.869443   -0.367993
     12          9           0       -3.704342    1.826277   -0.867168
     13          6           0       -3.232450   -0.472388   -0.555379
     14          9           0       -4.334798   -0.810017   -1.235642
     15          6           0       -2.404474   -1.460857   -0.028018
     16          9           0       -2.713816   -2.754052   -0.198629
     17          6           0       -1.260757   -1.091670    0.675452
     18          9           0       -0.486141   -2.075871    1.178361
     19          6           0        2.405049   -0.339824    0.504268
     20          1           0        4.718592    1.108244   -1.544811
     21          1           0        3.264937    3.082414   -1.102480
     22          1           0        1.274917    2.865903    0.357688
     23          1           0        0.542980   -0.135818    2.407567
     24          1           0        0.171685    1.568351    2.164471
     25          1           0        2.180888   -1.303613    0.949270
 ---------------------------------------------------------------------
 Rotational constants (GHZ):           0.5516123           0.1877397           0.1560030
 Standard basis: 6-31+G(d,p) (6D, 7F)
 There are   395 symmetry adapted cartesian basis functions of A   symmetry.
 There are   395 symmetry adapted basis functions of A   symmetry.
   395 basis functions,   674 primitive gaussians,   395 cartesian basis functions
    73 alpha electrons       73 beta electrons
       nuclear repulsion energy      1513.9664535532 Hartrees.
 NAtoms=   25 NActive=   25 NUniq=   25 SFac= 1.00D+00 NAtFMM=   60 NAOKFM=F Big=F
 Integral buffers will be    131072 words long.
 Regular integral format.
 Two-electron integral symmetry is turned on.
 One-electron integrals computed using PRISM.
 NBasis=   395 RedAO= T EigKep=  1.04D-06  NBF=   395
 NBsUse=   395 1.00D-06 EigRej= -1.00D+00 NBFU=   395
 ExpMin= 4.38D-02 ExpMax= 2.52D+04 ExpMxC= 3.78D+03 IAcc=3 IRadAn=         5 AccDes= 0.00D+00
 Harris functional with IExCor=  402 and IRadAn=       5 diagonalized for initial guess.
 HarFok:  IExCor=  402 AccDes= 0.00D+00 IRadAn=         5 IDoV= 1 UseB2=F ITyADJ=14
 ICtDFT=  3500011 ScaDFX=  1.000000  1.000000  1.000000  1.000000
 FoFCou: FMM=F IPFlag=           0 FMFlag=      100000 FMFlg1=           0
         NFxFlg=           0 DoJE=T BraDBF=F KetDBF=T FulRan=T
         wScrn=  0.000000 ICntrl=       500 IOpCl=  0 I1Cent=   200000004 NGrid=           0
         NMat0=    1 NMatS0=      1 NMatT0=    0 NMatD0=    1 NMtDS0=    0 NMtDT0=    0
 Petite list used in FoFCou.
 Requested convergence on RMS density matrix=1.00D-08 within 128 cycles.
 Requested convergence on MAX density matrix=1.00D-06.
 Requested convergence on             energy=1.00D-06.
 No special actions if energy rises.
 SCF Done:  E(RB3LYP) =  -1458.41290237     A.U. after   16 cycles
            NFock= 16  Conv=0.16D-08     -V/T= 2.0068
 DoSCS=F DFT=T ScalE2(SS,OS)=  1.000000  1.000000
 ExpMin= 4.38D-02 ExpMax= 2.52D+04 ExpMxC= 3.78D+03 IAcc=3 IRadAn=         5 AccDes= 0.00D+00
 HarFok:  IExCor=  205 AccDes= 0.00D+00 IRadAn=         5 IDoV=-2 UseB2=F ITyADJ=14
 ICtDFT= 12500011 ScaDFX=  1.000000  1.000000  1.000000  1.000000
 GSVD:  LWork=        -713 too small for GESVD, short by        2990 words or        2990 for optimal perf.
 Range of M.O.s used for correlation:    24   395
 NBasis=   395 NAE=    73 NBE=    73 NFC=    23 NFV=     0
 NROrb=    372 NOA=    50 NOB=    50 NVA=   322 NVB=   322

 **** Warning!!: The largest alpha MO coefficient is  0.19546274D+03

 Orbital symmetries:
       Occupied  (A) (A) (A) (A) (A) (A) (A) (A) (A) (A) (A) (A)
                 (A) (A) (A) (A) (A) (A) (A) (A) (A) (A) (A) (A)
                 (A) (A) (A) (A) (A) (A) (A) (A) (A) (A) (A) (A)
                 (A) (A) (A) (A) (A) (A) (A) (A) (A) (A) (A) (A)
                 (A) (A) (A) (A) (A) (A) (A) (A) (A) (A) (A) (A)
                 (A) (A) (A) (A) (A) (A) (A) (A) (A) (A) (A) (A)
                 (A)
       Virtual   (A) (A) (A) (A) (A) (A) (A) (A) (A) (A) (A) (A)
                 (A) (A) (A) (A) (A) (A) (A) (A) (A) (A) (A) (A)
                 (A) (A) (A) (A) (A) (A) (A) (A) (A) (A) (A) (A)
                 (A) (A) (A) (A) (A) (A) (A) (A) (A) (A) (A) (A)
                 (A) (A) (A) (A) (A) (A) (A) (A) (A) (A) (A) (A)
                 (A) (A) (A) (A) (A) (A) (A) (A) (A) (A) (A) (A)
                 (A) (A) (A) (A) (A) (A) (A) (A) (A) (A) (A) (A)
                 (A) (A) (A) (A) (A) (A) (A) (A) (A) (A) (A) (A)
                 (A) (A) (A) (A) (A) (A) (A) (A) (A) (A) (A) (A)
                 (A) (A) (A) (A) (A) (A) (A) (A) (A) (A) (A) (A)
                 (A) (A) (A) (A) (A) (A) (A) (A) (A) (A) (A) (A)
                 (A) (A) (A) (A) (A) (A) (A) (A) (A) (A) (A) (A)
                 (A) (A) (A) (A) (A) (A) (A) (A) (A) (A) (A) (A)
                 (A) (A) (A) (A) (A) (A) (A) (A) (A) (A) (A) (A)
                 (A) (A) (A) (A) (A) (A) (A) (A) (A) (A) (A) (A)
                 (A) (A) (A) (A) (A) (A) (A) (A) (A) (A) (A) (A)
                 (A) (A) (A) (A) (A) (A) (A) (A) (A) (A) (A) (A)
                 (A) (A) (A) (A) (A) (A) (A) (A) (A) (A) (A) (A)
                 (A) (A) (A) (A) (A) (A) (A) (A) (A) (A) (A) (A)
                 (A) (A) (A) (A) (A) (A) (A) (A) (A) (A) (A) (A)
                 (A) (A) (A) (A) (A) (A) (A) (A) (A) (A) (A) (A)
                 (A) (A) (A) (A) (A) (A) (A) (A) (A) (A) (A) (A)
                 (A) (A) (A) (A) (A) (A) (A) (A) (A) (A) (A) (A)
                 (A) (A) (A) (A) (A) (A) (A) (A) (A) (A) (A) (A)
                 (A) (A) (A) (A) (A) (A) (A) (A) (A) (A) (A) (A)
                 (A) (A) (A) (A) (A) (A) (A) (A) (A) (A) (A) (A)
                 (A) (A) (A) (A) (A) (A) (A) (A) (A) (A)
    24 initial guesses have been made.
 Convergence on wavefunction:    0.001000000000000
 Iteration     1 Dimension    24 NMult     0 NNew     24
 CISAX will form    24 AO SS matrices at one time.
 New state      1 was old state     16
 New state      3 was old state     18
 New state      4 was old state     10
 New state      5 was old state     24
 New state      6 was old state      8
 New state      7 was old state      1
 New state      8 was old state     22
 New state      9 was old state      4
 New state     10 was old state      3
 New state     11 was old state     20
 New state     12 was old state     21
 Vector   4 SDiff=1.63D-01 TDiff=7.68D+00 assumed to be singlet.
 Vector   5 SDiff=3.13D-01 TDiff=6.64D+00 assumed to be singlet.
 Vector   6 SDiff=5.37D+00 TDiff=1.60D+00 assumed to be triplet.
 Vector  10 SDiff=1.61D-01 TDiff=6.93D+00 assumed to be singlet.
 Vector  11 SDiff=3.12D-01 TDiff=6.22D+00 assumed to be singlet.
 Vector  12 SDiff=5.54D+00 TDiff=1.47D+00 assumed to be triplet.
 Iteration     2 Dimension    36 NMult    24 NNew     12
 New state      2 was old state      3
 New state      3 was old state      2
 New state      4 was old state      7
 New state      5 was old state     10
 New state      6 was old state     12
 Iteration     3 Dimension    48 NMult    36 NNew     12
 Iteration     4 Dimension    60 NMult    48 NNew     12
 Iteration     5 Dimension    72 NMult    60 NNew     12
 Iteration     6 Dimension    84 NMult    72 NNew     12
 Iteration     7 Dimension    92 NMult    84 NNew      8
 Iteration     8 Dimension    98 NMult    92 NNew      6
 Iteration     9 Dimension   102 NMult    98 NNew      4
 Iteration    10 Dimension   106 NMult   102 NNew      4
 Iteration    11 Dimension   110 NMult   106 NNew      4
 ***********************************************************************
 Excited states from <AA,BB:AA,BB> singles matrix:
 ***********************************************************************
 
 Ground to excited state transition densities written to RWF  633
 Ground to excited state transition electric dipole moments (Au):
       state          X           Y           Z        Dip. S.      Osc.
         1        -0.0000      0.0000     -0.0000      0.0000      0.0000
         2         0.0000      0.0000      0.0000      0.0000      0.0000
         3        -0.0000     -0.0000     -0.0000      0.0000      0.0000
         4        -0.2883     -0.1945      0.0902      0.1291      0.0157
         5        -0.0769     -0.2525      0.0301      0.0706      0.0090
         6        -0.3071     -0.0830     -0.0311      0.1022      0.0131
 Ground to excited state transition velocity dipole moments (Au):
       state          X           Y           Z        Dip. S.      Osc.
         1        -0.0000     -0.0000      0.0000      0.0000      0.0000
         2         0.0000     -0.0000      0.0000      0.0000      0.0000
         3         0.0000     -0.0000     -0.0000      0.0000      0.0000
         4         0.0528      0.0362     -0.0182      0.0044      0.0162
         5         0.0135      0.0490     -0.0058      0.0026      0.0091
         6         0.0551      0.0137      0.0072      0.0033      0.0113
 Ground to excited state transition magnetic dipole moments (Au):
       state          X           Y           Z
         1         0.0000     -0.0000      0.0000
         2        -0.0000      0.0000      0.0000
         3        -0.0000      0.0000     -0.0000
         4        -0.1793      0.1689     -0.1121
         5         0.0875      0.0916     -0.0941
         6         0.0770      0.2259      0.2267
 Ground to excited state transition velocity quadrupole moments (Au):
       state          XX          YY          ZZ          XY          XZ          YZ
         1        -0.0000     -0.0000     -0.0000      0.0000      0.0000      0.0000
         2        -0.0000      0.0000      0.0000      0.0000     -0.0000      0.0000
         3         0.0000     -0.0000      0.0000     -0.0000     -0.0000     -0.0000
         4         0.1231      0.1258     -0.0075      0.2034     -0.1145     -0.0273
         5         0.0260      0.0113      0.0032     -0.0329     -0.0040     -0.0064
         6        -0.0981      0.0379      0.0071      0.2305     -0.0452     -0.0013
 <0|del|b> * <b|rxdel|0> + <0|del|b> * <b|delr+rdel|0>
 Rotatory Strengths (R) in cgs (10**-40 erg-esu-cm/Gauss)
       state          XX          YY          ZZ    R(velocity)    E-M Angle
         1         0.0000     -0.0000     -0.0000      0.0000       90.00
         2        -0.0000     -0.0000      0.0000     -0.0000       90.00
         3         0.0000     -0.0000      0.0000      0.0000       90.00
         4        16.6757    -10.0470    -11.7345     -1.7020       94.19
         5        10.0186      2.6798     10.2774      7.6586       39.67
         6        12.9116      7.6129     12.4776     11.0007       61.53
 1/2[<0|r|b>*<b|rxdel|0> + (<0|rxdel|b>*<b|r|0>)*]
 Rotatory Strengths (R) in cgs (10**-40 erg-esu-cm/Gauss)
       state          XX          YY          ZZ     R(length)
         1         0.0000      0.0000      0.0000      0.0000
         2         0.0000     -0.0000     -0.0000     -0.0000
         3        -0.0000      0.0000     -0.0000      0.0000
         4       -36.5500     23.2338      7.1533     -2.0543
         5         4.7625     16.3478      2.0006      7.7036
         6        16.7309     13.2510      4.9835     11.6551
  1/2[<0|del|b>*<b|r|0> + (<0|r|b>*<b|del|0>)*] (Au)
       state          X           Y           Z        Dip. S.   Osc.(frdel)
         1         0.0000     -0.0000     -0.0000      0.0000      0.0000
         2         0.0000     -0.0000      0.0000      0.0000      0.0000
         3        -0.0000      0.0000      0.0000      0.0000      0.0000
         4        -0.0152     -0.0070     -0.0016      0.0239      0.0159
         5        -0.0010     -0.0124     -0.0002      0.0136      0.0091
         6        -0.0169     -0.0011     -0.0002      0.0183      0.0122

 Excitation energies and oscillator strengths:
 
 Excited State   1:      Triplet-A      3.6175 eV  342.73 nm  f=0.0000  <S**2>=2.000
      70 -> 78        -0.12705
      72 -> 74        -0.24598
      72 -> 76         0.15359
      72 -> 77         0.22190
      72 -> 78         0.20303
      73 -> 74        -0.20909
      73 -> 76        -0.24685
      73 -> 77        -0.28164
      73 -> 78         0.29848
 This state for optimization and/or second-order correction.
 Total Energy, E(TD-HF/TD-DFT) =  -1458.27996045    
 Copying the excited state density for this state as the 1-particle RhoCI density.
 
 Excited State   2:      Triplet-A      3.6999 eV  335.10 nm  f=0.0000  <S**2>=2.000
      70 -> 74         0.41783
      70 -> 78         0.14298
      71 -> 76        -0.39480
      71 -> 77         0.25572
      72 -> 74         0.16562
      72 -> 78         0.12046
 
 Excited State   3:      Triplet-A      4.3972 eV  281.96 nm  f=0.0000  <S**2>=2.000
      72 -> 76         0.15279
      72 -> 77         0.17513
      73 -> 74         0.41135
      73 -> 75        -0.11762
      73 -> 76        -0.22643
      73 -> 77        -0.31047
      73 -> 78        -0.29630
 
 Excited State   4:      Singlet-A      4.9655 eV  249.69 nm  f=0.0157  <S**2>=0.000
      72 -> 74        -0.12766
      72 -> 76        -0.16204
      72 -> 77        -0.15106
      72 -> 78         0.14027
      73 -> 74         0.58138
      73 -> 76        -0.15603
      73 -> 77        -0.16633
      73 -> 78        -0.10821
 
 Excited State   5:      Singlet-A      5.2028 eV  238.30 nm  f=0.0090  <S**2>=0.000
      70 -> 76         0.26689
      70 -> 77        -0.15906
      71 -> 74         0.51503
      71 -> 78         0.11132
      72 -> 74         0.10670
      72 -> 76         0.19471
      73 -> 74         0.13918
      73 -> 76         0.17775
 
 Excited State   6:      Singlet-A      5.2336 eV  236.90 nm  f=0.0131  <S**2>=0.000
      70 -> 76        -0.13245
      71 -> 74        -0.18879
      72 -> 74         0.25809
      72 -> 77         0.12916
      72 -> 78        -0.11626
      73 -> 74         0.30839
      73 -> 75         0.34272
      73 -> 76         0.17748
      73 -> 77         0.21090
      73 -> 78         0.22185
 SavETr:  write IOETrn=   770 NScale= 10 NData=  16 NLR=1 NState=    6 LETran=     118.

 **********************************************************************

            Population analysis using the SCF Density.

 **********************************************************************

 Orbital symmetries:
       Occupied  (A) (A) (A) (A) (A) (A) (A) (A) (A) (A) (A) (A)
                 (A) (A) (A) (A) (A) (A) (A) (A) (A) (A) (A) (A)
                 (A) (A) (A) (A) (A) (A) (A) (A) (A) (A) (A) (A)
                 (A) (A) (A) (A) (A) (A) (A) (A) (A) (A) (A) (A)
                 (A) (A) (A) (A) (A) (A) (A) (A) (A) (A) (A) (A)
                 (A) (A) (A) (A) (A) (A) (A) (A) (A) (A) (A) (A)
                 (A)
       Virtual   (A) (A) (A) (A) (A) (A) (A) (A) (A) (A) (A) (A)
                 (A) (A) (A) (A) (A) (A) (A) (A) (A) (A) (A) (A)
                 (A) (A) (A) (A) (A) (A) (A) (A) (A) (A) (A) (A)
                 (A) (A) (A) (A) (A) (A) (A) (A) (A) (A) (A) (A)
                 (A) (A) (A) (A) (A) (A) (A) (A) (A) (A) (A) (A)
                 (A) (A) (A) (A) (A) (A) (A) (A) (A) (A) (A) (A)
                 (A) (A) (A) (A) (A) (A) (A) (A) (A) (A) (A) (A)
                 (A) (A) (A) (A) (A) (A) (A) (A) (A) (A) (A) (A)
                 (A) (A) (A) (A) (A) (A) (A) (A) (A) (A) (A) (A)
                 (A) (A) (A) (A) (A) (A) (A) (A) (A) (A) (A) (A)
                 (A) (A) (A) (A) (A) (A) (A) (A) (A) (A) (A) (A)
                 (A) (A) (A) (A) (A) (A) (A) (A) (A) (A) (A) (A)
                 (A) (A) (A) (A) (A) (A) (A) (A) (A) (A) (A) (A)
                 (A) (A) (A) (A) (A) (A) (A) (A) (A) (A) (A) (A)
                 (A) (A) (A) (A) (A) (A) (A) (A) (A) (A) (A) (A)
                 (A) (A) (A) (A) (A) (A) (A) (A) (A) (A) (A) (A)
                 (A) (A) (A) (A) (A) (A) (A) (A) (A) (A) (A) (A)
                 (A) (A) (A) (A) (A) (A) (A) (A) (A) (A) (A) (A)
                 (A) (A) (A) (A) (A) (A) (A) (A) (A) (A) (A) (A)
                 (A) (A) (A) (A) (A) (A) (A) (A) (A) (A) (A) (A)
                 (A) (A) (A) (A) (A) (A) (A) (A) (A) (A) (A) (A)
                 (A) (A) (A) (A) (A) (A) (A) (A) (A) (A) (A) (A)
                 (A) (A) (A) (A) (A) (A) (A) (A) (A) (A) (A) (A)
                 (A) (A) (A) (A) (A) (A) (A) (A) (A) (A) (A) (A)
                 (A) (A) (A) (A) (A) (A) (A) (A) (A) (A) (A) (A)
                 (A) (A) (A) (A) (A) (A) (A) (A) (A) (A) (A) (A)
                 (A) (A) (A) (A) (A) (A) (A) (A) (A) (A)
 The electronic state is 1-A.
 Alpha  occ. eigenvalues -- -101.56196 -24.76840 -24.76558 -24.76517 -24.76452
 Alpha  occ. eigenvalues --  -24.76403 -10.33106 -10.32674 -10.32661 -10.32539
 Alpha  occ. eigenvalues --  -10.32524 -10.26983 -10.25777 -10.23584 -10.23214
 Alpha  occ. eigenvalues --  -10.21980 -10.21933 -10.21923 -10.21471  -9.47703
 Alpha  occ. eigenvalues --   -7.24110  -7.23139  -7.23108  -1.28536  -1.27841
 Alpha  occ. eigenvalues --   -1.27292  -1.26504  -1.26228  -0.92630  -0.90621
 Alpha  occ. eigenvalues --   -0.86049  -0.83145  -0.80152  -0.78677  -0.75426
 Alpha  occ. eigenvalues --   -0.72863  -0.68482  -0.67416  -0.63074  -0.61796
 Alpha  occ. eigenvalues --   -0.61271  -0.60730  -0.59065  -0.56758  -0.56038
 Alpha  occ. eigenvalues --   -0.54522  -0.54331  -0.53385  -0.51654  -0.50729
 Alpha  occ. eigenvalues --   -0.49393  -0.48870  -0.48475  -0.47970  -0.47826
 Alpha  occ. eigenvalues --   -0.46390  -0.46011  -0.44632  -0.44397  -0.43818
 Alpha  occ. eigenvalues --   -0.42343  -0.41921  -0.40514  -0.40295  -0.38823
 Alpha  occ. eigenvalues --   -0.37379  -0.36861  -0.34359  -0.32410  -0.28681
 Alpha  occ. eigenvalues --   -0.27983  -0.27486  -0.26119
 Alpha virt. eigenvalues --   -0.05380  -0.04569  -0.04143  -0.03426  -0.03136
 Alpha virt. eigenvalues --   -0.00265   0.00437   0.00794   0.01258   0.02849
 Alpha virt. eigenvalues --    0.03177   0.03580   0.03824   0.04543   0.04680
 Alpha virt. eigenvalues --    0.05954   0.06632   0.06722   0.07174   0.07438
 Alpha virt. eigenvalues --    0.07919   0.08581   0.08642   0.09431   0.10393
 Alpha virt. eigenvalues --    0.10599   0.10702   0.10942   0.11648   0.11679
 Alpha virt. eigenvalues --    0.11968   0.12443   0.13077   0.13234   0.14057
 Alpha virt. eigenvalues --    0.14254   0.14362   0.15257   0.15529   0.15914
 Alpha virt. eigenvalues --    0.16223   0.16594   0.16822   0.17168   0.17721
 Alpha virt. eigenvalues --    0.17935   0.18356   0.18563   0.18963   0.19538
 Alpha virt. eigenvalues --    0.19789   0.20116   0.20908   0.21090   0.21553
 Alpha virt. eigenvalues --    0.21736   0.22300   0.22693   0.23388   0.23544
 Alpha virt. eigenvalues --    0.24276   0.24357   0.24888   0.25350   0.25512
 Alpha virt. eigenvalues --    0.26235   0.26812   0.26981   0.27554   0.28570
 Alpha virt. eigenvalues --    0.28960   0.29302   0.29678   0.30034   0.30453
 Alpha virt. eigenvalues --    0.31050   0.31201   0.31880   0.32468   0.32960
 Alpha virt. eigenvalues --    0.33528   0.34111   0.34709   0.35048   0.35155
 Alpha virt. eigenvalues --    0.35923   0.37174   0.37274   0.37940   0.38466
 Alpha virt. eigenvalues --    0.39216   0.39849   0.40356   0.41179   0.41729
 Alpha virt. eigenvalues --    0.42889   0.43104   0.43804   0.46904   0.46977
 Alpha virt. eigenvalues --    0.51334   0.51646   0.52117   0.53050   0.53834
 Alpha virt. eigenvalues --    0.55481   0.59467   0.61087   0.61523   0.61929
 Alpha virt. eigenvalues --    0.62287   0.63032   0.65907   0.66731   0.67765
 Alpha virt. eigenvalues --    0.68750   0.68828   0.69068   0.70065   0.70997
 Alpha virt. eigenvalues --    0.71395   0.72490   0.72691   0.73320   0.75327
 Alpha virt. eigenvalues --    0.75970   0.76608   0.77610   0.78123   0.79325
 Alpha virt. eigenvalues --    0.80465   0.82342   0.82746   0.83466   0.84355
 Alpha virt. eigenvalues --    0.86916   0.87916   0.90990   0.91016   0.92877
 Alpha virt. eigenvalues --    0.93179   0.93479   0.95451   0.95530   0.97199
 Alpha virt. eigenvalues --    0.97486   0.99338   1.00093   1.02256   1.03507
 Alpha virt. eigenvalues --    1.06233   1.07935   1.09398   1.10235   1.10986
 Alpha virt. eigenvalues --    1.12156   1.13986   1.14371   1.18106   1.19032
 Alpha virt. eigenvalues --    1.19337   1.19972   1.21013   1.22338   1.22941
 Alpha virt. eigenvalues --    1.24036   1.24647   1.27288   1.27784   1.27987
 Alpha virt. eigenvalues --    1.29721   1.30417   1.31352   1.32225   1.34925
 Alpha virt. eigenvalues --    1.36148   1.37777   1.39341   1.40348   1.42260
 Alpha virt. eigenvalues --    1.46673   1.49410   1.50706   1.52959   1.57217
 Alpha virt. eigenvalues --    1.58820   1.59164   1.60274   1.61277   1.61978
 Alpha virt. eigenvalues --    1.63048   1.64026   1.64419   1.64778   1.65247
 Alpha virt. eigenvalues --    1.69673   1.69894   1.70295   1.70832   1.73848
 Alpha virt. eigenvalues --    1.74520   1.74790   1.75057   1.75370   1.75738
 Alpha virt. eigenvalues --    1.76157   1.76778   1.78455   1.80431   1.80608
 Alpha virt. eigenvalues --    1.80804   1.80936   1.81902   1.82325   1.82402
 Alpha virt. eigenvalues --    1.82716   1.86622   1.87047   1.87103   1.87296
 Alpha virt. eigenvalues --    1.88266   1.90657   1.90910   1.94013   1.95918
 Alpha virt. eigenvalues --    1.96964   1.98070   1.99053   1.99654   2.00289
 Alpha virt. eigenvalues --    2.02088   2.03248   2.06035   2.07256   2.09781
 Alpha virt. eigenvalues --    2.11676   2.11836   2.13073   2.16094   2.16681
 Alpha virt. eigenvalues --    2.19905   2.22169   2.22641   2.24034   2.24361
 Alpha virt. eigenvalues --    2.24517   2.28416   2.28867   2.29725   2.30613
 Alpha virt. eigenvalues --    2.32508   2.32626   2.33424   2.33688   2.35264
 Alpha virt. eigenvalues --    2.37258   2.37556   2.39165   2.39380   2.43795
 Alpha virt. eigenvalues --    2.44451   2.44725   2.46943   2.50374   2.52122
 Alpha virt. eigenvalues --    2.52746   2.53511   2.56234   2.57788   2.61230
 Alpha virt. eigenvalues --    2.62014   2.62738   2.64242   2.64458   2.69402
 Alpha virt. eigenvalues --    2.70292   2.71460   2.72147   2.76857   2.80862
 Alpha virt. eigenvalues --    2.81123   2.84728   2.86326   2.94600   2.99321
 Alpha virt. eigenvalues --    3.04754   3.06977   3.07604   3.12841   3.16452
 Alpha virt. eigenvalues --    3.17861   3.20652   3.25833   3.27353   3.28248
 Alpha virt. eigenvalues --    3.33701   3.34607   3.37961   3.40636   3.46008
 Alpha virt. eigenvalues --    3.52354   3.59168   3.79509   4.23648   4.24844
 Alpha virt. eigenvalues --    4.26045   4.28865   4.31089   4.36152   4.39529
 Alpha virt. eigenvalues --    4.44026   4.47462   4.51488   4.52484   4.62278
 Alpha virt. eigenvalues --    4.81562   4.89752   5.36409   5.92750   6.45022
 Alpha virt. eigenvalues --    6.90706   8.00831
          Condensed to atoms (all electrons):
               1          2          3          4          5          6
     1  Cl  17.049750  -0.037593  -0.180163   0.090408  -0.018491  -0.062148
     2  C   -0.037593   7.947931   0.051788   0.294365   1.559244   0.891313
     3  C   -0.180163   0.051788   6.776795   0.151982   0.243155   0.092610
     4  C    0.090408   0.294365   0.151982   6.253856  -0.218329  -0.248861
     5  C   -0.018491   1.559244   0.243155  -0.218329  20.432298  -2.713380
     6  C   -0.062148   0.891313   0.092610  -0.248861  -2.713380  15.279519
     7  C   -0.055789  -1.034410   0.337036  -0.357780   0.274374  -2.324044
     8  C   -0.007252   0.044338  -0.052866  -0.055839  -0.176705   0.491335
     9  C   -0.005662   0.252961   0.026056   0.216578   1.521639  -0.148264
    10  F   -0.000017  -0.004453  -0.001262  -0.000181  -0.011555   0.019101
    11  C    0.000259  -0.089587  -0.015615  -0.067848  -0.525578   0.290982
    12  F   -0.000001  -0.000369  -0.000009  -0.000841  -0.006095   0.004348
    13  C    0.000153   0.040175  -0.003153   0.028765  -0.034785   0.032851
    14  F   -0.000002  -0.000180   0.000043  -0.000103  -0.000078   0.000292
    15  C   -0.005617  -0.049488   0.010656  -0.047416   0.464400   0.271162
    16  F   -0.000077  -0.000094   0.000177  -0.000120   0.001564   0.005051
    17  C    0.017998  -0.013945   0.004730   0.036773  -1.600065  -0.454054
    18  F   -0.001438   0.011996   0.003248  -0.002726  -0.019589   0.017790
    19  C   -0.019237  -4.041859  -1.378023  -0.147105 -13.497473  -5.069652
    20  H   -0.009447   0.045243   0.215798  -0.035918  -0.006791  -0.004350
    21  H    0.001213   0.010924  -0.035215   0.281442   0.021754   0.022711
    22  H    0.000248   0.025266  -0.015364   0.059876   0.122728   0.118329
    23  H    0.000549  -0.018704  -0.001748  -0.007899  -0.265357  -0.240171
    24  H   -0.000266   0.001688   0.008442   0.018741   0.364339  -0.203045
    25  H    0.002892   0.153814   0.050341   0.004134   0.045826   0.152427
               7          8          9         10         11         12
     1  Cl  -0.055789  -0.007252  -0.005662  -0.000017   0.000259  -0.000001
     2  C   -1.034410   0.044338   0.252961  -0.004453  -0.089587  -0.000369
     3  C    0.337036  -0.052866   0.026056  -0.001262  -0.015615  -0.000009
     4  C   -0.357780  -0.055839   0.216578  -0.000181  -0.067848  -0.000841
     5  C    0.274374  -0.176705   1.521639  -0.011555  -0.525578  -0.006095
     6  C   -2.324044   0.491335  -0.148264   0.019101   0.290982   0.004348
     7  C    8.735262  -1.336138  -0.380630  -0.052732  -0.051441  -0.002218
     8  C   -1.336138  13.536007  -3.350980  -0.069536   0.964660  -0.110076
     9  C   -0.380630  -3.350980  17.150991   0.155156  -5.328374   0.032987
    10  F   -0.052732  -0.069536   0.155156   9.406947   0.071752  -0.013155
    11  C   -0.051441   0.964660  -5.328374   0.071752  12.706583   0.019382
    12  F   -0.002218  -0.110076   0.032987  -0.013155   0.019382   9.425394
    13  C   -0.024964  -1.916478   1.150759  -0.044237  -2.318427   0.054940
    14  F    0.000732   0.030977  -0.102542  -0.000026   0.065232  -0.014240
    15  C    0.001936   0.960826  -2.108178   0.028521   1.365086  -0.096531
    16  F   -0.002788  -0.114496   0.048402   0.000064  -0.098701   0.000039
    17  C   -0.224168  -3.263727  -0.570287  -0.144571  -2.072853   0.046674
    18  F   -0.053674  -0.063639  -0.144304  -0.000631   0.028654   0.000064
    19  C    1.539984  -0.168774  -1.874954  -0.009919   0.492830   0.002155
    20  H    0.002726  -0.000349  -0.000442   0.000000   0.000055  -0.000000
    21  H   -0.008291  -0.001297  -0.000518  -0.000020   0.000140   0.000000
    22  H   -0.044463  -0.027270   0.062354  -0.001030  -0.008562  -0.000002
    23  H    0.460472  -0.077106  -0.111047  -0.000305   0.015939   0.000006
    24  H    0.446011  -0.077689   0.123138   0.008124  -0.013313  -0.000009
    25  H   -0.055753  -0.026121  -0.005316  -0.000016  -0.001677   0.000000
              13         14         15         16         17         18
     1  Cl   0.000153  -0.000002  -0.005617  -0.000077   0.017998  -0.001438
     2  C    0.040175  -0.000180  -0.049488  -0.000094  -0.013945   0.011996
     3  C   -0.003153   0.000043   0.010656   0.000177   0.004730   0.003248
     4  C    0.028765  -0.000103  -0.047416  -0.000120   0.036773  -0.002726
     5  C   -0.034785  -0.000078   0.464400   0.001564  -1.600065  -0.019589
     6  C    0.032851   0.000292   0.271162   0.005051  -0.454054   0.017790
     7  C   -0.024964   0.000732   0.001936  -0.002788  -0.224168  -0.053674
     8  C   -1.916478   0.030977   0.960826  -0.114496  -3.263727  -0.063639
     9  C    1.150759  -0.102542  -2.108178   0.048402  -0.570287  -0.144304
    10  F   -0.044237  -0.000026   0.028521   0.000064  -0.144571  -0.000631
    11  C   -2.318427   0.065232   1.365086  -0.098701  -2.072853   0.028654
    12  F    0.054940  -0.014240  -0.096531   0.000039   0.046674   0.000064
    13  C    9.965965  -0.007300  -2.288718   0.058132   1.131465  -0.045091
    14  F   -0.007300   9.412615   0.065105  -0.014257  -0.101838  -0.000019
    15  C   -2.288718   0.065105  12.703267   0.015423  -5.332069   0.058889
    16  F    0.058132  -0.014257   0.015423   9.424197   0.039242  -0.013060
    17  C    1.131465  -0.101838  -5.332069   0.039242  17.039384   0.164002
    18  F   -0.045091  -0.000019   0.058889  -0.013060   0.164002   9.405427
    19  C   -0.072473   0.000168  -0.599562  -0.007014   1.840193  -0.018034
    20  H   -0.000023   0.000000   0.000084  -0.000000  -0.000208   0.000000
    21  H    0.000049  -0.000000  -0.000104   0.000000   0.000908   0.000000
    22  H    0.001864  -0.000000  -0.002127   0.000000  -0.008509  -0.000019
    23  H   -0.002250   0.000001  -0.010154  -0.000009   0.110823   0.008278
    24  H   -0.000788   0.000001   0.012784   0.000005  -0.108543  -0.000290
    25  H    0.001604  -0.000000  -0.008501  -0.000002   0.054239  -0.000861
              19         20         21         22         23         24
     1  Cl  -0.019237  -0.009447   0.001213   0.000248   0.000549  -0.000266
     2  C   -4.041859   0.045243   0.010924   0.025266  -0.018704   0.001688
     3  C   -1.378023   0.215798  -0.035215  -0.015364  -0.001748   0.008442
     4  C   -0.147105  -0.035918   0.281442   0.059876  -0.007899   0.018741
     5  C  -13.497473  -0.006791   0.021754   0.122728  -0.265357   0.364339
     6  C   -5.069652  -0.004350   0.022711   0.118329  -0.240171  -0.203045
     7  C    1.539984   0.002726  -0.008291  -0.044463   0.460472   0.446011
     8  C   -0.168774  -0.000349  -0.001297  -0.027270  -0.077106  -0.077689
     9  C   -1.874954  -0.000442  -0.000518   0.062354  -0.111047   0.123138
    10  F   -0.009919   0.000000  -0.000020  -0.001030  -0.000305   0.008124
    11  C    0.492830   0.000055   0.000140  -0.008562   0.015939  -0.013313
    12  F    0.002155  -0.000000   0.000000  -0.000002   0.000006  -0.000009
    13  C   -0.072473  -0.000023   0.000049   0.001864  -0.002250  -0.000788
    14  F    0.000168   0.000000  -0.000000  -0.000000   0.000001   0.000001
    15  C   -0.599562   0.000084  -0.000104  -0.002127  -0.010154   0.012784
    16  F   -0.007014  -0.000000   0.000000   0.000000  -0.000009   0.000005
    17  C    1.840193  -0.000208   0.000908  -0.008509   0.110823  -0.108543
    18  F   -0.018034   0.000000   0.000000  -0.000019   0.008278  -0.000290
    19  C   28.788880   0.106434   0.018899   0.015331   0.447570  -0.270932
    20  H    0.106434   0.546338  -0.005632  -0.000141  -0.000000  -0.000000
    21  H    0.018899  -0.005632   0.561503  -0.005433   0.000002  -0.000003
    22  H    0.015331  -0.000141  -0.005433   0.572876   0.000088   0.002667
    23  H    0.447570  -0.000000   0.000002   0.000088   0.559961  -0.034051
    24  H   -0.270932  -0.000000  -0.000003   0.002667  -0.034051   0.560079
    25  H   -0.066129  -0.000157   0.000014  -0.000141   0.002326   0.000100
              25
     1  Cl   0.002892
     2  C    0.153814
     3  C    0.050341
     4  C    0.004134
     5  C    0.045826
     6  C    0.152427
     7  C   -0.055753
     8  C   -0.026121
     9  C   -0.005316
    10  F   -0.000016
    11  C   -0.001677
    12  F    0.000000
    13  C    0.001604
    14  F   -0.000000
    15  C   -0.008501
    16  F   -0.000002
    17  C    0.054239
    18  F   -0.000861
    19  C   -0.066129
    20  H   -0.000157
    21  H    0.000014
    22  H   -0.000141
    23  H    0.002326
    24  H    0.000100
    25  H    0.552322
 Mulliken charges:
               1
     1  Cl   0.239731
     2  C   -0.040364
     3  C   -0.289438
     4  C   -0.245956
     5  C    0.042949
     6  C   -0.221852
     7  C    0.210747
     8  C    0.868192
     9  C   -0.609525
    10  F   -0.336020
    11  C    0.570422
    12  F   -0.342442
    13  C    0.291963
    14  F   -0.334582
    15  C    0.590326
    16  F   -0.341680
    17  C   -0.591596
    18  F   -0.334976
    19  C   -0.011302
    20  H    0.146779
    21  H    0.136954
    22  H    0.131436
    23  H    0.162785
    24  H    0.162811
    25  H    0.144635
 Sum of Mulliken charges =  -0.00000
 Mulliken charges with hydrogens summed into heavy atoms:
               1
     1  Cl   0.239731
     2  C   -0.040364
     3  C   -0.142659
     4  C   -0.109002
     5  C    0.174386
     6  C   -0.221852
     7  C    0.536344
     8  C    0.868192
     9  C   -0.609525
    10  F   -0.336020
    11  C    0.570422
    12  F   -0.342442
    13  C    0.291963
    14  F   -0.334582
    15  C    0.590326
    16  F   -0.341680
    17  C   -0.591596
    18  F   -0.334976
    19  C    0.133333
 Electronic spatial extent (au):  <R**2>=           6352.1884
 Charge=             -0.0000 electrons
 Dipole moment (field-independent basis, Debye):
    X=              0.7890    Y=              1.9512    Z=              1.2422  Tot=              2.4440
 Quadrupole moment (field-independent basis, Debye-Ang):
   XX=           -123.2880   YY=           -116.9542   ZZ=           -110.1886
   XY=              5.8965   XZ=             -5.2294   YZ=             -1.2169
 Traceless Quadrupole moment (field-independent basis, Debye-Ang):
   XX=             -6.4777   YY=             -0.1440   ZZ=              6.6217
   XY=              5.8965   XZ=             -5.2294   YZ=             -1.2169
 Octapole moment (field-independent basis, Debye-Ang**2):
  XXX=            -53.7115  YYY=             -0.4612  ZZZ=             -2.0179  XYY=              3.1133
  XXY=             15.4016  XXZ=             -0.8824  XZZ=            -20.5827  YZZ=             -3.0862
  YYZ=             -6.1569  XYZ=            -10.6514
 Hexadecapole moment (field-independent basis, Debye-Ang**3):
 XXXX=          -5912.2328 YYYY=          -1609.5223 ZZZZ=           -531.1011 XXXY=             61.8263
 XXXZ=           -101.0524 YYYX=             -5.9487 YYYZ=            -13.8256 ZZZX=             45.4209
 ZZZY=             -4.1679 XXYY=          -1240.6089 XXZZ=          -1037.4167 YYZZ=           -354.0881
 XXYZ=            -46.3780 YYXZ=             -9.9919 ZZXY=             -1.7155
 N-N= 1.513966453553D+03 E-N=-6.463630335934D+03  KE= 1.448511996578D+03
 Unable to Open any file for archive entry.
 1\1\GINC-N2\SP\RB3LYP TD-FC\6-31+G(d,p)\C13H6Cl1F5\HPCMGAC13\07-Oct-20
 25\0\\# td=(50-50,nstates=3) b3lyp/6-31+g(d,p) geom=connectivity\\Titl
 e Card Required\\0,1\Cl,0,-4.54591,-1.599556,0.61721\C,0,-3.521185,-0.
 200919,0.320526\C,0,-3.844571,1.02148,0.909035\C,0,-3.023595,2.122477,
 0.655827\C,0,-1.902742,2.000445,-0.167837\C,0,-1.583267,0.767725,-0.75
 2862\C,0,-0.355656,0.624424,-1.644962\C,0,0.900463,0.241848,-0.881859\
 C,0,1.757262,1.202794,-0.340837\F,0,1.479451,2.513341,-0.508974\C,0,2.
 908581,0.869443,0.367993\F,0,3.704342,1.826277,0.867168\C,0,3.23245,-0
 .472388,0.555379\F,0,4.334798,-0.810017,1.235642\C,0,2.404474,-1.46085
 7,0.028018\F,0,2.713816,-2.754052,0.198629\C,0,1.260757,-1.09167,-0.67
 5452\F,0,0.486141,-2.075871,-1.178361\C,0,-2.405049,-0.339824,-0.50426
 8\H,0,-4.718592,1.108244,1.544811\H,0,-3.264937,3.082414,1.10248\H,0,-
 1.274917,2.865903,-0.357688\H,0,-0.54298,-0.135818,-2.407567\H,0,-0.17
 1685,1.568351,-2.164471\H,0,-2.180888,-1.303613,-0.94927\\Version=ES64
 L-G16RevC.02\State=1-A\HF=-1458.4129024\RMSD=1.630e-09\PG=C01 [X(C13H6
 Cl1F5)]\\@
 The archive entry for this job was punched.


 BE CAREFUL NOT TO BECOME TOO GOOD OF A SONGBIRD OR 
 THEY'LL THROW YOU INTO A CAGE.

                                    -- SNOOPY TO WOODSTOCK
 Job cpu time:       0 days  1 hours 37 minutes 45.1 seconds.
 Elapsed time:       0 days  0 hours 12 minutes 27.0 seconds.
 File lengths (MBytes):  RWF=    999 Int=      0 D2E=      0 Chk=     42 Scr=      2
 Normal termination of Gaussian 16 at Tue Oct  7 12:36:50 2025.
