 Entering Gaussian System, Link 0=g16
 Input=M817E.gjf
 Output=M817E.log
 Initial command:
 /hpc/softwares/Gaussian/g16/l1.exe "/hpc/home/hpcmgac13/pbs.13417.admin1.x8z/Gau-3285728.inp" -scrdir="/hpc/home/hpcmgac13/pbs.13417.admin1.x8z/"
 Default linda workers: n2
 Default is to use  16 SMP processors on each worker.
 Entering Link 1 = /hpc/softwares/Gaussian/g16/l1.exe PID=   3285729.
  
 Copyright (c) 1988-2021, Gaussian, Inc.  All Rights Reserved.
  
 This is part of the Gaussian(R) 16 program.  It is based on
 the Gaussian(R) 09 system (copyright 2009, Gaussian, Inc.),
 the Gaussian(R) 03 system (copyright 2003, Gaussian, Inc.),
 the Gaussian(R) 98 system (copyright 1998, Gaussian, Inc.),
 the Gaussian(R) 94 system (copyright 1995, Gaussian, Inc.),
 the Gaussian 92(TM) system (copyright 1992, Gaussian, Inc.),
 the Gaussian 90(TM) system (copyright 1990, Gaussian, Inc.),
 the Gaussian 88(TM) system (copyright 1988, Gaussian, Inc.),
 the Gaussian 86(TM) system (copyright 1986, Carnegie Mellon
 University), and the Gaussian 82(TM) system (copyright 1983,
 Carnegie Mellon University). Gaussian is a federally registered
 trademark of Gaussian, Inc.
  
 This software contains proprietary and confidential information,
 including trade secrets, belonging to Gaussian, Inc.
  
 This software is provided under written license and may be
 used, copied, transmitted, or stored only in accord with that
 written license.
  
 The following legend is applicable only to US Government
 contracts under FAR:
  
                    RESTRICTED RIGHTS LEGEND
  
 Use, reproduction and disclosure by the US Government is
 subject to restrictions as set forth in subparagraphs (a)
 and (c) of the Commercial Computer Software - Restricted
 Rights clause in FAR 52.227-19.
  
 Gaussian, Inc.
 340 Quinnipiac St., Bldg. 40, Wallingford CT 06492
  
  
 ---------------------------------------------------------------
 Warning -- This program may not be used in any manner that
 competes with the business of Gaussian, Inc. or will provide
 assistance to any competitor of Gaussian, Inc.  The licensee
 of this program is prohibited from giving any competitor of
 Gaussian, Inc. access to this program.  By using this program,
 the user acknowledges that Gaussian, Inc. is engaged in the
 business of creating and licensing software in the field of
 computational chemistry and represents and warrants to the
 licensee that it is not a competitor of Gaussian, Inc. and that
 it will not use this program in any manner prohibited above.
 ---------------------------------------------------------------
  

 Cite this work as:
 Gaussian 16, Revision C.02,
 M. J. Frisch, G. W. Trucks, H. B. Schlegel, G. E. Scuseria, 
 M. A. Robb, J. R. Cheeseman, G. Scalmani, V. Barone, 
 G. A. Petersson, H. Nakatsuji, X. Li, M. Caricato, A. V. Marenich, 
 J. Bloino, B. G. Janesko, R. Gomperts, B. Mennucci, H. P. Hratchian, 
 J. V. Ortiz, A. F. Izmaylov, J. L. Sonnenberg, D. Williams-Young, 
 F. Ding, F. Lipparini, F. Egidi, J. Goings, B. Peng, A. Petrone, 
 T. Henderson, D. Ranasinghe, V. G. Zakrzewski, J. Gao, N. Rega, 
 G. Zheng, W. Liang, M. Hada, M. Ehara, K. Toyota, R. Fukuda, 
 J. Hasegawa, M. Ishida, T. Nakajima, Y. Honda, O. Kitao, H. Nakai, 
 T. Vreven, K. Throssell, J. A. Montgomery, Jr., J. E. Peralta, 
 F. Ogliaro, M. J. Bearpark, J. J. Heyd, E. N. Brothers, K. N. Kudin, 
 V. N. Staroverov, T. A. Keith, R. Kobayashi, J. Normand, 
 K. Raghavachari, A. P. Rendell, J. C. Burant, S. S. Iyengar, 
 J. Tomasi, M. Cossi, J. M. Millam, M. Klene, C. Adamo, R. Cammi, 
 J. W. Ochterski, R. L. Martin, K. Morokuma, O. Farkas, 
 J. B. Foresman, and D. J. Fox, Gaussian, Inc., Wallingford CT, 2019.
 
 ******************************************
 Gaussian 16:  ES64L-G16RevC.02  7-Dec-2021
                25-Aug-2025 
 ******************************************
 SetLPE:    new flags="-opt 'Tsnet.Node.lindarsharg: ssh'  -nodelist 'n2.head.cm.mguif.local' -env GAUSS_MDEF=4294967296 -env GAUSS_EXEDIR="/hpc/softwares/Gaussian/g16/bsd:/hpc/softwares/Gaussian/g16""
 Will use up to    1 processors via Linda.
 ----------------------------------------------------------
 # td=(50-50,nstates=3) b3lyp/6-31+g(d,p) geom=connectivity
 ----------------------------------------------------------
 1/38=1,57=2,172=1/1;
 2/12=2,17=6,18=5,40=1/2;
 3/5=1,6=6,7=111,11=9,25=1,30=1,74=-5/1,2,3,8;
 4//1;
 5/5=2,38=5/2;
 8/6=1,10=2,108=3/1;
 9/41=3,42=1,48=2,70=2/14;
 6/7=2,8=2,9=2,10=2/1;
 99/5=1,9=1/99;
 -------------------
 Title Card Required
 -------------------
 Symbolic Z-matrix:
 Charge =  0 Multiplicity = 1
 C                     4.53895  -0.78499  -1.07763 
 N                     3.13766  -0.66278  -0.72464 
 C                     2.54374  -1.74097   0.07788 
 C                     1.15575  -1.18912   0.51229 
 C                     0.70885  -1.76206   1.86286 
 C                     0.12891  -1.5426   -0.62552 
 C                    -1.25891  -0.95944  -0.49694 
 C                    -2.28628  -1.67028   0.14596 
 C                    -3.56999  -1.14364   0.26386 
 C                    -3.85627   0.12369  -0.27223 
 C                    -5.17659   0.67348  -0.15912 
 N                    -6.24801   1.11941  -0.0654 
 C                    -2.84236   0.84396  -0.92717 
 C                    -1.56429   0.30206  -1.0348 
 C                     1.46612   0.3043    0.53958 
 C                     0.79652   1.36278   1.13891 
 C                     1.28996   2.66945   0.98419 
 C                     2.44426   2.89363   0.23011 
 C                     3.13637   1.83459  -0.37472 
 C                     2.63487   0.53971  -0.21331 
 H                     4.71108  -1.764    -1.53378 
 H                     4.81033  -0.02388  -1.81409 
 H                     5.20755  -0.68226  -0.20465 
 H                     2.4731   -2.66616  -0.50457 
 H                     3.16312  -1.94077   0.97117 
 H                     0.59957  -2.85226   1.80907 
 H                     1.44179  -1.53075   2.64183 
 H                    -0.25373  -1.34699   2.17558 
 H                     0.56965  -1.22119  -1.57542 
 H                     0.05216  -2.63664  -0.6618 
 H                    -2.08075  -2.65673   0.55235 
 H                    -4.35309  -1.70692   0.76066 
 H                    -3.06273   1.81902  -1.34908 
 H                    -0.78979   0.86602  -1.54501 
 H                    -0.09839   1.18792   1.72933 
 H                     0.77716   3.50201   1.45562 
 H                     2.82551   3.90496   0.11893 
 H                     4.04211   2.02483  -0.94124 
 
                          Input orientation:                          
 ---------------------------------------------------------------------
 Center     Atomic      Atomic             Coordinates (Angstroms)
 Number     Number       Type             X           Y           Z
 ---------------------------------------------------------------------
      1          6           0        4.538948   -0.784985   -1.077631
      2          7           0        3.137662   -0.662778   -0.724643
      3          6           0        2.543739   -1.740969    0.077884
      4          6           0        1.155748   -1.189116    0.512289
      5          6           0        0.708849   -1.762056    1.862863
      6          6           0        0.128911   -1.542596   -0.625516
      7          6           0       -1.258912   -0.959437   -0.496935
      8          6           0       -2.286277   -1.670276    0.145959
      9          6           0       -3.569987   -1.143637    0.263858
     10          6           0       -3.856272    0.123690   -0.272230
     11          6           0       -5.176586    0.673483   -0.159121
     12          7           0       -6.248005    1.119406   -0.065403
     13          6           0       -2.842355    0.843960   -0.927167
     14          6           0       -1.564285    0.302059   -1.034797
     15          6           0        1.466120    0.304296    0.539581
     16          6           0        0.796518    1.362779    1.138913
     17          6           0        1.289961    2.669447    0.984192
     18          6           0        2.444261    2.893630    0.230114
     19          6           0        3.136368    1.834586   -0.374716
     20          6           0        2.634872    0.539709   -0.213307
     21          1           0        4.711082   -1.763996   -1.533778
     22          1           0        4.810330   -0.023883   -1.814090
     23          1           0        5.207551   -0.682257   -0.204648
     24          1           0        2.473104   -2.666155   -0.504570
     25          1           0        3.163118   -1.940773    0.971174
     26          1           0        0.599571   -2.852260    1.809068
     27          1           0        1.441792   -1.530753    2.641832
     28          1           0       -0.253730   -1.346988    2.175581
     29          1           0        0.569654   -1.221189   -1.575416
     30          1           0        0.052162   -2.636644   -0.661801
     31          1           0       -2.080748   -2.656734    0.552351
     32          1           0       -4.353092   -1.706915    0.760662
     33          1           0       -3.062726    1.819022   -1.349080
     34          1           0       -0.789790    0.866023   -1.545007
     35          1           0       -0.098386    1.187915    1.729330
     36          1           0        0.777158    3.502007    1.455623
     37          1           0        2.825511    3.904955    0.118932
     38          1           0        4.042115    2.024828   -0.941237
 ---------------------------------------------------------------------
                    Distance matrix (angstroms):
                    1          2          3          4          5
     1  C    0.000000
     2  N    1.450220   0.000000
     3  C    2.495993   1.469452   0.000000
     4  C    3.759948   2.394789   1.555560   0.000000
     5  C    4.926544   3.715203   2.559964   1.533633   0.000000
     6  C    4.497422   3.136318   2.522998   1.572877   2.564473
     7  C    5.829479   4.412451   3.924457   2.627141   3.175677
     8  C    6.990323   5.584990   4.831013   3.494746   3.453543
     9  C    8.226971   6.797125   6.145652   4.732479   4.609522
    10  C    8.482575   7.052540   6.675303   5.240160   5.380984
    11  C    9.867238   8.439913   8.092538   6.634645   6.682710
    12  N   11.000439   9.576091   9.246461   7.776796   7.772956
    13  C    7.560406   6.170241   6.058217   4.710654   5.214081
    14  C    6.199432   4.809928   4.721005   3.466361   4.221865
    15  C    3.639255   2.308148   2.357443   1.525567   2.567946
    16  C    4.850952   3.613402   3.716425   2.652145   3.208798
    17  C    5.171086   4.175864   4.673877   3.889629   4.554994
    18  C    4.430589   3.747053   4.638165   4.290536   5.230003
    19  C    3.053436   2.521761   3.652485   3.721882   4.882155
    20  C    2.475354   1.400085   2.300998   2.388123   3.649407
    21  H    1.093692   2.083994   2.700992   4.142134   5.249290
    22  H    1.093296   2.095925   3.415463   4.486176   5.776104
    23  H    1.104392   2.134295   2.880380   4.145843   5.067434
    24  H    2.852177   2.122166   1.095541   2.225101   3.087836
    25  H    2.725134   2.123609   1.105224   2.192053   2.617343
    26  H    5.303334   4.201836   2.830504   2.181059   1.096987
    27  H    4.897239   3.868140   2.798626   2.175659   1.094303
    28  H    5.819708   4.514530   3.518719   2.185885   1.093907
    29  H    4.024097   2.762300   2.626896   2.168651   3.483342
    30  H    4.871633   3.663387   2.749059   2.166039   2.751376
    31  H    7.069700   5.730478   4.738103   3.553929   3.209321
    32  H    9.126755   7.707642   6.930629   5.538693   5.180843
    33  H    8.039900   6.707761   6.792806   5.505371   6.112731
    34  H    5.598189   4.293613   4.532394   3.498740   4.557005
    35  H    5.768555   4.463077   4.276267   2.950308   3.061338
    36  H    6.240732   5.260321   5.701559   4.799984   5.280234
    37  H    5.134507   4.655453   5.653100   5.375165   6.295758
    38  H    2.856658   2.843972   4.179111   4.557772   5.771839
                    6          7          8          9         10
     6  C    0.000000
     7  C    1.510848   0.000000
     8  C    2.538623   1.405021   0.000000
     9  C    3.825180   2.440042   1.392537   0.000000
    10  C    4.333936   2.823107   2.420347   1.405513   0.000000
    11  C    5.768607   4.257783   3.733653   2.462112   1.434676
    12  N    6.932895   5.422071   4.849978   3.521584   2.598964
    13  C    3.822965   2.438162   2.789660   2.428689   1.405617
    14  C    2.537159   1.404963   2.409473   2.792737   2.422092
    15  C    2.560584   3.177607   4.258445   5.247371   5.386976
    16  C    3.464118   3.506206   4.437229   5.110206   5.017482
    17  C    4.656233   4.675392   5.685535   6.219131   5.877345
    18  C    5.076716   5.393349   6.573759   7.243745   6.900843
    19  C    4.529134   5.209605   6.477672   7.365649   7.199631
    20  C    3.284167   4.182037   5.406553   6.446830   6.504729
    21  H    4.676564   6.112543   7.196758   8.496614   8.863093
    22  H    5.063090   6.280594   7.544152   8.706402   8.803925
    23  H    5.168162   6.478997   7.566807   8.802133   9.099835
    24  H    2.602355   4.103765   4.905779   6.279131   6.920854
    25  H    3.451721   4.761587   5.518157   6.816922   7.421583
    26  H    2.804272   3.514881   3.534280   4.763642   5.748271
    27  H    3.521272   4.179960   4.488580   5.560805   6.268845
    28  H    2.833870   2.881480   2.890524   3.833223   4.597062
    29  H    1.095384   2.138993   3.364692   4.530516   4.805810
    30  H    1.097337   2.135209   2.656057   4.025652   4.800736
    31  H    2.740669   2.158062   1.086506   2.142551   3.400467
    32  H    4.694341   3.422605   2.156601   1.085057   2.159817
    33  H    4.691542   3.420487   3.874689   3.411192   2.159507
    34  H    2.736955   2.156579   3.395829   3.878172   3.402107
    35  H    3.612846   3.303664   3.932326   4.431225   4.388681
    36  H    5.495397   5.278498   6.152428   6.473020   5.988921
    37  H    6.123860   6.381545   7.564014   8.149336   7.687470
    38  H    5.304654   6.099519   7.408396   8.332798   8.151467
                   11         12         13         14         15
    11  C    0.000000
    12  N    1.164289   0.000000
    13  C    2.463248   3.523771   0.000000
    14  C    3.735436   4.852320   1.392373   0.000000
    15  C    6.689546   7.780626   4.583181   3.414971   0.000000
    16  C    6.151259   7.150868   4.216546   3.379872   1.388507
    17  C    6.863473   7.766930   4.905276   4.222270   2.413017
    18  C    7.947192   8.876412   5.786947   4.938085   2.785171
    19  C    8.396419   9.416667   6.085365   4.988034   2.442837
    20  C    7.812791   8.903001   5.531924   4.285352   1.410050
    21  H   10.276038  11.426798   8.013977   6.625541   4.371090
    22  H   10.147105  11.253968   7.752636   6.430338   4.102586
    23  H   10.472364  11.597204   8.225105   6.893170   3.940237
    24  H    8.354057   9.517409   6.383855   5.039042   3.305729
    25  H    8.812637   9.950298   6.886519   5.603798   2.847176
    26  H    7.047597   8.134929   5.744204   4.766505   3.510890
    27  H    7.517109   8.572365   6.060605   5.090511   2.790601
    28  H    5.810994   6.858312   4.596551   3.839718   2.891560
    29  H    6.214093   7.364713   4.040652   2.676985   2.757529
    30  H    6.208819   7.359056   4.534672   3.374611   3.477316
    31  H    4.602255   5.657463   3.876065   3.397091   4.620404
    32  H    2.681499   3.501595   3.411460   3.877769   6.160931
    33  H    2.682660   3.504753   1.085044   2.155290   5.135356
    34  H    4.604534   5.660878   2.143650   1.085455   3.122527
    35  H    5.442334   6.406526   3.834664   3.251769   2.154986
    36  H    6.786384   7.572531   5.083677   4.682330   3.396934
    37  H    8.634424   9.493258   6.526003   5.795020   3.871645
    38  H    9.349989  10.366940   6.985025   5.865868   3.433483
                   16         17         18         19         20
    16  C    0.000000
    17  C    1.405278   0.000000
    18  C    2.425794   1.396889   0.000000
    19  C    2.826406   2.439845   1.402286   0.000000
    20  C    2.426003   2.789009   2.402894   1.397948   0.000000
    21  H    5.678363   6.140005   5.472045   4.095478   3.370660
    22  H    5.172402   5.241890   4.276556   2.885802   2.759123
    23  H    5.044258   5.291009   4.540017   3.263927   2.848149
    24  H    4.663077   5.664352   5.608191   4.551203   3.223130
    25  H    4.067233   4.976245   4.943418   4.008176   2.799077
    26  H    4.272523   5.625505   6.237887   5.759408   4.442736
    27  H    3.323804   4.518020   5.137752   4.826661   3.723180
    28  H    3.085537   4.464766   5.389512   5.302753   4.196479
    29  H    3.754456   4.712482   4.868863   4.167429   3.036648
    30  H    4.448822   5.691752   6.091107   5.439360   4.118344
    31  H    4.977871   6.317940   7.168409   6.946201   5.748091
    32  H    6.007044   7.144687   8.224993   8.362017   7.404565
    33  H    4.614329   5.011314   5.828854   6.275221   5.948886
    34  H    3.156987   3.738255   4.209671   4.209800   3.688931
    35  H    1.086289   2.162793   3.409130   3.912650   3.415364
    36  H    2.162632   1.085528   2.156670   3.419986   3.874486
    37  H    3.408788   2.152456   1.086504   2.150988   3.386976
    38  H    3.911423   3.420111   2.163335   1.085134   2.171588
                   21         22         23         24         25
    21  H    0.000000
    22  H    1.765338   0.000000
    23  H    1.784160   1.783688   0.000000
    24  H    2.623300   3.762854   3.391608   0.000000
    25  H    2.949954   3.761046   2.673224   1.783289   0.000000
    26  H    5.409571   6.233577   5.476992   2.982898   2.846866
    27  H    5.308331   5.785581   4.796179   3.500370   2.433552
    28  H    6.211489   6.581245   5.994410   4.044630   3.671243
    29  H    4.177056   4.412917   4.866163   2.618732   3.705263
    30  H    4.819481   5.549275   5.532328   2.426222   3.581744
    31  H    7.160857   7.747187   7.588867   4.674905   5.309062
    32  H    9.350239   9.665932   9.663728   7.008417   7.522793
    33  H    8.561788   8.099231   8.715710   7.174638   7.634184
    34  H    6.097271   5.676767   6.337336   4.919885   5.462120
    35  H    6.518637   6.174121   5.949015   5.143610   4.582674
    36  H    7.221015   6.276097   6.316086   6.690651   5.962495
    37  H    6.198696   4.807478   5.178932   6.610025   5.917164
    38  H    3.892789   2.355683   3.037946   4.965662   4.489537
                   26         27         28         29         30
    26  H    0.000000
    27  H    1.774602   0.000000
    28  H    1.768700   1.768037   0.000000
    29  H    3.757129   4.317596   3.842365   0.000000
    30  H    2.539949   3.750741   3.131696   1.762386   0.000000
    31  H    2.966762   4.247594   2.772779   3.689555   2.454358
    32  H    5.190360   6.095122   4.351587   5.470523   4.721659
    33  H    6.723629   6.887601   5.507932   4.742183   5.479766
    34  H    5.196708   5.315460   4.362058   2.491077   3.709126
    35  H    4.100795   3.255144   2.578566   4.143839   4.513028
    36  H    6.366567   5.213205   5.009373   5.615945   6.533922
    37  H    7.312409   6.150335   6.426075   5.851244   7.147974
    38  H    6.572768   5.678223   6.287923   4.795497   6.142241
                   31         32         33         34         35
    31  H    0.000000
    32  H    2.471659   0.000000
    33  H    4.961060   4.306772   0.000000
    34  H    4.298290   4.963189   2.472414   0.000000
    35  H    4.482897   5.236495   4.319979   3.361984   0.000000
    36  H    6.849352   7.344066   5.044156   4.290398   2.489280
    37  H    8.204571   9.134399   6.416971   5.007415   4.304052
    38  H    7.850941   9.343547   7.119512   5.005464   4.997609
                   36         37         38
    36  H    0.000000
    37  H    2.478883   0.000000
    38  H    4.311257   2.477693   0.000000
 Stoichiometry    C18H18N2
 Framework group  C1[X(C18H18N2)]
 Deg. of freedom   108
 Full point group                 C1      NOp   1
 Largest Abelian subgroup         C1      NOp   1
 Largest concise Abelian subgroup C1      NOp   1
                         Standard orientation:                         
 ---------------------------------------------------------------------
 Center     Atomic      Atomic             Coordinates (Angstroms)
 Number     Number       Type             X           Y           Z
 ---------------------------------------------------------------------
      1          6           0        4.538948   -0.784985   -1.077631
      2          7           0        3.137662   -0.662778   -0.724643
      3          6           0        2.543739   -1.740969    0.077884
      4          6           0        1.155748   -1.189116    0.512289
      5          6           0        0.708849   -1.762056    1.862863
      6          6           0        0.128911   -1.542596   -0.625516
      7          6           0       -1.258912   -0.959437   -0.496935
      8          6           0       -2.286277   -1.670276    0.145959
      9          6           0       -3.569987   -1.143637    0.263858
     10          6           0       -3.856272    0.123690   -0.272230
     11          6           0       -5.176586    0.673483   -0.159121
     12          7           0       -6.248005    1.119406   -0.065403
     13          6           0       -2.842355    0.843960   -0.927167
     14          6           0       -1.564285    0.302059   -1.034797
     15          6           0        1.466120    0.304296    0.539581
     16          6           0        0.796518    1.362779    1.138913
     17          6           0        1.289961    2.669447    0.984192
     18          6           0        2.444261    2.893630    0.230114
     19          6           0        3.136368    1.834586   -0.374716
     20          6           0        2.634872    0.539709   -0.213307
     21          1           0        4.711082   -1.763996   -1.533778
     22          1           0        4.810330   -0.023883   -1.814090
     23          1           0        5.207551   -0.682257   -0.204648
     24          1           0        2.473104   -2.666155   -0.504570
     25          1           0        3.163118   -1.940773    0.971174
     26          1           0        0.599571   -2.852260    1.809068
     27          1           0        1.441792   -1.530753    2.641832
     28          1           0       -0.253730   -1.346988    2.175581
     29          1           0        0.569654   -1.221189   -1.575416
     30          1           0        0.052162   -2.636644   -0.661801
     31          1           0       -2.080748   -2.656734    0.552351
     32          1           0       -4.353092   -1.706915    0.760662
     33          1           0       -3.062726    1.819022   -1.349080
     34          1           0       -0.789790    0.866023   -1.545007
     35          1           0       -0.098386    1.187915    1.729330
     36          1           0        0.777158    3.502007    1.455623
     37          1           0        2.825511    3.904955    0.118932
     38          1           0        4.042115    2.024828   -0.941237
 ---------------------------------------------------------------------
 Rotational constants (GHZ):           0.6917220           0.1991839           0.1724717
 Standard basis: 6-31+G(d,p) (6D, 7F)
 There are   470 symmetry adapted cartesian basis functions of A   symmetry.
 There are   470 symmetry adapted basis functions of A   symmetry.
   470 basis functions,   766 primitive gaussians,   470 cartesian basis functions
    70 alpha electrons       70 beta electrons
       nuclear repulsion energy      1446.9537516589 Hartrees.
 NAtoms=   38 NActive=   38 NUniq=   38 SFac= 1.00D+00 NAtFMM=   60 NAOKFM=F Big=F
 Integral buffers will be    131072 words long.
 Regular integral format.
 Two-electron integral symmetry is turned on.
 One-electron integrals computed using PRISM.
 NBasis=   470 RedAO= T EigKep=  1.08D-06  NBF=   470
 NBsUse=   469 1.00D-06 EigRej=  6.52D-07 NBFU=   469
 ExpMin= 4.38D-02 ExpMax= 4.17D+03 ExpMxC= 6.27D+02 IAcc=3 IRadAn=         5 AccDes= 0.00D+00
 Harris functional with IExCor=  402 and IRadAn=       5 diagonalized for initial guess.
 HarFok:  IExCor=  402 AccDes= 0.00D+00 IRadAn=         5 IDoV= 1 UseB2=F ITyADJ=14
 ICtDFT=  3500011 ScaDFX=  1.000000  1.000000  1.000000  1.000000
 FoFCou: FMM=F IPFlag=           0 FMFlag=      100000 FMFlg1=           0
         NFxFlg=           0 DoJE=T BraDBF=F KetDBF=T FulRan=T
         wScrn=  0.000000 ICntrl=       500 IOpCl=  0 I1Cent=   200000004 NGrid=           0
         NMat0=    1 NMatS0=      1 NMatT0=    0 NMatD0=    1 NMtDS0=    0 NMtDT0=    0
 Petite list used in FoFCou.
 Requested convergence on RMS density matrix=1.00D-08 within 128 cycles.
 Requested convergence on MAX density matrix=1.00D-06.
 Requested convergence on             energy=1.00D-06.
 No special actions if energy rises.
 SCF Done:  E(RB3LYP) =  -806.304645298     A.U. after   16 cycles
            NFock= 16  Conv=0.66D-08     -V/T= 2.0098
 DoSCS=F DFT=T ScalE2(SS,OS)=  1.000000  1.000000
 ExpMin= 4.38D-02 ExpMax= 4.17D+03 ExpMxC= 6.27D+02 IAcc=3 IRadAn=         5 AccDes= 0.00D+00
 HarFok:  IExCor=  205 AccDes= 0.00D+00 IRadAn=         5 IDoV=-2 UseB2=F ITyADJ=14
 ICtDFT= 12500011 ScaDFX=  1.000000  1.000000  1.000000  1.000000
 Range of M.O.s used for correlation:    21   469
 NBasis=   470 NAE=    70 NBE=    70 NFC=    20 NFV=     0
 NROrb=    449 NOA=    50 NOB=    50 NVA=   399 NVB=   399

 **** Warning!!: The largest alpha MO coefficient is  0.17568838D+03

 Orbital symmetries:
       Occupied  (A) (A) (A) (A) (A) (A) (A) (A) (A) (A) (A) (A)
                 (A) (A) (A) (A) (A) (A) (A) (A) (A) (A) (A) (A)
                 (A) (A) (A) (A) (A) (A) (A) (A) (A) (A) (A) (A)
                 (A) (A) (A) (A) (A) (A) (A) (A) (A) (A) (A) (A)
                 (A) (A) (A) (A) (A) (A) (A) (A) (A) (A) (A) (A)
                 (A) (A) (A) (A) (A) (A) (A) (A) (A) (A)
       Virtual   (A) (A) (A) (A) (A) (A) (A) (A) (A) (A) (A) (A)
                 (A) (A) (A) (A) (A) (A) (A) (A) (A) (A) (A) (A)
                 (A) (A) (A) (A) (A) (A) (A) (A) (A) (A) (A) (A)
                 (A) (A) (A) (A) (A) (A) (A) (A) (A) (A) (A) (A)
                 (A) (A) (A) (A) (A) (A) (A) (A) (A) (A) (A) (A)
                 (A) (A) (A) (A) (A) (A) (A) (A) (A) (A) (A) (A)
                 (A) (A) (A) (A) (A) (A) (A) (A) (A) (A) (A) (A)
                 (A) (A) (A) (A) (A) (A) (A) (A) (A) (A) (A) (A)
                 (A) (A) (A) (A) (A) (A) (A) (A) (A) (A) (A) (A)
                 (A) (A) (A) (A) (A) (A) (A) (A) (A) (A) (A) (A)
                 (A) (A) (A) (A) (A) (A) (A) (A) (A) (A) (A) (A)
                 (A) (A) (A) (A) (A) (A) (A) (A) (A) (A) (A) (A)
                 (A) (A) (A) (A) (A) (A) (A) (A) (A) (A) (A) (A)
                 (A) (A) (A) (A) (A) (A) (A) (A) (A) (A) (A) (A)
                 (A) (A) (A) (A) (A) (A) (A) (A) (A) (A) (A) (A)
                 (A) (A) (A) (A) (A) (A) (A) (A) (A) (A) (A) (A)
                 (A) (A) (A) (A) (A) (A) (A) (A) (A) (A) (A) (A)
                 (A) (A) (A) (A) (A) (A) (A) (A) (A) (A) (A) (A)
                 (A) (A) (A) (A) (A) (A) (A) (A) (A) (A) (A) (A)
                 (A) (A) (A) (A) (A) (A) (A) (A) (A) (A) (A) (A)
                 (A) (A) (A) (A) (A) (A) (A) (A) (A) (A) (A) (A)
                 (A) (A) (A) (A) (A) (A) (A) (A) (A) (A) (A) (A)
                 (A) (A) (A) (A) (A) (A) (A) (A) (A) (A) (A) (A)
                 (A) (A) (A) (A) (A) (A) (A) (A) (A) (A) (A) (A)
                 (A) (A) (A) (A) (A) (A) (A) (A) (A) (A) (A) (A)
                 (A) (A) (A) (A) (A) (A) (A) (A) (A) (A) (A) (A)
                 (A) (A) (A) (A) (A) (A) (A) (A) (A) (A) (A) (A)
                 (A) (A) (A) (A) (A) (A) (A) (A) (A) (A) (A) (A)
                 (A) (A) (A) (A) (A) (A) (A) (A) (A) (A) (A) (A)
                 (A) (A) (A) (A) (A) (A) (A) (A) (A) (A) (A) (A)
                 (A) (A) (A) (A) (A) (A) (A) (A) (A) (A) (A) (A)
                 (A) (A) (A) (A) (A) (A) (A) (A) (A) (A) (A) (A)
                 (A) (A) (A) (A) (A) (A) (A) (A) (A) (A) (A) (A)
                 (A) (A) (A)
    24 initial guesses have been made.
 Convergence on wavefunction:    0.001000000000000
 Iteration     1 Dimension    24 NMult     0 NNew     24
 CISAX will form    24 AO SS matrices at one time.
 New state      1 was old state      2
 New state      2 was old state      1
 New state      3 was old state      6
 New state      5 was old state     14
 New state      6 was old state      3
 New state      7 was old state     12
 New state      8 was old state     22
 New state      9 was old state      7
 New state     10 was old state      8
 New state     11 was old state      9
 New state     12 was old state     10
 Vector   5 SDiff=1.99D+01 TDiff=1.42D+00 assumed to be triplet.
 Vector  11 SDiff=1.87D+01 TDiff=1.19D+00 assumed to be triplet.
 Iteration     2 Dimension    36 NMult    24 NNew     12
 New state      3 was old state      4
 New state      4 was old state      5
 New state      5 was old state      6
 New state      6 was old state      9
 Iteration     3 Dimension    48 NMult    36 NNew     12
 Iteration     4 Dimension    60 NMult    48 NNew     12
 Iteration     5 Dimension    72 NMult    60 NNew     12
 Iteration     6 Dimension    82 NMult    72 NNew     10
 Iteration     7 Dimension    84 NMult    82 NNew      2
 Iteration     8 Dimension    86 NMult    84 NNew      2
 ***********************************************************************
 Excited states from <AA,BB:AA,BB> singles matrix:
 ***********************************************************************
 
 Ground to excited state transition densities written to RWF  633
 Ground to excited state transition electric dipole moments (Au):
       state          X           Y           Z        Dip. S.      Osc.
         1         0.0000      0.0000      0.0000      0.0000      0.0000
         2         0.4461      0.0659      0.0468      0.2055      0.0173
         3        -0.0000     -0.0000     -0.0000      0.0000      0.0000
         4        -0.0000      0.0000      0.0000      0.0000      0.0000
         5        -0.2001      0.1230      0.0177      0.0555      0.0056
         6        -0.4987     -0.5080      0.1587      0.5320      0.0572
 Ground to excited state transition velocity dipole moments (Au):
       state          X           Y           Z        Dip. S.      Osc.
         1        -0.0000      0.0000      0.0000      0.0000      0.0000
         2        -0.0560     -0.0090     -0.0055      0.0032      0.0171
         3         0.0000     -0.0000      0.0000      0.0000      0.0000
         4         0.0000     -0.0000     -0.0000      0.0000      0.0000
         5         0.0300     -0.0201     -0.0020      0.0013      0.0058
         6         0.0810      0.0830     -0.0250      0.0141      0.0582
 Ground to excited state transition magnetic dipole moments (Au):
       state          X           Y           Z
         1         0.0000     -0.0000     -0.0000
         2         0.1320      0.0983     -0.2897
         3        -0.0000     -0.0000      0.0000
         4        -0.0000      0.0000      0.0000
         5        -0.0645      0.0752     -0.0106
         6        -0.5198      0.2307     -0.3313
 Ground to excited state transition velocity quadrupole moments (Au):
       state          XX          YY          ZZ          XY          XZ          YZ
         1         0.0000     -0.0000      0.0000     -0.0000      0.0000      0.0000
         2         0.1854     -0.1018      0.0040     -0.0408      0.0043     -0.0036
         3         0.0000      0.0000     -0.0000     -0.0000     -0.0000     -0.0000
         4        -0.0000      0.0000     -0.0000      0.0000     -0.0000     -0.0000
         5         0.1473     -0.0663     -0.0187     -0.0553     -0.0490     -0.0203
         6         0.2215      0.3355     -0.0876      0.5251     -0.1018     -0.0305
 <0|del|b> * <b|rxdel|0> + <0|del|b> * <b|delr+rdel|0>
 Rotatory Strengths (R) in cgs (10**-40 erg-esu-cm/Gauss)
       state          XX          YY          ZZ    R(velocity)    E-M Angle
         1        -0.0000     -0.0000     -0.0000     -0.0000       90.00
         2         2.6894    -16.2988    -23.8093    -12.4729      110.64
         3         0.0000     -0.0000     -0.0000     -0.0000       90.00
         4        -0.0000     -0.0000      0.0000     -0.0000       90.00
         5        -5.5518     -6.1707     -4.3432     -5.3552      161.92
         6        49.8748    -50.7880    -63.4107    -21.4413      100.83
 1/2[<0|r|b>*<b|rxdel|0> + (<0|rxdel|b>*<b|r|0>)*]
 Rotatory Strengths (R) in cgs (10**-40 erg-esu-cm/Gauss)
       state          XX          YY          ZZ     R(length)
         1        -0.0000      0.0000      0.0000      0.0000
         2       -41.6516     -4.5805      9.5868    -12.2151
         3        -0.0000     -0.0000      0.0000     -0.0000
         4        -0.0000     -0.0000     -0.0000     -0.0000
         5        -9.1223     -6.5446      0.1323     -5.1782
         6      -183.3051     82.8900     37.1721    -21.0810
  1/2[<0|del|b>*<b|r|0> + (<0|r|b>*<b|del|0>)*] (Au)
       state          X           Y           Z        Dip. S.   Osc.(frdel)
         1        -0.0000      0.0000      0.0000     -0.0000     -0.0000
         2        -0.0250     -0.0006     -0.0003      0.0258      0.0172
         3        -0.0000      0.0000     -0.0000      0.0000      0.0000
         4        -0.0000     -0.0000     -0.0000      0.0000      0.0000
         5        -0.0060     -0.0025     -0.0000      0.0085      0.0057
         6        -0.0404     -0.0422     -0.0040      0.0866      0.0577

 Excitation energies and oscillator strengths:
 
 Excited State   1:      Triplet-A      3.2917 eV  376.66 nm  f=0.0000  <S**2>=2.000
      67 -> 72         0.20548
      68 -> 71         0.48624
      70 -> 71         0.45078
 This state for optimization and/or second-order correction.
 Total Energy, E(TD-HF/TD-DFT) =  -806.183676966    
 Copying the excited state density for this state as the 1-particle RhoCI density.
 
 Excited State   2:      Singlet-A      3.4402 eV  360.40 nm  f=0.0173  <S**2>=0.000
      70 -> 71         0.70610
 
 Excited State   3:      Triplet-A      3.4670 eV  357.61 nm  f=0.0000  <S**2>=2.000
      68 -> 71        -0.14123
      69 -> 73         0.27563
      70 -> 71         0.13905
      70 -> 72        -0.16778
      70 -> 73        -0.24488
      70 -> 74        -0.24289
      70 -> 75         0.35308
      70 -> 76        -0.26562
      70 -> 77         0.10202
 
 Excited State   4:      Triplet-A      3.4889 eV  355.37 nm  f=0.0000  <S**2>=2.000
      67 -> 72        -0.17368
      68 -> 71        -0.37668
      70 -> 71         0.50306
      70 -> 75        -0.13953
      70 -> 76         0.11121
 
 Excited State   5:      Singlet-A      4.1053 eV  302.01 nm  f=0.0056  <S**2>=0.000
      70 -> 72         0.70511
 
 Excited State   6:      Singlet-A      4.3913 eV  282.34 nm  f=0.0572  <S**2>=0.000
      69 -> 75        -0.11879
      70 -> 73         0.68124
 SavETr:  write IOETrn=   770 NScale= 10 NData=  16 NLR=1 NState=    6 LETran=     118.

 **********************************************************************

            Population analysis using the SCF Density.

 **********************************************************************

 Orbital symmetries:
       Occupied  (A) (A) (A) (A) (A) (A) (A) (A) (A) (A) (A) (A)
                 (A) (A) (A) (A) (A) (A) (A) (A) (A) (A) (A) (A)
                 (A) (A) (A) (A) (A) (A) (A) (A) (A) (A) (A) (A)
                 (A) (A) (A) (A) (A) (A) (A) (A) (A) (A) (A) (A)
                 (A) (A) (A) (A) (A) (A) (A) (A) (A) (A) (A) (A)
                 (A) (A) (A) (A) (A) (A) (A) (A) (A) (A)
       Virtual   (A) (A) (A) (A) (A) (A) (A) (A) (A) (A) (A) (A)
                 (A) (A) (A) (A) (A) (A) (A) (A) (A) (A) (A) (A)
                 (A) (A) (A) (A) (A) (A) (A) (A) (A) (A) (A) (A)
                 (A) (A) (A) (A) (A) (A) (A) (A) (A) (A) (A) (A)
                 (A) (A) (A) (A) (A) (A) (A) (A) (A) (A) (A) (A)
                 (A) (A) (A) (A) (A) (A) (A) (A) (A) (A) (A) (A)
                 (A) (A) (A) (A) (A) (A) (A) (A) (A) (A) (A) (A)
                 (A) (A) (A) (A) (A) (A) (A) (A) (A) (A) (A) (A)
                 (A) (A) (A) (A) (A) (A) (A) (A) (A) (A) (A) (A)
                 (A) (A) (A) (A) (A) (A) (A) (A) (A) (A) (A) (A)
                 (A) (A) (A) (A) (A) (A) (A) (A) (A) (A) (A) (A)
                 (A) (A) (A) (A) (A) (A) (A) (A) (A) (A) (A) (A)
                 (A) (A) (A) (A) (A) (A) (A) (A) (A) (A) (A) (A)
                 (A) (A) (A) (A) (A) (A) (A) (A) (A) (A) (A) (A)
                 (A) (A) (A) (A) (A) (A) (A) (A) (A) (A) (A) (A)
                 (A) (A) (A) (A) (A) (A) (A) (A) (A) (A) (A) (A)
                 (A) (A) (A) (A) (A) (A) (A) (A) (A) (A) (A) (A)
                 (A) (A) (A) (A) (A) (A) (A) (A) (A) (A) (A) (A)
                 (A) (A) (A) (A) (A) (A) (A) (A) (A) (A) (A) (A)
                 (A) (A) (A) (A) (A) (A) (A) (A) (A) (A) (A) (A)
                 (A) (A) (A) (A) (A) (A) (A) (A) (A) (A) (A) (A)
                 (A) (A) (A) (A) (A) (A) (A) (A) (A) (A) (A) (A)
                 (A) (A) (A) (A) (A) (A) (A) (A) (A) (A) (A) (A)
                 (A) (A) (A) (A) (A) (A) (A) (A) (A) (A) (A) (A)
                 (A) (A) (A) (A) (A) (A) (A) (A) (A) (A) (A) (A)
                 (A) (A) (A) (A) (A) (A) (A) (A) (A) (A) (A) (A)
                 (A) (A) (A) (A) (A) (A) (A) (A) (A) (A) (A) (A)
                 (A) (A) (A) (A) (A) (A) (A) (A) (A) (A) (A) (A)
                 (A) (A) (A) (A) (A) (A) (A) (A) (A) (A) (A) (A)
                 (A) (A) (A) (A) (A) (A) (A) (A) (A) (A) (A) (A)
                 (A) (A) (A) (A) (A) (A) (A) (A) (A) (A) (A) (A)
                 (A) (A) (A) (A) (A) (A) (A) (A) (A) (A) (A) (A)
                 (A) (A) (A) (A) (A) (A) (A) (A) (A) (A) (A) (A)
                 (A) (A) (A)
 The electronic state is 1-A.
 Alpha  occ. eigenvalues --  -14.36231 -14.34356 -10.24466 -10.23555 -10.23132
 Alpha  occ. eigenvalues --  -10.23038 -10.22765 -10.22641 -10.22528 -10.22423
 Alpha  occ. eigenvalues --  -10.22295 -10.21596 -10.21321 -10.20793 -10.19836
 Alpha  occ. eigenvalues --  -10.19812 -10.19620 -10.19525 -10.19297 -10.18981
 Alpha  occ. eigenvalues --   -0.97092  -0.91332  -0.88487  -0.85411  -0.83405
 Alpha  occ. eigenvalues --   -0.79567  -0.77354  -0.75251  -0.74483  -0.72252
 Alpha  occ. eigenvalues --   -0.71343  -0.66572  -0.63623  -0.63483  -0.62177
 Alpha  occ. eigenvalues --   -0.58566  -0.57004  -0.56601  -0.51260  -0.50160
 Alpha  occ. eigenvalues --   -0.49826  -0.49074  -0.47624  -0.47317  -0.45858
 Alpha  occ. eigenvalues --   -0.45255  -0.44676  -0.44291  -0.43879  -0.42231
 Alpha  occ. eigenvalues --   -0.41721  -0.40908  -0.40336  -0.40006  -0.38666
 Alpha  occ. eigenvalues --   -0.38251  -0.37681  -0.36981  -0.36531  -0.36263
 Alpha  occ. eigenvalues --   -0.35879  -0.34334  -0.34041  -0.33563  -0.33069
 Alpha  occ. eigenvalues --   -0.29633  -0.27977  -0.26410  -0.25479  -0.20517
 Alpha virt. eigenvalues --   -0.05980  -0.03477  -0.01754  -0.01225  -0.00434
 Alpha virt. eigenvalues --    0.00282   0.00571   0.01200   0.01753   0.02014
 Alpha virt. eigenvalues --    0.02457   0.02673   0.02922   0.03595   0.03778
 Alpha virt. eigenvalues --    0.04155   0.04761   0.05275   0.05755   0.06051
 Alpha virt. eigenvalues --    0.06361   0.06656   0.06693   0.06947   0.07600
 Alpha virt. eigenvalues --    0.08268   0.08510   0.09324   0.09469   0.09536
 Alpha virt. eigenvalues --    0.09943   0.10747   0.11013   0.11457   0.11839
 Alpha virt. eigenvalues --    0.12227   0.12700   0.13212   0.13330   0.13553
 Alpha virt. eigenvalues --    0.13735   0.14016   0.14575   0.14690   0.15257
 Alpha virt. eigenvalues --    0.15923   0.16203   0.16469   0.16781   0.17071
 Alpha virt. eigenvalues --    0.17109   0.17562   0.18078   0.18205   0.18406
 Alpha virt. eigenvalues --    0.18755   0.19038   0.19286   0.19650   0.19826
 Alpha virt. eigenvalues --    0.20079   0.20542   0.20721   0.21118   0.21376
 Alpha virt. eigenvalues --    0.21769   0.22040   0.22420   0.22485   0.22851
 Alpha virt. eigenvalues --    0.23345   0.23575   0.23788   0.24569   0.24750
 Alpha virt. eigenvalues --    0.24916   0.25248   0.25437   0.25798   0.26001
 Alpha virt. eigenvalues --    0.26289   0.26656   0.26835   0.27148   0.27537
 Alpha virt. eigenvalues --    0.27844   0.28023   0.28370   0.28441   0.28633
 Alpha virt. eigenvalues --    0.29182   0.29257   0.29654   0.30069   0.30284
 Alpha virt. eigenvalues --    0.30493   0.31145   0.31865   0.31900   0.32366
 Alpha virt. eigenvalues --    0.33024   0.33182   0.33704   0.33865   0.34694
 Alpha virt. eigenvalues --    0.35081   0.35581   0.36069   0.37165   0.37401
 Alpha virt. eigenvalues --    0.37948   0.38311   0.39152   0.40255   0.40426
 Alpha virt. eigenvalues --    0.41740   0.42888   0.43075   0.45524   0.46363
 Alpha virt. eigenvalues --    0.48824   0.50261   0.55473   0.58044   0.58925
 Alpha virt. eigenvalues --    0.61006   0.64145   0.66365   0.66732   0.67229
 Alpha virt. eigenvalues --    0.68427   0.68723   0.69389   0.69845   0.70066
 Alpha virt. eigenvalues --    0.70854   0.71568   0.71889   0.72919   0.73093
 Alpha virt. eigenvalues --    0.73451   0.73699   0.74542   0.75268   0.75600
 Alpha virt. eigenvalues --    0.76642   0.77093   0.77778   0.78754   0.79889
 Alpha virt. eigenvalues --    0.80127   0.80293   0.81280   0.82217   0.83094
 Alpha virt. eigenvalues --    0.83855   0.84193   0.85791   0.87123   0.87625
 Alpha virt. eigenvalues --    0.88192   0.88749   0.89083   0.89504   0.90266
 Alpha virt. eigenvalues --    0.91863   0.91983   0.92679   0.93368   0.93512
 Alpha virt. eigenvalues --    0.93934   0.95141   0.96418   0.97038   0.98048
 Alpha virt. eigenvalues --    0.98702   0.99771   1.00361   1.01522   1.01924
 Alpha virt. eigenvalues --    1.02391   1.02888   1.03937   1.04215   1.04803
 Alpha virt. eigenvalues --    1.06485   1.06666   1.07946   1.08963   1.10598
 Alpha virt. eigenvalues --    1.10856   1.11172   1.12462   1.13939   1.15312
 Alpha virt. eigenvalues --    1.15718   1.16806   1.17211   1.18335   1.19978
 Alpha virt. eigenvalues --    1.20861   1.21197   1.22185   1.22650   1.23878
 Alpha virt. eigenvalues --    1.25440   1.26754   1.27494   1.28126   1.29908
 Alpha virt. eigenvalues --    1.31598   1.31990   1.32654   1.35060   1.35693
 Alpha virt. eigenvalues --    1.36783   1.37761   1.38800   1.39342   1.39835
 Alpha virt. eigenvalues --    1.40848   1.40944   1.41813   1.43036   1.45703
 Alpha virt. eigenvalues --    1.46297   1.47520   1.48475   1.51802   1.53057
 Alpha virt. eigenvalues --    1.55740   1.55962   1.56439   1.59824   1.61698
 Alpha virt. eigenvalues --    1.65373   1.69920   1.72415   1.75100   1.76656
 Alpha virt. eigenvalues --    1.77616   1.78817   1.79779   1.80654   1.81542
 Alpha virt. eigenvalues --    1.82941   1.83821   1.84405   1.86311   1.87728
 Alpha virt. eigenvalues --    1.87751   1.88497   1.89283   1.90924   1.91290
 Alpha virt. eigenvalues --    1.92814   1.93187   1.93785   1.94274   1.95122
 Alpha virt. eigenvalues --    1.95474   1.96694   1.97024   1.97295   1.98362
 Alpha virt. eigenvalues --    2.00359   2.00963   2.01767   2.02683   2.03280
 Alpha virt. eigenvalues --    2.03428   2.04397   2.05140   2.05804   2.06463
 Alpha virt. eigenvalues --    2.07192   2.09871   2.10585   2.12095   2.12486
 Alpha virt. eigenvalues --    2.14099   2.14213   2.14704   2.17268   2.17904
 Alpha virt. eigenvalues --    2.19016   2.20949   2.21768   2.22717   2.26572
 Alpha virt. eigenvalues --    2.26776   2.27993   2.29098   2.30438   2.31091
 Alpha virt. eigenvalues --    2.32186   2.33957   2.34378   2.37076   2.38686
 Alpha virt. eigenvalues --    2.39288   2.39955   2.39983   2.42100   2.43685
 Alpha virt. eigenvalues --    2.44285   2.44835   2.46052   2.46907   2.49411
 Alpha virt. eigenvalues --    2.50674   2.51504   2.53827   2.54171   2.56260
 Alpha virt. eigenvalues --    2.56772   2.57315   2.57955   2.58697   2.59078
 Alpha virt. eigenvalues --    2.59520   2.60818   2.61319   2.61470   2.62729
 Alpha virt. eigenvalues --    2.64251   2.64912   2.65533   2.69019   2.69947
 Alpha virt. eigenvalues --    2.71312   2.72386   2.74028   2.74880   2.75735
 Alpha virt. eigenvalues --    2.77866   2.78801   2.80126   2.80332   2.82661
 Alpha virt. eigenvalues --    2.83232   2.83660   2.85211   2.87777   2.90252
 Alpha virt. eigenvalues --    2.92045   2.93652   2.94785   2.98560   2.99806
 Alpha virt. eigenvalues --    3.03288   3.06197   3.06894   3.08044   3.08228
 Alpha virt. eigenvalues --    3.16377   3.19692   3.23068   3.24485   3.26938
 Alpha virt. eigenvalues --    3.27393   3.28209   3.29123   3.32510   3.33697
 Alpha virt. eigenvalues --    3.35575   3.36104   3.38412   3.40465   3.44365
 Alpha virt. eigenvalues --    3.46518   3.48268   3.49482   3.49644   3.51929
 Alpha virt. eigenvalues --    3.52342   3.55134   3.81900   3.85681   4.25018
 Alpha virt. eigenvalues --    4.29681   4.30797   4.33171   4.35375   4.41404
 Alpha virt. eigenvalues --    4.43484   4.44077   4.45890   4.49881   4.51038
 Alpha virt. eigenvalues --    4.53799   4.57847   4.60803   4.63379   4.66270
 Alpha virt. eigenvalues --    4.71852   4.85985   4.89677   4.92340
          Condensed to atoms (all electrons):
               1          2          3          4          5          6
     1  C    5.223300   0.144820   0.007863  -0.057588  -0.018314   0.065219
     2  N    0.144820   7.457189   0.243371  -0.408545  -0.320284   0.456538
     3  C    0.007863   0.243371   9.571639  -3.103298  -0.598454   2.282474
     4  C   -0.057588  -0.408545  -3.103298  13.867481  -0.653469  -2.132389
     5  C   -0.018314  -0.320284  -0.598454  -0.653469   7.990125  -2.328915
     6  C    0.065219   0.456538   2.282474  -2.132389  -2.328915  21.878935
     7  C   -0.055965  -0.130056  -2.416570   0.873453   1.335475 -12.761382
     8  C   -0.015562  -0.038822   0.592457  -0.210942  -0.379390   4.149251
     9  C   -0.003120  -0.021810  -0.145088   0.093320   0.377151  -1.374538
    10  C    0.001430   0.003358  -0.017632  -0.084548  -0.002599  -0.662387
    11  C   -0.000020   0.000298  -0.010441  -0.004644   0.005198  -0.946861
    12  N    0.000000   0.000000   0.000047   0.000257  -0.000034   0.013685
    13  C    0.006565   0.052101   0.042611  -0.215144  -0.164325   1.844466
    14  C    0.038600   0.113478  -0.143587   0.301690  -0.427661  -3.088092
    15  C   -0.220152   0.143624   0.124332  -2.064200  -0.433121  -0.100404
    16  C    0.088621  -0.470122  -1.590710   2.264711   0.959104  -2.264452
    17  C   -0.017404   0.019692  -0.055636   0.109911  -0.141391   0.019410
    18  C    0.005626  -0.040531  -0.082259  -0.039478   0.018799  -0.096637
    19  C    0.083827   0.033900   0.302317  -0.557892   0.212979   0.178920
    20  C   -0.313026   0.051065   0.473120  -1.473682  -0.389321   0.621587
    21  H    0.399891  -0.058395   0.016196  -0.000686  -0.000889   0.001561
    22  H    0.418089  -0.041907   0.028124  -0.027711  -0.001262   0.008371
    23  H    0.441848  -0.086054  -0.016758   0.004310   0.005131  -0.009188
    24  H   -0.012723  -0.041440   0.501163  -0.148370  -0.047555   0.144706
    25  H    0.026683  -0.106516   0.541898  -0.137804   0.077834  -0.076153
    26  H   -0.000273  -0.003181   0.035594  -0.070848   0.445907  -0.020687
    27  H   -0.000388  -0.001709  -0.076037  -0.138131   0.573486  -0.021973
    28  H    0.000283  -0.000927   0.040609  -0.166054   0.457037  -0.020112
    29  H    0.006988   0.025557  -0.035371   0.023512   0.003391   0.566370
    30  H   -0.002695  -0.013154  -0.030214  -0.058375   0.017551   0.474515
    31  H   -0.000024  -0.000214   0.002843   0.005873   0.023061  -0.081530
    32  H    0.000000   0.000002   0.000008   0.001328  -0.000725  -0.004479
    33  H   -0.000004  -0.000023  -0.000138  -0.001172   0.001013  -0.004514
    34  H    0.000767   0.001099  -0.001800  -0.009165  -0.000890  -0.095092
    35  H    0.000306  -0.000386   0.005302  -0.022984  -0.015455   0.002803
    36  H    0.000110   0.000509   0.002110  -0.004449  -0.001237  -0.000004
    37  H   -0.000277  -0.001157  -0.000371   0.001149   0.000510  -0.000863
    38  H   -0.007843  -0.018184   0.000039   0.014444   0.000615  -0.001550
               7          8          9         10         11         12
     1  C   -0.055965  -0.015562  -0.003120   0.001430  -0.000020   0.000000
     2  N   -0.130056  -0.038822  -0.021810   0.003358   0.000298   0.000000
     3  C   -2.416570   0.592457  -0.145088  -0.017632  -0.010441   0.000047
     4  C    0.873453  -0.210942   0.093320  -0.084548  -0.004644   0.000257
     5  C    1.335475  -0.379390   0.377151  -0.002599   0.005198  -0.000034
     6  C  -12.761382   4.149251  -1.374538  -0.662387  -0.946861   0.013685
     7  C   26.068989  -6.059674   1.316414  -1.305244  -0.600665   0.058797
     8  C   -6.059674  19.066822  -4.443420   0.998569  -0.255697  -0.007356
     9  C    1.316414  -4.443420  12.036578  -0.741354   0.270055  -0.043765
    10  C   -1.305244   0.998569  -0.741354  10.759951  -4.825556   0.959226
    11  C   -0.600665  -0.255697   0.270055  -4.825556  13.368410  -0.769601
    12  N    0.058797  -0.007356  -0.043765   0.959226  -0.769601   7.368353
    13  C    0.342820   1.415684  -3.522180  -1.122759  -0.551151  -0.017396
    14  C   -2.859453  -8.602543   1.870962   1.563446   0.465832  -0.019360
    15  C   -0.284718  -0.459932   0.206906  -0.121989  -0.031679   0.000826
    16  C    3.011675   0.779489  -0.026186   0.067209   0.043007  -0.000778
    17  C   -0.244879  -0.010694  -0.010634  -0.004409   0.021979  -0.000353
    18  C    0.089349   0.060155  -0.013903   0.010390   0.006221  -0.000055
    19  C   -0.202417  -0.196018  -0.011873  -0.013965  -0.006022   0.000015
    20  C   -0.842689  -0.450954   0.017589   0.085247  -0.017335   0.000141
    21  H   -0.002432   0.000319  -0.000012  -0.000007  -0.000000   0.000000
    22  H   -0.003460  -0.000067  -0.000014  -0.000007  -0.000000  -0.000000
    23  H    0.001022  -0.000164   0.000019   0.000003  -0.000000   0.000000
    24  H   -0.101716   0.013469  -0.001735  -0.000826  -0.000038  -0.000000
    25  H    0.007572  -0.000690   0.001276   0.000124   0.000005   0.000000
    26  H   -0.073479   0.051117   0.006282   0.000978  -0.000207   0.000000
    27  H    0.021971  -0.003483   0.000796  -0.000364   0.000010  -0.000000
    28  H    0.007944  -0.023889   0.002222   0.006589   0.001389   0.000001
    29  H   -0.232720  -0.109199  -0.015285  -0.001934  -0.001020   0.000000
    30  H   -0.222166   0.180576   0.062489  -0.006146  -0.001429   0.000001
    31  H    0.165944   0.131722   0.030625  -0.021111  -0.002544   0.000024
    32  H    0.032328  -0.028759   0.224018   0.070819  -0.037319   0.000605
    33  H    0.036835  -0.012529   0.055280   0.085325  -0.040864   0.000826
    34  H    0.275395   0.077000  -0.026469  -0.016296   0.000692   0.000018
    35  H   -0.044025  -0.022197   0.004620  -0.000925   0.000819  -0.000000
    36  H   -0.004086  -0.000137   0.000078   0.000558  -0.000033   0.000000
    37  H    0.001040   0.000004   0.000005  -0.000029  -0.000001   0.000000
    38  H   -0.001041  -0.000113   0.000001  -0.000007   0.000001  -0.000000
              13         14         15         16         17         18
     1  C    0.006565   0.038600  -0.220152   0.088621  -0.017404   0.005626
     2  N    0.052101   0.113478   0.143624  -0.470122   0.019692  -0.040531
     3  C    0.042611  -0.143587   0.124332  -1.590710  -0.055636  -0.082259
     4  C   -0.215144   0.301690  -2.064200   2.264711   0.109911  -0.039478
     5  C   -0.164325  -0.427661  -0.433121   0.959104  -0.141391   0.018799
     6  C    1.844466  -3.088092  -0.100404  -2.264452   0.019410  -0.096637
     7  C    0.342820  -2.859453  -0.284718   3.011675  -0.244879   0.089349
     8  C    1.415684  -8.602543  -0.459932   0.779489  -0.010694   0.060155
     9  C   -3.522180   1.870962   0.206906  -0.026186  -0.010634  -0.013903
    10  C   -1.122759   1.563446  -0.121989   0.067209  -0.004409   0.010390
    11  C   -0.551151   0.465832  -0.031679   0.043007   0.021979   0.006221
    12  N   -0.017396  -0.019360   0.000826  -0.000778  -0.000353  -0.000055
    13  C   14.136939  -6.057855   0.606286  -0.541776   0.001482  -0.016159
    14  C   -6.057855  22.574529   0.245716  -1.886861   0.392859  -0.046539
    15  C    0.606286   0.245716  22.877792 -13.883341   0.834071  -1.269257
    16  C   -0.541776  -1.886861 -13.883341  21.340594  -1.409978   0.788514
    17  C    0.001482   0.392859   0.834071  -1.409978   6.472127   0.370344
    18  C   -0.016159  -0.046539  -1.269257   0.788514   0.370344   5.702166
    19  C    0.100590  -0.026838  -0.168689   1.576804  -0.599746   0.074371
    20  C   -0.273773   1.197612  -0.873561  -2.551809   0.171819   0.464164
    21  H    0.000021  -0.000749  -0.002276  -0.001630  -0.000531  -0.005772
    22  H    0.000151   0.000107  -0.038025  -0.004519  -0.000689   0.003718
    23  H   -0.000087   0.000614   0.021373   0.004739   0.003393   0.005852
    24  H    0.001446  -0.013299  -0.014438  -0.008400  -0.000584   0.000751
    25  H   -0.001308   0.000789   0.035201  -0.030627   0.002294  -0.005863
    26  H   -0.000877  -0.011961  -0.006305  -0.004172  -0.003904  -0.000013
    27  H    0.000505  -0.011444  -0.033933   0.060792   0.020192   0.000720
    28  H   -0.009824   0.030666   0.102126  -0.087671  -0.020202  -0.002314
    29  H    0.035501   0.167018  -0.099256  -0.002670   0.000146  -0.001808
    30  H   -0.012736  -0.172979   0.062392   0.007835   0.000723   0.000419
    31  H   -0.016058   0.065596  -0.006270  -0.003592   0.000242  -0.000076
    32  H    0.053744  -0.005097  -0.001230   0.000522   0.000051  -0.000014
    33  H    0.219630  -0.036595   0.002554   0.001867  -0.002535  -0.000527
    34  H    0.026638   0.044663  -0.103832   0.120189  -0.012029   0.003396
    35  H    0.002304   0.058075   0.185548   0.067147   0.029315   0.002808
    36  H   -0.000409   0.004648   0.049353  -0.016750   0.289344  -0.022809
    37  H   -0.000486  -0.000552  -0.024816   0.033307   0.011512   0.273370
    38  H    0.000304   0.000942   0.062822  -0.034193   0.019382   0.053678
              19         20         21         22         23         24
     1  C    0.083827  -0.313026   0.399891   0.418089   0.441848  -0.012723
     2  N    0.033900   0.051065  -0.058395  -0.041907  -0.086054  -0.041440
     3  C    0.302317   0.473120   0.016196   0.028124  -0.016758   0.501163
     4  C   -0.557892  -1.473682  -0.000686  -0.027711   0.004310  -0.148370
     5  C    0.212979  -0.389321  -0.000889  -0.001262   0.005131  -0.047555
     6  C    0.178920   0.621587   0.001561   0.008371  -0.009188   0.144706
     7  C   -0.202417  -0.842689  -0.002432  -0.003460   0.001022  -0.101716
     8  C   -0.196018  -0.450954   0.000319  -0.000067  -0.000164   0.013469
     9  C   -0.011873   0.017589  -0.000012  -0.000014   0.000019  -0.001735
    10  C   -0.013965   0.085247  -0.000007  -0.000007   0.000003  -0.000826
    11  C   -0.006022  -0.017335  -0.000000  -0.000000  -0.000000  -0.000038
    12  N    0.000015   0.000141   0.000000  -0.000000   0.000000  -0.000000
    13  C    0.100590  -0.273773   0.000021   0.000151  -0.000087   0.001446
    14  C   -0.026838   1.197612  -0.000749   0.000107   0.000614  -0.013299
    15  C   -0.168689  -0.873561  -0.002276  -0.038025   0.021373  -0.014438
    16  C    1.576804  -2.551809  -0.001630  -0.004519   0.004739  -0.008400
    17  C   -0.599746   0.171819  -0.000531  -0.000689   0.003393  -0.000584
    18  C    0.074371   0.464164  -0.005772   0.003718   0.005852   0.000751
    19  C   12.111838  -7.070747  -0.032260   0.012510   0.065465   0.010699
    20  C   -7.070747  17.731096   0.043529   0.002417  -0.100585   0.041288
    21  H   -0.032260   0.043529   0.559002  -0.020994  -0.037459   0.003053
    22  H    0.012510   0.002417  -0.020994   0.557962  -0.038096   0.000105
    23  H    0.065465  -0.100585  -0.037459  -0.038096   0.584707  -0.000969
    24  H    0.010699   0.041288   0.003053   0.000105  -0.000969   0.583861
    25  H    0.018310  -0.058285  -0.001750  -0.000243   0.007443  -0.048353
    26  H    0.002185  -0.000653   0.000000   0.000000   0.000000   0.001003
    27  H    0.002917  -0.043664   0.000000   0.000000  -0.000001   0.000057
    28  H    0.005962   0.031297   0.000000  -0.000000   0.000000  -0.000130
    29  H   -0.021262   0.008475  -0.000017   0.000003   0.000007  -0.000693
    30  H   -0.001136   0.008583  -0.000002   0.000000   0.000000   0.001955
    31  H    0.000583   0.000047   0.000000   0.000000  -0.000000  -0.000000
    32  H    0.000023  -0.000060   0.000000   0.000000  -0.000000  -0.000000
    33  H    0.000371   0.000787  -0.000000  -0.000000   0.000000  -0.000000
    34  H   -0.003340   0.013107   0.000000   0.000000  -0.000000   0.000001
    35  H   -0.037835   0.075725  -0.000000   0.000000   0.000000  -0.000001
    36  H    0.023145  -0.006962  -0.000000   0.000000   0.000000  -0.000000
    37  H    0.032262  -0.013699  -0.000000   0.000003  -0.000000  -0.000000
    38  H    0.209759  -0.000048  -0.000005   0.000611  -0.000070  -0.000000
              25         26         27         28         29         30
     1  C    0.026683  -0.000273  -0.000388   0.000283   0.006988  -0.002695
     2  N   -0.106516  -0.003181  -0.001709  -0.000927   0.025557  -0.013154
     3  C    0.541898   0.035594  -0.076037   0.040609  -0.035371  -0.030214
     4  C   -0.137804  -0.070848  -0.138131  -0.166054   0.023512  -0.058375
     5  C    0.077834   0.445907   0.573486   0.457037   0.003391   0.017551
     6  C   -0.076153  -0.020687  -0.021973  -0.020112   0.566370   0.474515
     7  C    0.007572  -0.073479   0.021971   0.007944  -0.232720  -0.222166
     8  C   -0.000690   0.051117  -0.003483  -0.023889  -0.109199   0.180576
     9  C    0.001276   0.006282   0.000796   0.002222  -0.015285   0.062489
    10  C    0.000124   0.000978  -0.000364   0.006589  -0.001934  -0.006146
    11  C    0.000005  -0.000207   0.000010   0.001389  -0.001020  -0.001429
    12  N    0.000000   0.000000  -0.000000   0.000001   0.000000   0.000001
    13  C   -0.001308  -0.000877   0.000505  -0.009824   0.035501  -0.012736
    14  C    0.000789  -0.011961  -0.011444   0.030666   0.167018  -0.172979
    15  C    0.035201  -0.006305  -0.033933   0.102126  -0.099256   0.062392
    16  C   -0.030627  -0.004172   0.060792  -0.087671  -0.002670   0.007835
    17  C    0.002294  -0.003904   0.020192  -0.020202   0.000146   0.000723
    18  C   -0.005863  -0.000013   0.000720  -0.002314  -0.001808   0.000419
    19  C    0.018310   0.002185   0.002917   0.005962  -0.021262  -0.001136
    20  C   -0.058285  -0.000653  -0.043664   0.031297   0.008475   0.008583
    21  H   -0.001750   0.000000   0.000000   0.000000  -0.000017  -0.000002
    22  H   -0.000243   0.000000   0.000000  -0.000000   0.000003   0.000000
    23  H    0.007443   0.000000  -0.000001   0.000000   0.000007   0.000000
    24  H   -0.048353   0.001003   0.000057  -0.000130  -0.000693   0.001955
    25  H    0.608461  -0.000243   0.002706   0.000214   0.000124   0.000157
    26  H   -0.000243   0.564697  -0.027537  -0.030930   0.000039   0.003477
    27  H    0.002706  -0.027537   0.544120  -0.024371  -0.000150   0.000197
    28  H    0.000214  -0.030930  -0.024371   0.537514  -0.000054   0.000001
    29  H    0.000124   0.000039  -0.000150  -0.000054   0.548799  -0.034386
    30  H    0.000157   0.003477   0.000197   0.000001  -0.034386   0.590531
    31  H    0.000001  -0.000211   0.000054  -0.000492   0.000116   0.002847
    32  H    0.000000   0.000000  -0.000000  -0.000014   0.000002  -0.000005
    33  H    0.000000   0.000000   0.000000  -0.000000  -0.000003   0.000002
    34  H    0.000000  -0.000000   0.000000  -0.000015   0.002395   0.000146
    35  H   -0.000008  -0.000043  -0.000110   0.000409   0.000015  -0.000022
    36  H    0.000000  -0.000000  -0.000000   0.000001   0.000000  -0.000000
    37  H    0.000000  -0.000000   0.000000  -0.000000  -0.000000   0.000000
    38  H   -0.000004  -0.000000   0.000000   0.000000   0.000008  -0.000000
              31         32         33         34         35         36
     1  C   -0.000024   0.000000  -0.000004   0.000767   0.000306   0.000110
     2  N   -0.000214   0.000002  -0.000023   0.001099  -0.000386   0.000509
     3  C    0.002843   0.000008  -0.000138  -0.001800   0.005302   0.002110
     4  C    0.005873   0.001328  -0.001172  -0.009165  -0.022984  -0.004449
     5  C    0.023061  -0.000725   0.001013  -0.000890  -0.015455  -0.001237
     6  C   -0.081530  -0.004479  -0.004514  -0.095092   0.002803  -0.000004
     7  C    0.165944   0.032328   0.036835   0.275395  -0.044025  -0.004086
     8  C    0.131722  -0.028759  -0.012529   0.077000  -0.022197  -0.000137
     9  C    0.030625   0.224018   0.055280  -0.026469   0.004620   0.000078
    10  C   -0.021111   0.070819   0.085325  -0.016296  -0.000925   0.000558
    11  C   -0.002544  -0.037319  -0.040864   0.000692   0.000819  -0.000033
    12  N    0.000024   0.000605   0.000826   0.000018  -0.000000   0.000000
    13  C   -0.016058   0.053744   0.219630   0.026638   0.002304  -0.000409
    14  C    0.065596  -0.005097  -0.036595   0.044663   0.058075   0.004648
    15  C   -0.006270  -0.001230   0.002554  -0.103832   0.185548   0.049353
    16  C   -0.003592   0.000522   0.001867   0.120189   0.067147  -0.016750
    17  C    0.000242   0.000051  -0.002535  -0.012029   0.029315   0.289344
    18  C   -0.000076  -0.000014  -0.000527   0.003396   0.002808  -0.022809
    19  C    0.000583   0.000023   0.000371  -0.003340  -0.037835   0.023145
    20  C    0.000047  -0.000060   0.000787   0.013107   0.075725  -0.006962
    21  H    0.000000   0.000000  -0.000000   0.000000  -0.000000  -0.000000
    22  H    0.000000   0.000000  -0.000000   0.000000   0.000000   0.000000
    23  H   -0.000000  -0.000000   0.000000  -0.000000   0.000000   0.000000
    24  H   -0.000000  -0.000000  -0.000000   0.000001  -0.000001  -0.000000
    25  H    0.000001   0.000000   0.000000   0.000000  -0.000008   0.000000
    26  H   -0.000211   0.000000   0.000000  -0.000000  -0.000043  -0.000000
    27  H    0.000054  -0.000000   0.000000   0.000000  -0.000110  -0.000000
    28  H   -0.000492  -0.000014  -0.000000  -0.000015   0.000409   0.000001
    29  H    0.000116   0.000002  -0.000003   0.002395   0.000015   0.000000
    30  H    0.002847  -0.000005   0.000002   0.000146  -0.000022  -0.000000
    31  H    0.580973  -0.005135   0.000017  -0.000174   0.000007   0.000000
    32  H   -0.005135   0.553989  -0.000148   0.000017  -0.000001  -0.000000
    33  H    0.000017  -0.000148   0.554110  -0.004823  -0.000012  -0.000001
    34  H   -0.000174   0.000017  -0.004823   0.576998  -0.000244  -0.000016
    35  H    0.000007  -0.000001  -0.000012  -0.000244   0.596645  -0.005105
    36  H    0.000000  -0.000000  -0.000001  -0.000016  -0.005105   0.577091
    37  H    0.000000   0.000000   0.000000   0.000001  -0.000181  -0.005411
    38  H   -0.000000  -0.000000  -0.000000  -0.000000   0.000019  -0.000162
              37         38
     1  C   -0.000277  -0.007843
     2  N   -0.001157  -0.018184
     3  C   -0.000371   0.000039
     4  C    0.001149   0.014444
     5  C    0.000510   0.000615
     6  C   -0.000863  -0.001550
     7  C    0.001040  -0.001041
     8  C    0.000004  -0.000113
     9  C    0.000005   0.000001
    10  C   -0.000029  -0.000007
    11  C   -0.000001   0.000001
    12  N    0.000000  -0.000000
    13  C   -0.000486   0.000304
    14  C   -0.000552   0.000942
    15  C   -0.024816   0.062822
    16  C    0.033307  -0.034193
    17  C    0.011512   0.019382
    18  C    0.273370   0.053678
    19  C    0.032262   0.209759
    20  C   -0.013699  -0.000048
    21  H   -0.000000  -0.000005
    22  H    0.000003   0.000611
    23  H   -0.000000  -0.000070
    24  H   -0.000000  -0.000000
    25  H    0.000000  -0.000004
    26  H   -0.000000  -0.000000
    27  H    0.000000   0.000000
    28  H   -0.000000   0.000000
    29  H   -0.000000   0.000008
    30  H    0.000000  -0.000000
    31  H    0.000000  -0.000000
    32  H    0.000000  -0.000000
    33  H    0.000000  -0.000000
    34  H    0.000001  -0.000000
    35  H   -0.000181   0.000019
    36  H   -0.005411  -0.000162
    37  H    0.578391  -0.005453
    38  H   -0.005453   0.590499
 Mulliken charges:
               1
     1  C   -0.235459
     2  N    0.056817
     3  C   -0.489754
     4  C    0.230134
     5  C   -0.579075
     6  C   -0.616611
     7  C    0.801814
     8  C   -0.184402
     9  C   -0.175301
    10  C    0.336872
    11  C   -0.080785
    12  N   -0.544124
    13  C   -0.365483
    14  C    0.273624
    15  C    0.680502
    16  C   -0.395889
    17  C   -0.254692
    18  C   -0.290796
    19  C   -0.109713
    20  C   -0.557839
    21  H    0.142295
    22  H    0.144825
    23  H    0.143504
    24  H    0.137716
    25  H    0.136757
    26  H    0.144245
    27  H    0.154772
    28  H    0.162735
    29  H    0.167364
    30  H    0.141048
    31  H    0.126855
    32  H    0.145529
    33  H    0.145269
    34  H    0.131664
    35  H    0.117664
    36  H    0.120624
    37  H    0.121743
    38  H    0.115550
 Sum of Mulliken charges =  -0.00000
 Mulliken charges with hydrogens summed into heavy atoms:
               1
     1  C    0.195164
     2  N    0.056817
     3  C   -0.215281
     4  C    0.230134
     5  C   -0.117322
     6  C   -0.308199
     7  C    0.801814
     8  C   -0.057546
     9  C   -0.029771
    10  C    0.336872
    11  C   -0.080785
    12  N   -0.544124
    13  C   -0.220214
    14  C    0.405288
    15  C    0.680502
    16  C   -0.278225
    17  C   -0.134068
    18  C   -0.169053
    19  C    0.005837
    20  C   -0.557839
 Electronic spatial extent (au):  <R**2>=           6297.2078
 Charge=             -0.0000 electrons
 Dipole moment (field-independent basis, Debye):
    X=              6.0049    Y=             -2.9973    Z=             -0.2774  Tot=              6.7171
 Quadrupole moment (field-independent basis, Debye-Ang):
   XX=           -151.9591   YY=           -112.7798   ZZ=           -120.7384
   XY=              7.8013   XZ=             -4.9543   YZ=             -3.0455
 Traceless Quadrupole moment (field-independent basis, Debye-Ang):
   XX=            -23.4667   YY=             15.7127   ZZ=              7.7540
   XY=              7.8013   XZ=             -4.9543   YZ=             -3.0455
 Octapole moment (field-independent basis, Debye-Ang**2):
  XXX=            358.8010  YYY=             -6.1254  ZZZ=             -2.7556  XYY=             18.7782
  XXY=            -81.9880  XXZ=            -15.1464  XZZ=              2.6949  YZZ=             -1.6233
  YYZ=              0.9077  XYZ=              4.8525
 Hexadecapole moment (field-independent basis, Debye-Ang**3):
 XXXX=          -8554.2648 YYYY=          -1658.1724 ZZZZ=           -667.3409 XXXY=            467.5950
 XXXZ=           -143.6489 YYYX=             36.6256 YYYZ=              4.0912 ZZZX=            -24.6982
 ZZZY=             -9.3472 XXYY=          -1407.7126 XXZZ=          -1204.2377 YYZZ=           -405.1768
 XXYZ=            -48.2493 YYXZ=            -25.0014 ZZXY=            -22.6334
 N-N= 1.446953751659D+03 E-N=-4.759632048853D+03  KE= 7.984751961886D+02
 Unable to Open any file for archive entry.
 1\1\GINC-N2\SP\RB3LYP TD-FC\6-31+G(d,p)\C18H18N2\HPCMGAC13\25-Aug-2025
 \0\\# td=(50-50,nstates=3) b3lyp/6-31+g(d,p) geom=connectivity\\Title 
 Card Required\\0,1\C,0,4.538948,-0.784985,-1.077631\N,0,3.137662,-0.66
 2778,-0.724643\C,0,2.543739,-1.740969,0.077884\C,0,1.155748,-1.189116,
 0.512289\C,0,0.708849,-1.762056,1.862863\C,0,0.128911,-1.542596,-0.625
 516\C,0,-1.258912,-0.959437,-0.496935\C,0,-2.286277,-1.670276,0.145959
 \C,0,-3.569987,-1.143637,0.263858\C,0,-3.856272,0.12369,-0.27223\C,0,-
 5.176586,0.673483,-0.159121\N,0,-6.248005,1.119406,-0.065403\C,0,-2.84
 2355,0.84396,-0.927167\C,0,-1.564285,0.302059,-1.034797\C,0,1.46612,0.
 304296,0.539581\C,0,0.796518,1.362779,1.138913\C,0,1.289961,2.669447,0
 .984192\C,0,2.444261,2.89363,0.230114\C,0,3.136368,1.834586,-0.374716\
 C,0,2.634872,0.539709,-0.213307\H,0,4.711082,-1.763996,-1.533778\H,0,4
 .81033,-0.023883,-1.81409\H,0,5.207551,-0.682257,-0.204648\H,0,2.47310
 4,-2.666155,-0.50457\H,0,3.163118,-1.940773,0.971174\H,0,0.599571,-2.8
 5226,1.809068\H,0,1.441792,-1.530753,2.641832\H,0,-0.25373,-1.346988,2
 .175581\H,0,0.569654,-1.221189,-1.575416\H,0,0.052162,-2.636644,-0.661
 801\H,0,-2.080748,-2.656734,0.552351\H,0,-4.353092,-1.706915,0.760662\
 H,0,-3.062726,1.819022,-1.34908\H,0,-0.78979,0.866023,-1.545007\H,0,-0
 .098386,1.187915,1.72933\H,0,0.777158,3.502007,1.455623\H,0,2.825511,3
 .904955,0.118932\H,0,4.042115,2.024828,-0.941237\\Version=ES64L-G16Rev
 C.02\State=1-A\HF=-806.3046453\RMSD=6.593e-09\PG=C01 [X(C18H18N2)]\\@
 The archive entry for this job was punched.


 IT IS BY EATING THE LIGHT OF A STAR THAT WE EXIST, 
 IN THE FINAL ANALYSIS, 
 JUST AS IT IS BY PERCEIVING THE LIGHT OF STARS
 THAT WE DEFINE THE WORLD AROUND US.

                                    -- GILBERT GROSVENOR
 Job cpu time:       0 days  1 hours 48 minutes 45.0 seconds.
 Elapsed time:       0 days  0 hours  6 minutes 56.3 seconds.
 File lengths (MBytes):  RWF=   1214 Int=      0 D2E=      0 Chk=     57 Scr=      2
 Normal termination of Gaussian 16 at Mon Aug 25 14:42:24 2025.
