 Entering Gaussian System, Link 0=g16
 Input=M821E.gjf
 Output=M821E.log
 Initial command:
 /hpc/softwares/Gaussian/g16/l1.exe "/hpc/home/hpcmgac13/pbs.13416.admin1.x8z/Gau-374456.inp" -scrdir="/hpc/home/hpcmgac13/pbs.13416.admin1.x8z/"
 Default linda workers: n1
 Default is to use  16 SMP processors on each worker.
 Entering Link 1 = /hpc/softwares/Gaussian/g16/l1.exe PID=    374457.
  
 Copyright (c) 1988-2021, Gaussian, Inc.  All Rights Reserved.
  
 This is part of the Gaussian(R) 16 program.  It is based on
 the Gaussian(R) 09 system (copyright 2009, Gaussian, Inc.),
 the Gaussian(R) 03 system (copyright 2003, Gaussian, Inc.),
 the Gaussian(R) 98 system (copyright 1998, Gaussian, Inc.),
 the Gaussian(R) 94 system (copyright 1995, Gaussian, Inc.),
 the Gaussian 92(TM) system (copyright 1992, Gaussian, Inc.),
 the Gaussian 90(TM) system (copyright 1990, Gaussian, Inc.),
 the Gaussian 88(TM) system (copyright 1988, Gaussian, Inc.),
 the Gaussian 86(TM) system (copyright 1986, Carnegie Mellon
 University), and the Gaussian 82(TM) system (copyright 1983,
 Carnegie Mellon University). Gaussian is a federally registered
 trademark of Gaussian, Inc.
  
 This software contains proprietary and confidential information,
 including trade secrets, belonging to Gaussian, Inc.
  
 This software is provided under written license and may be
 used, copied, transmitted, or stored only in accord with that
 written license.
  
 The following legend is applicable only to US Government
 contracts under FAR:
  
                    RESTRICTED RIGHTS LEGEND
  
 Use, reproduction and disclosure by the US Government is
 subject to restrictions as set forth in subparagraphs (a)
 and (c) of the Commercial Computer Software - Restricted
 Rights clause in FAR 52.227-19.
  
 Gaussian, Inc.
 340 Quinnipiac St., Bldg. 40, Wallingford CT 06492
  
  
 ---------------------------------------------------------------
 Warning -- This program may not be used in any manner that
 competes with the business of Gaussian, Inc. or will provide
 assistance to any competitor of Gaussian, Inc.  The licensee
 of this program is prohibited from giving any competitor of
 Gaussian, Inc. access to this program.  By using this program,
 the user acknowledges that Gaussian, Inc. is engaged in the
 business of creating and licensing software in the field of
 computational chemistry and represents and warrants to the
 licensee that it is not a competitor of Gaussian, Inc. and that
 it will not use this program in any manner prohibited above.
 ---------------------------------------------------------------
  

 Cite this work as:
 Gaussian 16, Revision C.02,
 M. J. Frisch, G. W. Trucks, H. B. Schlegel, G. E. Scuseria, 
 M. A. Robb, J. R. Cheeseman, G. Scalmani, V. Barone, 
 G. A. Petersson, H. Nakatsuji, X. Li, M. Caricato, A. V. Marenich, 
 J. Bloino, B. G. Janesko, R. Gomperts, B. Mennucci, H. P. Hratchian, 
 J. V. Ortiz, A. F. Izmaylov, J. L. Sonnenberg, D. Williams-Young, 
 F. Ding, F. Lipparini, F. Egidi, J. Goings, B. Peng, A. Petrone, 
 T. Henderson, D. Ranasinghe, V. G. Zakrzewski, J. Gao, N. Rega, 
 G. Zheng, W. Liang, M. Hada, M. Ehara, K. Toyota, R. Fukuda, 
 J. Hasegawa, M. Ishida, T. Nakajima, Y. Honda, O. Kitao, H. Nakai, 
 T. Vreven, K. Throssell, J. A. Montgomery, Jr., J. E. Peralta, 
 F. Ogliaro, M. J. Bearpark, J. J. Heyd, E. N. Brothers, K. N. Kudin, 
 V. N. Staroverov, T. A. Keith, R. Kobayashi, J. Normand, 
 K. Raghavachari, A. P. Rendell, J. C. Burant, S. S. Iyengar, 
 J. Tomasi, M. Cossi, J. M. Millam, M. Klene, C. Adamo, R. Cammi, 
 J. W. Ochterski, R. L. Martin, K. Morokuma, O. Farkas, 
 J. B. Foresman, and D. J. Fox, Gaussian, Inc., Wallingford CT, 2019.
 
 ******************************************
 Gaussian 16:  ES64L-G16RevC.02  7-Dec-2021
                25-Aug-2025 
 ******************************************
 SetLPE:    new flags="-opt 'Tsnet.Node.lindarsharg: ssh'  -nodelist 'n1' -env GAUSS_MDEF=4294967296 -env GAUSS_EXEDIR="/hpc/softwares/Gaussian/g16/bsd:/hpc/softwares/Gaussian/g16""
 Will use up to    1 processors via Linda.
 ----------------------------------------------------------
 # td=(50-50,nstates=3) b3lyp/6-31+g(d,p) geom=connectivity
 ----------------------------------------------------------
 1/38=1,57=2,172=1/1;
 2/12=2,17=6,18=5,40=1/2;
 3/5=1,6=6,7=111,11=9,25=1,30=1,74=-5/1,2,3,8;
 4//1;
 5/5=2,38=5/2;
 8/6=1,10=2,108=3/1;
 9/41=3,42=1,48=2,70=2/14;
 6/7=2,8=2,9=2,10=2/1;
 99/5=1,9=1/99;
 -------------------
 Title Card Required
 -------------------
 Symbolic Z-matrix:
 Charge =  0 Multiplicity = 1
 C                     7.31401   0.20709   2.30948 
 C                     6.11852  -0.32637   1.55725 
 C                     5.40487   0.48289   0.66359 
 C                     4.29875  -0.01592  -0.02688 
 S                     3.55415   1.08162  -1.26352 
 O                     4.43505   2.2508   -1.40876 
 O                     3.16112   0.25253  -2.41482 
 C                     3.87235  -1.34546   0.13779 
 C                     2.69781  -1.98027  -0.56875 
 O                     2.84456  -3.02631  -1.17982 
 C                     1.33373  -1.37356  -0.41039 
 C                     0.38377  -1.56102  -1.42458 
 C                    -0.90176  -1.05072  -1.28125 
 C                    -1.27092  -0.36078  -0.11203 
 C                    -2.66818   0.12673   0.05744 
 C                    -3.67731  -0.79557   0.04632 
 C                    -5.0591   -0.45412   0.27706 
 C                    -6.0566   -1.42263   0.24144 
 C                    -7.42392  -1.10212   0.49775 
 N                    -8.53709  -0.83137   0.70882 
 C                    -5.77167  -2.78985  -0.05399 
 N                    -5.53148  -3.90385  -0.29541 
 C                    -5.36439   0.92511   0.57812 
 C                    -4.38538   1.8608    0.57807 
 C                    -3.00454   1.54021   0.25748 
 C                    -2.11026   2.59786   0.10616 
 C                    -0.75346   2.51395  -0.33317 
 N                     0.35178   2.57384  -0.69475 
 C                    -2.52851   3.94675   0.3465 
 N                    -2.85706   5.0457    0.54848 
 C                    -0.32975  -0.20735   0.9166 
 C                     0.96662  -0.69576   0.76128 
 C                     4.60941  -2.15949   1.00948 
 C                     5.70193  -1.65628   1.71346 
 H                     7.49921   1.25739   2.07139 
 H                     7.16648   0.12628   3.39239 
 H                     8.21873  -0.35943   2.06176 
 H                     5.72052   1.50339   0.47117 
 H                     2.4039    1.51714  -0.66896 
 H                     0.67518  -2.09038  -2.32502 
 H                    -1.6224   -1.16913  -2.08488 
 H                    -3.42522  -1.84003  -0.10608 
 H                    -6.38948   1.2078    0.79275 
 H                    -4.6372    2.89471   0.78637 
 H                    -0.60822   0.2936    1.83934 
 H                     1.68626  -0.56787   1.56423 
 H                     4.31368  -3.19734   1.1271 
 H                     6.24709  -2.31319   2.38657 
 
                          Input orientation:                          
 ---------------------------------------------------------------------
 Center     Atomic      Atomic             Coordinates (Angstroms)
 Number     Number       Type             X           Y           Z
 ---------------------------------------------------------------------
      1          6           0        7.314007    0.207086    2.309476
      2          6           0        6.118515   -0.326372    1.557251
      3          6           0        5.404871    0.482894    0.663587
      4          6           0        4.298745   -0.015922   -0.026876
      5         16           0        3.554149    1.081620   -1.263524
      6          8           0        4.435049    2.250802   -1.408759
      7          8           0        3.161120    0.252530   -2.414819
      8          6           0        3.872353   -1.345460    0.137794
      9          6           0        2.697811   -1.980270   -0.568747
     10          8           0        2.844563   -3.026310   -1.179821
     11          6           0        1.333726   -1.373556   -0.410386
     12          6           0        0.383771   -1.561023   -1.424575
     13          6           0       -0.901755   -1.050723   -1.281246
     14          6           0       -1.270918   -0.360782   -0.112025
     15          6           0       -2.668177    0.126729    0.057437
     16          6           0       -3.677313   -0.795569    0.046322
     17          6           0       -5.059104   -0.454115    0.277056
     18          6           0       -6.056600   -1.422634    0.241439
     19          6           0       -7.423918   -1.102120    0.497746
     20          7           0       -8.537088   -0.831368    0.708819
     21          6           0       -5.771666   -2.789853   -0.053992
     22          7           0       -5.531477   -3.903847   -0.295411
     23          6           0       -5.364388    0.925113    0.578124
     24          6           0       -4.385384    1.860803    0.578066
     25          6           0       -3.004541    1.540210    0.257478
     26          6           0       -2.110258    2.597855    0.106162
     27          6           0       -0.753463    2.513954   -0.333168
     28          7           0        0.351783    2.573837   -0.694750
     29          6           0       -2.528505    3.946750    0.346504
     30          7           0       -2.857064    5.045704    0.548475
     31          6           0       -0.329753   -0.207349    0.916599
     32          6           0        0.966623   -0.695763    0.761284
     33          6           0        4.609411   -2.159491    1.009483
     34          6           0        5.701932   -1.656276    1.713460
     35          1           0        7.499207    1.257393    2.071389
     36          1           0        7.166485    0.126283    3.392387
     37          1           0        8.218733   -0.359430    2.061761
     38          1           0        5.720523    1.503392    0.471169
     39          1           0        2.403899    1.517143   -0.668962
     40          1           0        0.675175   -2.090385   -2.325015
     41          1           0       -1.622401   -1.169134   -2.084880
     42          1           0       -3.425218   -1.840027   -0.106080
     43          1           0       -6.389480    1.207798    0.792750
     44          1           0       -4.637196    2.894713    0.786374
     45          1           0       -0.608219    0.293601    1.839337
     46          1           0        1.686263   -0.567873    1.564225
     47          1           0        4.313676   -3.197341    1.127102
     48          1           0        6.247091   -2.313189    2.386571
 ---------------------------------------------------------------------
                    Distance matrix (angstroms):
                    1          2          3          4          5
     1  C    0.000000
     2  C    1.509841   0.000000
     3  C    2.535709   1.401012   0.000000
     4  C    3.821005   2.432571   1.396091   0.000000
     5  S    5.260007   4.063888   2.738138   1.813373   0.000000
     6  O    5.127421   4.274705   2.891483   2.658236   1.471076
     7  O    6.290270   4.985845   3.816290   2.658671   1.472190
     8  C    4.355638   2.845811   2.442938   1.405915   2.820579
     9  C    5.863272   4.353902   3.861865   2.591385   3.254412
    10  O    6.527325   5.049751   4.718882   3.536434   4.169605
    11  C    6.757206   5.278484   4.601527   3.283533   3.418481
    12  C    8.068303   6.580497   5.809429   4.434853   4.130472
    13  C    9.053956   7.606967   6.775536   5.448803   4.939867
    14  C    8.937957   7.575710   6.773442   5.580979   5.166018
    15  C   10.233383   8.925284   8.103603   6.968892   6.432270
    16  C   11.266601   9.922767   9.192472   8.014406   7.585089
    17  C   12.556345  11.251417  10.512952   9.373032   8.883693
    18  C   13.627395  12.294982  11.626460  10.453899  10.045034
    19  C   14.906469  13.605948  12.927397  11.784561  11.330876
    20  N   15.965516  14.688824  14.003841  12.882733  12.399503
    21  C   13.630938  12.249132  11.667938  10.445507  10.169665
    22  N   13.736508  12.326922  11.822304  10.574561  10.408685
    23  C   12.816195  11.592324  10.778673   9.727678   9.108044
    24  C   11.941872  10.773784   9.887115   8.905175   8.187476
    25  C   10.604732   9.402324   8.485343   7.472643   6.748345
    26  C    9.969310   8.852653   7.826937   6.922778   6.021670
    27  C    8.797118   7.672367   6.560778   5.658524   4.633861
    28  N    7.943516   6.836514   5.634787   4.767748   3.578458
    29  C   10.710434   9.720928   8.662407   7.902754   6.913743
    30  N   11.400177  10.508941   9.438859   8.783888   7.752481
    31  C    7.780677   6.481108   5.781554   4.727556   4.636709
    32  C    6.595553   5.226089   4.593128   3.490905   3.735536
    33  C    3.821715   2.436754   2.781115   2.401133   4.096943
    34  C    2.534983   1.402351   2.401359   2.772808   4.579463
    35  H    1.092762   2.163090   2.639697   4.033237   5.168755
    36  H    1.095896   2.161218   3.267538   4.464920   5.969853
    37  H    1.095825   2.160217   3.253032   4.454964   5.906986
    38  H    2.756624   2.164719   1.085393   2.139583   2.807174
    39  H    5.890374   4.706691   3.442556   2.520517   1.366111
    40  H    8.416114   6.914744   6.158208   4.766036   4.413261
    41  H   10.053046   8.596345   7.724365   6.373794   5.704138
    42  H   11.196273   9.805134   9.162905   7.936828   7.654232
    43  H   13.823438  12.624899  11.817313  10.789228  10.154799
    44  H   12.344004  11.254109  10.328362   9.433144   8.636407
    45  H    7.936635   6.761131   6.129883   5.258978   5.251098
    46  H    5.729526   4.438832   3.967783   3.108266   3.769083
    47  H    4.689362   3.418323   3.866482   3.384275   4.959988
    48  H    2.737890   2.156790   3.390588   3.859820   5.665674
                    6          7          8          9         10
     6  O    0.000000
     7  O    2.574518   0.000000
     8  C    3.954940   3.094391   0.000000
     9  C    4.650332   2.933945   1.510541   0.000000
    10  O    5.516337   3.517985   2.370173   1.220306   0.000000
    11  C    4.873492   3.162479   2.597290   1.501302   2.367753
    12  C    5.562653   3.461680   3.828533   2.502597   2.874451
    13  C    6.276767   4.414794   4.989254   3.785312   4.236523
    14  C    6.407804   5.032094   5.242636   4.310701   5.018208
    15  C    7.557595   6.333133   6.704650   5.798739   6.470144
    16  C    8.786811   7.343017   7.570218   6.513373   7.001036
    17  C   10.014863   8.678573   8.976904   7.950740   8.438402
    18  C   11.237971   9.737979   9.929794   8.809488   9.155461
    19  C   12.470443  11.061697  11.304624  10.215574  10.581042
    20  N   13.500380  12.156481  12.433205  11.365523  11.744220
    21  C   11.463884   9.727500   9.753469   8.523640   8.692687
    22  N   11.766516   9.865526   9.755256   8.455533   8.468193
    23  C   10.086333   9.060594   9.521910   8.646133   9.278523
    24  C    9.049840   8.276088   8.869283   8.138837   8.902032
    25  C    7.656944   6.842124   7.458759   6.752277   7.558502
    26  C    6.727293   6.296294   7.165359   6.673249   7.604948
    27  C    5.305356   4.977074   6.042769   5.671405   6.660115
    28  N    4.157790   4.029824   5.333707   5.124414   6.149056
    29  C    7.378907   7.324206   8.307950   7.954975   8.934377
    30  N    8.050910   8.244645   9.289816   9.026025  10.032595
    31  C    5.844068   4.847270   4.422616   3.809940   4.734744
    32  C    5.041955   3.975262   3.042057   2.532973   3.567351
    33  C    5.032791   4.431843   1.402049   2.485386   2.942638
    34  C    5.159312   5.209794   2.434479   3.786579   4.290994
    35  H    4.742083   6.320982   4.864946   6.364447   7.112397
    36  H    5.918220   7.055674   4.858982   6.332235   7.037254
    37  H    5.759695   6.781866   4.854372   6.326711   6.819223
    38  H    2.396914   4.055136   3.412159   4.728014   5.613832
    39  H    2.282789   2.284873   3.316882   3.511171   4.593270
    40  H    5.815676   3.417197   4.103936   2.680981   2.625580
    41  H    6.988977   5.001206   5.929898   4.649821   4.921585
    42  H    8.956319   7.286214   7.318375   6.142085   6.470730
    43  H   11.095266  10.120029  10.594966   9.726063  10.348249
    44  H    9.356220   8.834167   9.529541   8.910900   9.741722
    45  H    6.309938   5.683964   5.065303   4.679657   5.662052
    46  H    4.933496   4.322159   2.723662   2.750939   3.862041
    47  H    6.010623   5.076928   2.145451   2.639732   2.740335
    48  H    6.206290   6.257753   3.410701   4.630565   4.980451
                   11         12         13         14         15
    11  C    0.000000
    12  C    1.402190   0.000000
    13  C    2.420742   1.390513   0.000000
    14  C    2.810498   2.429272   1.406904   0.000000
    15  C    4.299412   3.789360   2.509724   1.489536   0.000000
    16  C    5.064895   4.386555   3.087274   2.450480   1.367155
    17  C    6.495092   5.809103   4.479709   3.809258   2.470252
    18  C    7.419178   6.653806   5.387886   4.914796   3.730388
    19  C    8.808786   8.053938   6.760626   6.227424   4.931634
    20  N    9.948847   9.201385   7.893465   7.327514   5.982171
    21  C    7.253931   6.424790   5.314768   5.114732   4.260342
    22  N    7.317555   6.461733   5.526890   5.544304   4.956665
    23  C    7.150228   6.575181   5.222670   4.345840   2.859735
    24  C    6.644271   6.201960   4.906088   3.887360   2.495369
    25  C    5.268457   4.891585   3.674550   2.599183   1.466658
    26  C    5.282041   5.085234   4.086258   3.083120   2.533794
    27  C    4.413055   4.369200   3.691580   2.929295   3.085052
    28  N    4.077620   4.198897   3.879790   3.403633   3.959076
    29  C    6.617807   6.477163   5.501874   4.510721   3.833488
    30  N    7.725868   7.618712   6.658644   5.672937   4.947031
    31  C    2.426539   2.796899   2.422600   1.402641   2.513562
    32  C    1.402490   2.422059   2.790835   2.425174   3.792580
    33  C    3.655658   4.913129   6.070400   6.250712   7.687424
    34  C    4.865375   6.175692   7.276238   7.323342   8.716665
    35  H    7.148025   8.413956   9.335080   9.181551  10.426414
    36  H    7.122617   8.488541   9.398121   9.149202  10.384723
    37  H    7.385342   8.659388   9.738423   9.735442  11.080545
    38  H    5.319582   6.439364   7.310884   7.259167   8.510973
    39  H    3.093262   3.758587   4.230387   4.164260   5.309130
    40  H    2.147868   1.084404   2.158022   3.417035   4.665798
    41  H    3.403587   2.148094   1.085900   2.160817   2.713380
    42  H    4.791424   4.040380   2.893420   2.613276   2.113759
    43  H    8.231576   7.645903   6.286295   5.429433   3.944299
    44  H    7.436549   7.067672   5.813350   4.768354   3.474208
    45  H    3.407612   3.882885   3.410485   2.162221   2.728817
    46  H    2.161596   3.408190   3.876556   3.405528   4.659832
    47  H    3.817088   4.963139   6.132604   6.385076   7.806401
    48  H    5.731233   7.033428   8.133431   8.159371   9.532055
                   16         17         18         19         20
    16  C    0.000000
    17  C    1.441935   0.000000
    18  C    2.468256   1.390790   0.000000
    19  C    3.786133   2.461902   1.427579   0.000000
    20  N    4.904854   3.524927   2.592462   1.164906   0.000000
    21  C    2.893708   2.464348   1.427499   2.425447   3.473486
    22  N    3.635395   3.528669   2.592370   3.472766   4.413876
    23  C    2.467748   1.444337   2.470715   2.890986   3.628820
    24  C    2.800077   2.429681   3.699627   4.244768   4.949902
    25  C    2.439892   2.863380   4.253677   5.154661   6.036321
    26  C    3.738257   4.247284   5.635268   6.486766   7.309371
    27  C    4.432364   5.265012   6.629492   7.632914   8.535909
    28  N    5.304309   6.276193   7.610230   8.683100   9.621718
    29  C    4.888707   5.077043   6.425634   7.034133   7.685360
    30  N    5.919919   5.930485   7.222929   7.658621   8.174861
    31  C    3.508496   4.778773   5.893177   7.162627   8.233646
    32  C    4.699710   6.049980   7.079848   8.404508   9.504823
    33  C    8.453269   9.845046  10.718985  12.090530  13.216836
    34  C    9.565062  10.922836  11.852616  13.193672  14.298233
    35  H   11.542536  12.800784  13.938837  15.190237  16.229057
    36  H   11.385689  12.629615  13.681286  14.925407  15.959976
    37  H   12.073447  13.397578  14.430146  15.738178  16.816977
    38  H    9.684268  10.957640  12.137340  13.400214  14.449465
    39  H    6.545335   7.776710   9.002842  10.237565  11.274705
    40  H    5.122884   6.506159   7.235287   8.633652   9.780341
    41  H    2.983997   4.230948   5.013795   6.350752   7.465369
    42  H    1.085205   2.176495   2.686849   4.110805   5.273772
    43  H    3.453474   2.190387   2.708122   2.548099   2.962678
    44  H    3.884229   3.413511   4.577242   4.880963   5.394335
    45  H    3.717598   4.776000   5.931576   7.085313   8.087681
    46  H    5.578873   6.868022   7.901412   9.187937  10.262459
    47  H    8.413828   9.802901  10.558248  11.939730  13.073443
    48  H   10.308915  11.650590  12.521002  13.853910  14.952678
                   21         22         23         24         25
    21  C    0.000000
    22  N    1.164885   0.000000
    23  C    3.790306   4.910177   0.000000
    24  C    4.893861   5.942027   1.354239   0.000000
    25  C    5.148149   6.027342   2.459682   1.453370   0.000000
    26  C    6.516054   7.357862   3.689197   2.437650   1.393288
    27  C    7.306892   8.001188   4.961401   3.801027   2.522775
    28  N    8.165560   8.759715   6.083840   4.956736   3.638686
    29  C    7.487343   8.429814   4.150442   2.802284   2.454785
    30  N    8.381755   9.378651   4.823570   3.532737   3.520642
    31  C    6.101294   6.495460   5.171517   4.565085   3.262345
    32  C    7.103128   7.323504   6.537774   5.934103   4.585143
    33  C   10.454429  10.372229  10.448805   9.861806   8.498562
    34  C   11.664147  11.630848  11.419982  10.743040   9.388295
    35  H   14.036150  14.214038  12.954240  11.993232  10.662972
    36  H   13.703180  13.823170  12.867827  12.015600  10.736695
    37  H   14.356693  14.394007  13.724154  12.883887  11.525014
    38  H   12.279176  12.507333  11.100500  10.112790   8.727758
    39  H    9.261116   9.617529   7.889994   6.911407   5.487262
    40  H    6.870849   6.777202   7.348317   7.046206   5.778477
    41  H    4.895675   5.095265   5.047765   4.889363   3.838945
    42  H    2.531936   2.954916   3.445942   3.884085   3.425660
    43  H    4.132781   5.296147   1.084799   2.118704   3.443084
    44  H    5.857263   6.941932   2.109858   1.084330   2.186315
    45  H    6.305043   6.812796   4.960908   4.279475   3.130283
    46  H    7.948366   8.165950   7.274138   6.613310   5.306152
    47  H   10.162438   9.972449  10.533799  10.077693   8.761104
    48  H   12.273307  12.184329  12.189484  11.564706  10.245702
                   26         27         28         29         30
    26  C    0.000000
    27  C    1.428616   0.000000
    28  N    2.589147   1.164430   0.000000
    29  C    1.432555   2.380259   3.356361   0.000000
    30  N    2.597176   3.407666   4.237031   1.164664   0.000000
    31  C    3.419967   3.024390   3.285716   4.734560   5.841009
    32  C    4.554591   3.802473   3.631576   5.825881   6.901472
    33  C    8.282649   7.239076   6.590615   9.416770  10.386319
    34  C    9.039433   7.953089   7.233079  10.050003  10.932984
    35  H    9.899534   8.687198   7.776260  10.524394  11.132067
    36  H   10.147212   9.072282   8.314768  10.856620  11.522156
    37  H   10.920529   9.720716   8.836929  11.704205  12.416875
    38  H    7.915315   6.601567   5.597195   8.604185   9.280568
    39  H    4.705993   3.327961   2.308343   5.591312   6.450630
    40  H    5.970666   5.216167   4.951496   7.338091   8.465071
    41  H    4.385074   4.169974   4.454177   5.736281   6.861717
    42  H    4.633461   5.113413   5.839047   5.873305   6.940067
    43  H    4.551418   5.893931   7.037283   4.754800   5.221796
    44  H    2.633672   4.059770   5.214077   2.397258   2.802183
    45  H    3.251093   3.109798   3.541564   4.388798   5.413512
    46  H    5.153771   4.364633   4.093183   6.295152   7.292861
    47  H    8.711690   7.773492   7.233411   9.922843  10.940846
    48  H    9.958107   8.927824   8.254224  10.970861  11.849791
                   31         32         33         34         35
    31  C    0.000000
    32  C    1.394009   0.000000
    33  C    5.311763   3.933701   0.000000
    34  C    6.254247   4.924670   1.393704   0.000000
    35  H    8.048082   6.943043   4.599311   3.442060   0.000000
    36  H    7.901545   6.785039   4.176317   2.853284   1.770635
    37  H    8.626189   7.375463   4.168299   2.852615   1.769725
    38  H    6.303244   5.245952   3.865367   3.395163   2.405189
    39  H    3.600101   3.001386   4.604248   5.159801   5.791300
    40  H    3.881207   3.399287   5.157700   6.462663   8.780854
    41  H    3.406589   3.876567   7.027899   8.265020  10.313406
    42  H    3.646013   4.620598   8.117992   9.308564  11.561939
    43  H    6.224008   7.598473  11.504834  12.460051  13.947509
    44  H    5.309785   6.655444  10.540137  11.334397  12.313584
    45  H    1.086250   2.149690   5.824945   6.605745   8.167809
    46  H    2.147957   1.085795   3.374282   4.163231   6.113847
    47  H    5.526825   4.194577   1.085553   2.155447   5.557332
    48  H    7.060471   5.756819   2.145225   1.087112   3.796866
                   36         37         38         39         40
    36  H    0.000000
    37  H    1.764570   0.000000
    38  H    3.538467   3.498734   0.000000
    39  H    6.411807   6.692583   3.507147   0.000000
    40  H    8.929693   8.896363   6.796279   4.329579   0.000000
    41  H   10.436622  10.709723   8.221576   5.043015   2.487011
    42  H   11.326510  11.936218   9.754806   6.750262   4.669001
    43  H   13.845287  14.746745  12.117878   8.919406   8.396893
    44  H   12.400903  13.322574  10.455500   7.320705   7.921694
    45  H    7.930068   8.853869   6.586991   4.106272   4.967124
    46  H    5.818665   6.554705   4.664779   3.138378   4.297270
    47  H    4.931178   4.916991   4.950390   5.394391   5.136259
    48  H    2.794275   2.794646   4.302596   6.227186   7.300338
                   41         42         43         44         45
    41  H    0.000000
    42  H    2.759691   0.000000
    43  H    6.054387   4.345570   0.000000
    44  H    5.817898   4.968212   2.432329   0.000000
    45  H    4.309018   4.033919   5.945930   4.909905   0.000000
    46  H    4.962332   5.525897   8.304565   7.251254   2.466267
    47  H    7.047515   7.953208  11.579058  10.832697   6.076101
    48  H    9.123138   9.999538  13.214407  12.171712   7.354597
                   46         47         48
    46  H    0.000000
    47  H    3.742790   0.000000
    48  H    4.952124   2.471048   0.000000
 Stoichiometry    C26H14N4O3S
 Framework group  C1[X(C26H14N4O3S)]
 Deg. of freedom   138
 Full point group                 C1      NOp   1
 Largest Abelian subgroup         C1      NOp   1
 Largest concise Abelian subgroup C1      NOp   1
                         Standard orientation:                         
 ---------------------------------------------------------------------
 Center     Atomic      Atomic             Coordinates (Angstroms)
 Number     Number       Type             X           Y           Z
 ---------------------------------------------------------------------
      1          6           0       -7.314007    0.207086   -2.309476
      2          6           0       -6.118515   -0.326372   -1.557251
      3          6           0       -5.404871    0.482894   -0.663587
      4          6           0       -4.298745   -0.015922    0.026876
      5         16           0       -3.554149    1.081620    1.263524
      6          8           0       -4.435049    2.250802    1.408759
      7          8           0       -3.161120    0.252530    2.414819
      8          6           0       -3.872353   -1.345460   -0.137794
      9          6           0       -2.697811   -1.980270    0.568747
     10          8           0       -2.844563   -3.026310    1.179821
     11          6           0       -1.333726   -1.373556    0.410386
     12          6           0       -0.383771   -1.561023    1.424575
     13          6           0        0.901755   -1.050723    1.281246
     14          6           0        1.270918   -0.360782    0.112025
     15          6           0        2.668177    0.126729   -0.057437
     16          6           0        3.677313   -0.795569   -0.046322
     17          6           0        5.059104   -0.454115   -0.277056
     18          6           0        6.056600   -1.422634   -0.241439
     19          6           0        7.423918   -1.102120   -0.497746
     20          7           0        8.537088   -0.831368   -0.708819
     21          6           0        5.771666   -2.789853    0.053992
     22          7           0        5.531477   -3.903847    0.295411
     23          6           0        5.364388    0.925113   -0.578124
     24          6           0        4.385384    1.860803   -0.578066
     25          6           0        3.004541    1.540210   -0.257478
     26          6           0        2.110258    2.597855   -0.106162
     27          6           0        0.753463    2.513954    0.333168
     28          7           0       -0.351783    2.573837    0.694750
     29          6           0        2.528505    3.946750   -0.346504
     30          7           0        2.857064    5.045704   -0.548475
     31          6           0        0.329753   -0.207349   -0.916599
     32          6           0       -0.966623   -0.695763   -0.761284
     33          6           0       -4.609411   -2.159491   -1.009483
     34          6           0       -5.701932   -1.656276   -1.713460
     35          1           0       -7.499207    1.257393   -2.071389
     36          1           0       -7.166485    0.126283   -3.392387
     37          1           0       -8.218733   -0.359430   -2.061761
     38          1           0       -5.720523    1.503392   -0.471169
     39          1           0       -2.403899    1.517143    0.668962
     40          1           0       -0.675175   -2.090385    2.325015
     41          1           0        1.622401   -1.169134    2.084880
     42          1           0        3.425218   -1.840027    0.106080
     43          1           0        6.389480    1.207798   -0.792750
     44          1           0        4.637196    2.894713   -0.786374
     45          1           0        0.608219    0.293601   -1.839337
     46          1           0       -1.686263   -0.567873   -1.564225
     47          1           0       -4.313676   -3.197341   -1.127102
     48          1           0       -6.247091   -2.313189   -2.386571
 ---------------------------------------------------------------------
 Rotational constants (GHZ):           0.2223668           0.0565576           0.0494205
 Standard basis: 6-31+G(d,p) (6D, 7F)
 There are   720 symmetry adapted cartesian basis functions of A   symmetry.
 There are   720 symmetry adapted basis functions of A   symmetry.
   720 basis functions,  1210 primitive gaussians,   720 cartesian basis functions
   119 alpha electrons      119 beta electrons
       nuclear repulsion energy      3265.5021939768 Hartrees.
 NAtoms=   48 NActive=   48 NUniq=   48 SFac= 1.00D+00 NAtFMM=   60 NAOKFM=F Big=F
 Integral buffers will be    131072 words long.
 Regular integral format.
 Two-electron integral symmetry is turned on.
 One-electron integrals computed using PRISM.
 NBasis=   720 RedAO= T EigKep=  1.02D-06  NBF=   720
 NBsUse=   711 1.00D-06 EigRej=  9.15D-07 NBFU=   711
 ExpMin= 4.05D-02 ExpMax= 2.19D+04 ExpMxC= 3.30D+03 IAcc=3 IRadAn=         5 AccDes= 0.00D+00
 Harris functional with IExCor=  402 and IRadAn=       5 diagonalized for initial guess.
 HarFok:  IExCor=  402 AccDes= 0.00D+00 IRadAn=         5 IDoV= 1 UseB2=F ITyADJ=14
 ICtDFT=  3500011 ScaDFX=  1.000000  1.000000  1.000000  1.000000
 FoFCou: FMM=F IPFlag=           0 FMFlag=      100000 FMFlg1=           0
         NFxFlg=           0 DoJE=T BraDBF=F KetDBF=T FulRan=T
         wScrn=  0.000000 ICntrl=       500 IOpCl=  0 I1Cent=   200000004 NGrid=           0
         NMat0=    1 NMatS0=      1 NMatT0=    0 NMatD0=    1 NMtDS0=    0 NMtDT0=    0
 Petite list used in FoFCou.
 Requested convergence on RMS density matrix=1.00D-08 within 128 cycles.
 Requested convergence on MAX density matrix=1.00D-06.
 Requested convergence on             energy=1.00D-06.
 No special actions if energy rises.
 EnCoef did     1 forward-backward iterations
 EnCoef did     2 forward-backward iterations
 EnCoef did     1 forward-backward iterations
 Restarting incremental Fock formation.
 SCF Done:  E(RB3LYP) =  -1841.94716446     A.U. after   22 cycles
            NFock= 22  Conv=0.54D-08     -V/T= 2.0083
 DoSCS=F DFT=T ScalE2(SS,OS)=  1.000000  1.000000
 ExpMin= 4.05D-02 ExpMax= 2.19D+04 ExpMxC= 3.30D+03 IAcc=3 IRadAn=         5 AccDes= 0.00D+00
 HarFok:  IExCor=  205 AccDes= 0.00D+00 IRadAn=         5 IDoV=-2 UseB2=F ITyADJ=14
 ICtDFT= 12500011 ScaDFX=  1.000000  1.000000  1.000000  1.000000
 GSVD:  LWork=       -1748 too small for GESVD, short by        7790 words or        7790 for optimal perf.
 Range of M.O.s used for correlation:    39   711
 NBasis=   720 NAE=   119 NBE=   119 NFC=    38 NFV=     0
 NROrb=    673 NOA=    81 NOB=    81 NVA=   592 NVB=   592

 **** Warning!!: The largest alpha MO coefficient is  0.15201028D+03


 **** Warning!!: The smallest alpha delta epsilon is  0.83887745D-01

 Orbital symmetries:
       Occupied  (A) (A) (A) (A) (A) (A) (A) (A) (A) (A) (A) (A)
                 (A) (A) (A) (A) (A) (A) (A) (A) (A) (A) (A) (A)
                 (A) (A) (A) (A) (A) (A) (A) (A) (A) (A) (A) (A)
                 (A) (A) (A) (A) (A) (A) (A) (A) (A) (A) (A) (A)
                 (A) (A) (A) (A) (A) (A) (A) (A) (A) (A) (A) (A)
                 (A) (A) (A) (A) (A) (A) (A) (A) (A) (A) (A) (A)
                 (A) (A) (A) (A) (A) (A) (A) (A) (A) (A) (A) (A)
                 (A) (A) (A) (A) (A) (A) (A) (A) (A) (A) (A) (A)
                 (A) (A) (A) (A) (A) (A) (A) (A) (A) (A) (A) (A)
                 (A) (A) (A) (A) (A) (A) (A) (A) (A) (A) (A)
       Virtual   (A) (A) (A) (A) (A) (A) (A) (A) (A) (A) (A) (A)
                 (A) (A) (A) (A) (A) (A) (A) (A) (A) (A) (A) (A)
                 (A) (A) (A) (A) (A) (A) (A) (A) (A) (A) (A) (A)
                 (A) (A) (A) (A) (A) (A) (A) (A) (A) (A) (A) (A)
                 (A) (A) (A) (A) (A) (A) (A) (A) (A) (A) (A) (A)
                 (A) (A) (A) (A) (A) (A) (A) (A) (A) (A) (A) (A)
                 (A) (A) (A) (A) (A) (A) (A) (A) (A) (A) (A) (A)
                 (A) (A) (A) (A) (A) (A) (A) (A) (A) (A) (A) (A)
                 (A) (A) (A) (A) (A) (A) (A) (A) (A) (A) (A) (A)
                 (A) (A) (A) (A) (A) (A) (A) (A) (A) (A) (A) (A)
                 (A) (A) (A) (A) (A) (A) (A) (A) (A) (A) (A) (A)
                 (A) (A) (A) (A) (A) (A) (A) (A) (A) (A) (A) (A)
                 (A) (A) (A) (A) (A) (A) (A) (A) (A) (A) (A) (A)
                 (A) (A) (A) (A) (A) (A) (A) (A) (A) (A) (A) (A)
                 (A) (A) (A) (A) (A) (A) (A) (A) (A) (A) (A) (A)
                 (A) (A) (A) (A) (A) (A) (A) (A) (A) (A) (A) (A)
                 (A) (A) (A) (A) (A) (A) (A) (A) (A) (A) (A) (A)
                 (A) (A) (A) (A) (A) (A) (A) (A) (A) (A) (A) (A)
                 (A) (A) (A) (A) (A) (A) (A) (A) (A) (A) (A) (A)
                 (A) (A) (A) (A) (A) (A) (A) (A) (A) (A) (A) (A)
                 (A) (A) (A) (A) (A) (A) (A) (A) (A) (A) (A) (A)
                 (A) (A) (A) (A) (A) (A) (A) (A) (A) (A) (A) (A)
                 (A) (A) (A) (A) (A) (A) (A) (A) (A) (A) (A) (A)
                 (A) (A) (A) (A) (A) (A) (A) (A) (A) (A) (A) (A)
                 (A) (A) (A) (A) (A) (A) (A) (A) (A) (A) (A) (A)
                 (A) (A) (A) (A) (A) (A) (A) (A) (A) (A) (A) (A)
                 (A) (A) (A) (A) (A) (A) (A) (A) (A) (A) (A) (A)
                 (A) (A) (A) (A) (A) (A) (A) (A) (A) (A) (A) (A)
                 (A) (A) (A) (A) (A) (A) (A) (A) (A) (A) (A) (A)
                 (A) (A) (A) (A) (A) (A) (A) (A) (A) (A) (A) (A)
                 (A) (A) (A) (A) (A) (A) (A) (A) (A) (A) (A) (A)
                 (A) (A) (A) (A) (A) (A) (A) (A) (A) (A) (A) (A)
                 (A) (A) (A) (A) (A) (A) (A) (A) (A) (A) (A) (A)
                 (A) (A) (A) (A) (A) (A) (A) (A) (A) (A) (A) (A)
                 (A) (A) (A) (A) (A) (A) (A) (A) (A) (A) (A) (A)
                 (A) (A) (A) (A) (A) (A) (A) (A) (A) (A) (A) (A)
                 (A) (A) (A) (A) (A) (A) (A) (A) (A) (A) (A) (A)
                 (A) (A) (A) (A) (A) (A) (A) (A) (A) (A) (A) (A)
                 (A) (A) (A) (A) (A) (A) (A) (A) (A) (A) (A) (A)
                 (A) (A) (A) (A) (A) (A) (A) (A) (A) (A) (A) (A)
                 (A) (A) (A) (A) (A) (A) (A) (A) (A) (A) (A) (A)
                 (A) (A) (A) (A) (A) (A) (A) (A) (A) (A) (A) (A)
                 (A) (A) (A) (A) (A) (A) (A) (A) (A) (A) (A) (A)
                 (A) (A) (A) (A) (A) (A) (A) (A) (A) (A) (A) (A)
                 (A) (A) (A) (A) (A) (A) (A) (A) (A) (A) (A) (A)
                 (A) (A) (A) (A) (A) (A) (A) (A) (A) (A) (A) (A)
                 (A) (A) (A) (A) (A) (A) (A) (A) (A) (A) (A) (A)
                 (A) (A) (A) (A) (A) (A) (A) (A) (A) (A) (A) (A)
                 (A) (A) (A) (A) (A) (A) (A) (A) (A) (A) (A) (A)
                 (A) (A) (A) (A)
    24 initial guesses have been made.
 Convergence on wavefunction:    0.001000000000000
 Iteration     1 Dimension    24 NMult     0 NNew     24
 CISAX will form    24 AO SS matrices at one time.
 New state      1 was old state      4
 New state      3 was old state      1
 New state      4 was old state      8
 New state      5 was old state      7
 New state      7 was old state      5
 New state      8 was old state     10
 New state     10 was old state     12
 New state     12 was old state     14
 Vector   6 SDiff=1.39D+01 TDiff=1.97D+01 assumed to be singlet.
 Vector  12 SDiff=1.36D+01 TDiff=1.47D+01 assumed to be singlet.
 Iteration     2 Dimension    36 NMult    24 NNew     12
 New state      6 was old state      7
 Iteration     3 Dimension    48 NMult    36 NNew     12
 Iteration     4 Dimension    60 NMult    48 NNew     12
 Iteration     5 Dimension    72 NMult    60 NNew     12
 Iteration     6 Dimension    84 NMult    72 NNew     12
 ***********************************************************************
 Excited states from <AA,BB:AA,BB> singles matrix:
 ***********************************************************************
 
 Ground to excited state transition densities written to RWF  633
 Ground to excited state transition electric dipole moments (Au):
       state          X           Y           Z        Dip. S.      Osc.
         1         0.0000      0.0000      0.0000      0.0000      0.0000
         2        -0.0000     -0.0000     -0.0000      0.0000      0.0000
         3        -0.6096      0.0553      0.0166      0.3750      0.0176
         4         0.0000     -0.0000      0.0000      0.0000      0.0000
         5        -0.6906      0.2282      0.0135      0.5291      0.0283
         6         0.3678     -0.0638     -0.0438      0.1412      0.0079
 Ground to excited state transition velocity dipole moments (Au):
       state          X           Y           Z        Dip. S.      Osc.
         1         0.0000     -0.0000     -0.0000      0.0000      0.0000
         2         0.0000      0.0000      0.0000      0.0000      0.0000
         3         0.0413     -0.0033     -0.0010      0.0017      0.0163
         4         0.0000     -0.0000      0.0000      0.0000      0.0000
         5         0.0532     -0.0170     -0.0010      0.0031      0.0259
         6        -0.0293      0.0045      0.0043      0.0009      0.0072
 Ground to excited state transition magnetic dipole moments (Au):
       state          X           Y           Z
         1         0.0000     -0.0000     -0.0000
         2        -0.0000      0.0000      0.0000
         3         0.0274      0.0102      0.0350
         4        -0.0000     -0.0000     -0.0000
         5         0.0572      0.0557      0.0242
         6        -0.0191     -0.0145      0.0692
 Ground to excited state transition velocity quadrupole moments (Au):
       state          XX          YY          ZZ          XY          XZ          YZ
         1         0.0000      0.0000      0.0000     -0.0000     -0.0000      0.0000
         2        -0.0000      0.0000     -0.0000      0.0000     -0.0000     -0.0000
         3         0.2916      0.0139     -0.0146     -0.1364     -0.0183      0.0086
         4        -0.0000     -0.0000     -0.0000      0.0000      0.0000      0.0000
         5         0.5327      0.0026     -0.0203     -0.2274     -0.0311      0.0083
         6        -0.2874     -0.0131      0.0161      0.1007      0.0319     -0.0059
 <0|del|b> * <b|rxdel|0> + <0|del|b> * <b|delr+rdel|0>
 Rotatory Strengths (R) in cgs (10**-40 erg-esu-cm/Gauss)
       state          XX          YY          ZZ    R(velocity)    E-M Angle
         1         0.0000      0.0000      0.0000      0.0000       90.00
         2         0.0000     -0.0000      0.0000      0.0000       90.00
         3         0.0354      6.6190      4.0250      3.5598       55.82
         4         0.0000     -0.0000     -0.0000     -0.0000       90.00
         5        -5.6537     14.2982      9.6187      6.0877       63.59
         6         2.1857      2.5329      1.9717      2.2301       68.88
 1/2[<0|r|b>*<b|rxdel|0> + (<0|rxdel|b>*<b|r|0>)*]
 Rotatory Strengths (R) in cgs (10**-40 erg-esu-cm/Gauss)
       state          XX          YY          ZZ     R(length)
         1        -0.0000      0.0000      0.0000      0.0000
         2        -0.0000      0.0000      0.0000      0.0000
         3        11.7988     -0.3995     -0.4116      3.6625
         4         0.0000     -0.0000      0.0000      0.0000
         5        27.9216     -8.9835     -0.2315      6.2355
         6         4.9743     -0.6540      2.1446      2.1550
  1/2[<0|del|b>*<b|r|0> + (<0|r|b>*<b|del|0>)*] (Au)
       state          X           Y           Z        Dip. S.   Osc.(frdel)
         1         0.0000     -0.0000     -0.0000     -0.0000     -0.0000
         2        -0.0000     -0.0000     -0.0000      0.0000      0.0000
         3        -0.0252     -0.0002     -0.0000      0.0254      0.0169
         4         0.0000      0.0000      0.0000     -0.0000     -0.0000
         5        -0.0368     -0.0039     -0.0000      0.0406      0.0271
         6        -0.0108     -0.0003     -0.0002      0.0113      0.0075

 Excitation energies and oscillator strengths:
 
 Excited State   1:      Triplet-A      0.6129 eV 2022.96 nm  f=0.0000  <S**2>=2.000
     116 ->120         0.23711
     118 ->120         0.69382
     119 ->120        -0.28835
     116 <-120         0.12554
     118 <-120         0.33024
     119 <-120        -0.12938
 This state for optimization and/or second-order correction.
 Total Energy, E(TD-HF/TD-DFT) =  -1841.92464130    
 Copying the excited state density for this state as the 1-particle RhoCI density.
 
 Excited State   2:      Triplet-A      1.8660 eV  664.44 nm  f=0.0000  <S**2>=2.000
     116 ->120         0.29609
     117 ->120         0.10491
     118 ->120         0.12603
     119 ->120         0.59166
 
 Excited State   3:      Singlet-A      1.9149 eV  647.48 nm  f=0.0176  <S**2>=0.000
     116 ->120         0.15741
     118 ->120         0.10187
     119 ->120         0.67176
 
 Excited State   4:      Triplet-A      2.1036 eV  589.39 nm  f=0.0000  <S**2>=2.000
     110 ->120        -0.12978
     114 ->120        -0.17292
     115 ->120         0.15787
     116 ->120         0.48426
     118 ->120        -0.31179
     119 ->120        -0.27516
 
 Excited State   5:      Singlet-A      2.1838 eV  567.75 nm  f=0.0283  <S**2>=0.000
     115 ->120         0.19700
     116 ->120         0.49873
     117 ->120         0.15156
     118 ->120        -0.40778
 
 Excited State   6:      Singlet-A      2.2769 eV  544.53 nm  f=0.0079  <S**2>=0.000
     114 ->120         0.22787
     115 ->120         0.17579
     116 ->120        -0.15907
     117 ->120         0.61582
 SavETr:  write IOETrn=   770 NScale= 10 NData=  16 NLR=1 NState=    6 LETran=     118.

 **********************************************************************

            Population analysis using the SCF Density.

 **********************************************************************

 Orbital symmetries:
       Occupied  (A) (A) (A) (A) (A) (A) (A) (A) (A) (A) (A) (A)
                 (A) (A) (A) (A) (A) (A) (A) (A) (A) (A) (A) (A)
                 (A) (A) (A) (A) (A) (A) (A) (A) (A) (A) (A) (A)
                 (A) (A) (A) (A) (A) (A) (A) (A) (A) (A) (A) (A)
                 (A) (A) (A) (A) (A) (A) (A) (A) (A) (A) (A) (A)
                 (A) (A) (A) (A) (A) (A) (A) (A) (A) (A) (A) (A)
                 (A) (A) (A) (A) (A) (A) (A) (A) (A) (A) (A) (A)
                 (A) (A) (A) (A) (A) (A) (A) (A) (A) (A) (A) (A)
                 (A) (A) (A) (A) (A) (A) (A) (A) (A) (A) (A) (A)
                 (A) (A) (A) (A) (A) (A) (A) (A) (A) (A) (A)
       Virtual   (A) (A) (A) (A) (A) (A) (A) (A) (A) (A) (A) (A)
                 (A) (A) (A) (A) (A) (A) (A) (A) (A) (A) (A) (A)
                 (A) (A) (A) (A) (A) (A) (A) (A) (A) (A) (A) (A)
                 (A) (A) (A) (A) (A) (A) (A) (A) (A) (A) (A) (A)
                 (A) (A) (A) (A) (A) (A) (A) (A) (A) (A) (A) (A)
                 (A) (A) (A) (A) (A) (A) (A) (A) (A) (A) (A) (A)
                 (A) (A) (A) (A) (A) (A) (A) (A) (A) (A) (A) (A)
                 (A) (A) (A) (A) (A) (A) (A) (A) (A) (A) (A) (A)
                 (A) (A) (A) (A) (A) (A) (A) (A) (A) (A) (A) (A)
                 (A) (A) (A) (A) (A) (A) (A) (A) (A) (A) (A) (A)
                 (A) (A) (A) (A) (A) (A) (A) (A) (A) (A) (A) (A)
                 (A) (A) (A) (A) (A) (A) (A) (A) (A) (A) (A) (A)
                 (A) (A) (A) (A) (A) (A) (A) (A) (A) (A) (A) (A)
                 (A) (A) (A) (A) (A) (A) (A) (A) (A) (A) (A) (A)
                 (A) (A) (A) (A) (A) (A) (A) (A) (A) (A) (A) (A)
                 (A) (A) (A) (A) (A) (A) (A) (A) (A) (A) (A) (A)
                 (A) (A) (A) (A) (A) (A) (A) (A) (A) (A) (A) (A)
                 (A) (A) (A) (A) (A) (A) (A) (A) (A) (A) (A) (A)
                 (A) (A) (A) (A) (A) (A) (A) (A) (A) (A) (A) (A)
                 (A) (A) (A) (A) (A) (A) (A) (A) (A) (A) (A) (A)
                 (A) (A) (A) (A) (A) (A) (A) (A) (A) (A) (A) (A)
                 (A) (A) (A) (A) (A) (A) (A) (A) (A) (A) (A) (A)
                 (A) (A) (A) (A) (A) (A) (A) (A) (A) (A) (A) (A)
                 (A) (A) (A) (A) (A) (A) (A) (A) (A) (A) (A) (A)
                 (A) (A) (A) (A) (A) (A) (A) (A) (A) (A) (A) (A)
                 (A) (A) (A) (A) (A) (A) (A) (A) (A) (A) (A) (A)
                 (A) (A) (A) (A) (A) (A) (A) (A) (A) (A) (A) (A)
                 (A) (A) (A) (A) (A) (A) (A) (A) (A) (A) (A) (A)
                 (A) (A) (A) (A) (A) (A) (A) (A) (A) (A) (A) (A)
                 (A) (A) (A) (A) (A) (A) (A) (A) (A) (A) (A) (A)
                 (A) (A) (A) (A) (A) (A) (A) (A) (A) (A) (A) (A)
                 (A) (A) (A) (A) (A) (A) (A) (A) (A) (A) (A) (A)
                 (A) (A) (A) (A) (A) (A) (A) (A) (A) (A) (A) (A)
                 (A) (A) (A) (A) (A) (A) (A) (A) (A) (A) (A) (A)
                 (A) (A) (A) (A) (A) (A) (A) (A) (A) (A) (A) (A)
                 (A) (A) (A) (A) (A) (A) (A) (A) (A) (A) (A) (A)
                 (A) (A) (A) (A) (A) (A) (A) (A) (A) (A) (A) (A)
                 (A) (A) (A) (A) (A) (A) (A) (A) (A) (A) (A) (A)
                 (A) (A) (A) (A) (A) (A) (A) (A) (A) (A) (A) (A)
                 (A) (A) (A) (A) (A) (A) (A) (A) (A) (A) (A) (A)
                 (A) (A) (A) (A) (A) (A) (A) (A) (A) (A) (A) (A)
                 (A) (A) (A) (A) (A) (A) (A) (A) (A) (A) (A) (A)
                 (A) (A) (A) (A) (A) (A) (A) (A) (A) (A) (A) (A)
                 (A) (A) (A) (A) (A) (A) (A) (A) (A) (A) (A) (A)
                 (A) (A) (A) (A) (A) (A) (A) (A) (A) (A) (A) (A)
                 (A) (A) (A) (A) (A) (A) (A) (A) (A) (A) (A) (A)
                 (A) (A) (A) (A) (A) (A) (A) (A) (A) (A) (A) (A)
                 (A) (A) (A) (A) (A) (A) (A) (A) (A) (A) (A) (A)
                 (A) (A) (A) (A) (A) (A) (A) (A) (A) (A) (A) (A)
                 (A) (A) (A) (A)
 The electronic state is 1-A.
 Alpha  occ. eigenvalues --  -89.11150 -19.17369 -19.16113 -19.16072 -14.39694
 Alpha  occ. eigenvalues --  -14.39554 -14.39468 -14.39462 -10.32825 -10.32507
 Alpha  occ. eigenvalues --  -10.31237 -10.30918 -10.30243 -10.29138 -10.28690
 Alpha  occ. eigenvalues --  -10.28675 -10.28550 -10.28529 -10.27373 -10.27282
 Alpha  occ. eigenvalues --  -10.27132 -10.25726 -10.25451 -10.24496 -10.24187
 Alpha  occ. eigenvalues --  -10.24136 -10.24046 -10.24030 -10.23882 -10.23365
 Alpha  occ. eigenvalues --  -10.23272 -10.23158 -10.22962 -10.21175  -8.14032
 Alpha  occ. eigenvalues --   -6.10467  -6.10415  -6.10337  -1.11413  -1.07183
 Alpha  occ. eigenvalues --   -1.01423  -0.97606  -0.97035  -0.95613  -0.95362
 Alpha  occ. eigenvalues --   -0.94634  -0.91001  -0.90306  -0.89881  -0.85644
 Alpha  occ. eigenvalues --   -0.84591  -0.82260  -0.79809  -0.79613  -0.79291
 Alpha  occ. eigenvalues --   -0.77639  -0.73436  -0.71170  -0.70604  -0.69755
 Alpha  occ. eigenvalues --   -0.66868  -0.65598  -0.64534  -0.63827  -0.62888
 Alpha  occ. eigenvalues --   -0.60890  -0.60317  -0.59633  -0.58470  -0.56135
 Alpha  occ. eigenvalues --   -0.53424  -0.52545  -0.51971  -0.51447  -0.50594
 Alpha  occ. eigenvalues --   -0.50425  -0.49634  -0.48580  -0.47970  -0.47790
 Alpha  occ. eigenvalues --   -0.46971  -0.46599  -0.46513  -0.46102  -0.45875
 Alpha  occ. eigenvalues --   -0.45386  -0.44902  -0.43465  -0.43062  -0.42587
 Alpha  occ. eigenvalues --   -0.42289  -0.41675  -0.41633  -0.41273  -0.41161
 Alpha  occ. eigenvalues --   -0.40536  -0.40259  -0.39802  -0.39385  -0.39247
 Alpha  occ. eigenvalues --   -0.39211  -0.38991  -0.38935  -0.38427  -0.38238
 Alpha  occ. eigenvalues --   -0.37866  -0.37529  -0.35620  -0.34376  -0.33935
 Alpha  occ. eigenvalues --   -0.33464  -0.32185  -0.30908  -0.30117  -0.29736
 Alpha  occ. eigenvalues --   -0.29257  -0.28827  -0.28006  -0.27406
 Alpha virt. eigenvalues --   -0.19017  -0.10136  -0.08184  -0.07920  -0.06811
 Alpha virt. eigenvalues --   -0.05495  -0.05397  -0.04715  -0.04400  -0.02673
 Alpha virt. eigenvalues --   -0.01359  -0.01019  -0.00899  -0.00433  -0.00384
 Alpha virt. eigenvalues --   -0.00212   0.00222   0.00696   0.00788   0.01118
 Alpha virt. eigenvalues --    0.01296   0.01506   0.01798   0.02323   0.02483
 Alpha virt. eigenvalues --    0.02994   0.03193   0.03423   0.03556   0.03801
 Alpha virt. eigenvalues --    0.04268   0.04585   0.05064   0.05233   0.05413
 Alpha virt. eigenvalues --    0.05816   0.06048   0.06216   0.06511   0.06667
 Alpha virt. eigenvalues --    0.07253   0.07583   0.07601   0.08046   0.08190
 Alpha virt. eigenvalues --    0.08303   0.08460   0.08786   0.08943   0.09120
 Alpha virt. eigenvalues --    0.09314   0.09510   0.09771   0.10242   0.10592
 Alpha virt. eigenvalues --    0.10765   0.11046   0.11326   0.11437   0.11662
 Alpha virt. eigenvalues --    0.11801   0.12069   0.12419   0.12546   0.12806
 Alpha virt. eigenvalues --    0.13132   0.13436   0.13682   0.13818   0.14041
 Alpha virt. eigenvalues --    0.14231   0.14558   0.14783   0.15010   0.15318
 Alpha virt. eigenvalues --    0.15482   0.15816   0.16026   0.16246   0.16616
 Alpha virt. eigenvalues --    0.16729   0.17013   0.17210   0.17481   0.17989
 Alpha virt. eigenvalues --    0.18295   0.18442   0.18596   0.18743   0.18851
 Alpha virt. eigenvalues --    0.19248   0.19373   0.19662   0.19763   0.20063
 Alpha virt. eigenvalues --    0.20512   0.20721   0.21085   0.21171   0.21312
 Alpha virt. eigenvalues --    0.21399   0.21581   0.21724   0.22324   0.22612
 Alpha virt. eigenvalues --    0.22688   0.23069   0.23124   0.23284   0.23567
 Alpha virt. eigenvalues --    0.23687   0.23989   0.24059   0.24133   0.24343
 Alpha virt. eigenvalues --    0.24631   0.24849   0.24972   0.25078   0.25217
 Alpha virt. eigenvalues --    0.25494   0.25740   0.25909   0.26030   0.26271
 Alpha virt. eigenvalues --    0.26397   0.26656   0.26904   0.27040   0.27103
 Alpha virt. eigenvalues --    0.27345   0.27422   0.27655   0.27888   0.28055
 Alpha virt. eigenvalues --    0.28114   0.28573   0.28866   0.29010   0.29533
 Alpha virt. eigenvalues --    0.29954   0.30000   0.30343   0.30489   0.30575
 Alpha virt. eigenvalues --    0.30857   0.31174   0.31517   0.31825   0.31848
 Alpha virt. eigenvalues --    0.32304   0.32492   0.32752   0.33135   0.33787
 Alpha virt. eigenvalues --    0.33929   0.34314   0.34348   0.34479   0.35101
 Alpha virt. eigenvalues --    0.35201   0.35638   0.36030   0.36118   0.36533
 Alpha virt. eigenvalues --    0.36993   0.37227   0.37793   0.38431   0.38662
 Alpha virt. eigenvalues --    0.38801   0.39564   0.40405   0.40555   0.41119
 Alpha virt. eigenvalues --    0.41526   0.41959   0.42711   0.43625   0.43896
 Alpha virt. eigenvalues --    0.44681   0.45230   0.45697   0.47023   0.48761
 Alpha virt. eigenvalues --    0.50280   0.50972   0.52230   0.54278   0.54958
 Alpha virt. eigenvalues --    0.55899   0.58140   0.59335   0.59939   0.60831
 Alpha virt. eigenvalues --    0.61850   0.62762   0.63718   0.63819   0.64652
 Alpha virt. eigenvalues --    0.65440   0.65513   0.65967   0.66713   0.67077
 Alpha virt. eigenvalues --    0.67394   0.67876   0.68593   0.69017   0.69289
 Alpha virt. eigenvalues --    0.69696   0.69821   0.70083   0.70420   0.70697
 Alpha virt. eigenvalues --    0.71334   0.71976   0.72262   0.72744   0.73353
 Alpha virt. eigenvalues --    0.73897   0.74054   0.74192   0.74570   0.74929
 Alpha virt. eigenvalues --    0.75322   0.75656   0.76513   0.76559   0.77192
 Alpha virt. eigenvalues --    0.77673   0.78006   0.78344   0.78517   0.78777
 Alpha virt. eigenvalues --    0.79710   0.80053   0.80909   0.81188   0.81362
 Alpha virt. eigenvalues --    0.81722   0.82424   0.82835   0.83207   0.83767
 Alpha virt. eigenvalues --    0.84247   0.85337   0.85843   0.86618   0.87009
 Alpha virt. eigenvalues --    0.87507   0.88212   0.88684   0.88938   0.89626
 Alpha virt. eigenvalues --    0.89648   0.90222   0.90889   0.91784   0.92439
 Alpha virt. eigenvalues --    0.93055   0.93336   0.94554   0.95415   0.95964
 Alpha virt. eigenvalues --    0.96091   0.96400   0.96954   0.97567   0.98288
 Alpha virt. eigenvalues --    0.98410   0.98861   0.99101   0.99287   1.00672
 Alpha virt. eigenvalues --    1.01275   1.02056   1.02382   1.02441   1.02598
 Alpha virt. eigenvalues --    1.02847   1.03846   1.04405   1.05435   1.05691
 Alpha virt. eigenvalues --    1.06811   1.07288   1.08136   1.09300   1.09707
 Alpha virt. eigenvalues --    1.10192   1.10863   1.11201   1.12462   1.12673
 Alpha virt. eigenvalues --    1.13416   1.13736   1.14574   1.14874   1.15723
 Alpha virt. eigenvalues --    1.15934   1.17018   1.17182   1.17830   1.18857
 Alpha virt. eigenvalues --    1.19284   1.19698   1.21064   1.21509   1.21912
 Alpha virt. eigenvalues --    1.22295   1.22813   1.23981   1.24764   1.25305
 Alpha virt. eigenvalues --    1.26111   1.26989   1.27643   1.27767   1.28078
 Alpha virt. eigenvalues --    1.28702   1.29466   1.29687   1.30319   1.31086
 Alpha virt. eigenvalues --    1.31337   1.32116   1.32770   1.33414   1.33940
 Alpha virt. eigenvalues --    1.34473   1.34987   1.35478   1.35752   1.36639
 Alpha virt. eigenvalues --    1.36766   1.38003   1.38409   1.38754   1.39116
 Alpha virt. eigenvalues --    1.40375   1.40581   1.41549   1.42040   1.42539
 Alpha virt. eigenvalues --    1.42920   1.43806   1.44723   1.45122   1.45870
 Alpha virt. eigenvalues --    1.47163   1.47836   1.48157   1.48573   1.48805
 Alpha virt. eigenvalues --    1.49999   1.50199   1.50682   1.50970   1.52098
 Alpha virt. eigenvalues --    1.52641   1.53135   1.55206   1.57100   1.58572
 Alpha virt. eigenvalues --    1.60359   1.60753   1.63210   1.64534   1.66378
 Alpha virt. eigenvalues --    1.67096   1.67642   1.68840   1.69393   1.69772
 Alpha virt. eigenvalues --    1.70120   1.71666   1.72355   1.73706   1.74815
 Alpha virt. eigenvalues --    1.74930   1.75288   1.75650   1.75965   1.76605
 Alpha virt. eigenvalues --    1.77137   1.78338   1.79229   1.79764   1.80872
 Alpha virt. eigenvalues --    1.82126   1.82301   1.82904   1.82977   1.83782
 Alpha virt. eigenvalues --    1.84450   1.84945   1.86040   1.86171   1.86634
 Alpha virt. eigenvalues --    1.87304   1.87988   1.88480   1.88621   1.89565
 Alpha virt. eigenvalues --    1.90144   1.90453   1.91466   1.91569   1.92575
 Alpha virt. eigenvalues --    1.93020   1.93413   1.93937   1.94279   1.94754
 Alpha virt. eigenvalues --    1.94960   1.96339   1.97022   1.97413   1.97910
 Alpha virt. eigenvalues --    1.98300   1.98627   1.98717   1.99454   2.00726
 Alpha virt. eigenvalues --    2.00990   2.01750   2.02424   2.02609   2.03145
 Alpha virt. eigenvalues --    2.04062   2.04395   2.05078   2.05777   2.07630
 Alpha virt. eigenvalues --    2.07802   2.08551   2.09338   2.10370   2.10950
 Alpha virt. eigenvalues --    2.12248   2.12850   2.13208   2.15666   2.16857
 Alpha virt. eigenvalues --    2.17293   2.17308   2.20214   2.21166   2.23368
 Alpha virt. eigenvalues --    2.24609   2.25119   2.25172   2.25724   2.25854
 Alpha virt. eigenvalues --    2.26023   2.26245   2.27512   2.28350   2.29563
 Alpha virt. eigenvalues --    2.31490   2.32604   2.33576   2.34240   2.35313
 Alpha virt. eigenvalues --    2.37034   2.38096   2.38658   2.39435   2.40887
 Alpha virt. eigenvalues --    2.41789   2.42919   2.43921   2.45381   2.45950
 Alpha virt. eigenvalues --    2.46178   2.46865   2.47525   2.48861   2.50256
 Alpha virt. eigenvalues --    2.51381   2.51654   2.52154   2.53081   2.53606
 Alpha virt. eigenvalues --    2.54782   2.56374   2.57045   2.57482   2.58731
 Alpha virt. eigenvalues --    2.59179   2.59515   2.60643   2.60982   2.62175
 Alpha virt. eigenvalues --    2.63144   2.64689   2.65593   2.66490   2.67492
 Alpha virt. eigenvalues --    2.68982   2.70390   2.71073   2.72018   2.73251
 Alpha virt. eigenvalues --    2.73844   2.75041   2.76596   2.78276   2.79177
 Alpha virt. eigenvalues --    2.79985   2.80335   2.82010   2.82752   2.84029
 Alpha virt. eigenvalues --    2.84386   2.86168   2.86907   2.87842   2.90221
 Alpha virt. eigenvalues --    2.90701   2.92575   2.93154   2.96495   2.96930
 Alpha virt. eigenvalues --    2.99917   3.00704   3.02190   3.03244   3.04623
 Alpha virt. eigenvalues --    3.04984   3.06538   3.08004   3.12360   3.13789
 Alpha virt. eigenvalues --    3.17010   3.17740   3.18915   3.19773   3.22925
 Alpha virt. eigenvalues --    3.24137   3.25003   3.25222   3.26962   3.29062
 Alpha virt. eigenvalues --    3.29774   3.31673   3.35066   3.41530   3.42780
 Alpha virt. eigenvalues --    3.43741   3.44490   3.47304   3.48836   3.51718
 Alpha virt. eigenvalues --    3.68767   3.72084   3.80164   4.00503   4.18419
 Alpha virt. eigenvalues --    4.21106   4.21640   4.22426   4.23616   4.26430
 Alpha virt. eigenvalues --    4.28321   4.29289   4.30554   4.30786   4.31679
 Alpha virt. eigenvalues --    4.34360   4.35985   4.37543   4.37750   4.40612
 Alpha virt. eigenvalues --    4.41982   4.43890   4.45427   4.47275   4.47979
 Alpha virt. eigenvalues --    4.50759   4.52865   4.54823   4.55428   4.60183
 Alpha virt. eigenvalues --    4.60639   4.63349   4.70562   4.79021   4.80117
 Alpha virt. eigenvalues --    4.85096   4.91185
          Condensed to atoms (all electrons):
               1          2          3          4          5          6
     1  C    8.064483  -1.472320   1.655063  -2.096203  -0.244350  -0.036625
     2  C   -1.472320  14.881248  -4.156467  -1.016137  -0.584162   0.073374
     3  C    1.655063  -4.156467  18.268177  -6.941345  -0.090803  -0.143088
     4  C   -2.096203  -1.016137  -6.941345  35.708032  -0.149432   0.423520
     5  S   -0.244350  -0.584162  -0.090803  -0.149432  16.433482   0.154225
     6  O   -0.036625   0.073374  -0.143088   0.423520   0.154225   8.720820
     7  O   -0.015167   0.015799   0.013711  -0.085352   0.591757  -0.113052
     8  C    0.341388  -0.829836  -2.474042 -14.200412  -1.275731  -0.484801
     9  C   -0.312183  -0.755342  -2.797419   2.516102  -0.047464   0.066118
    10  O    0.000787   0.022127   0.047890  -0.211469  -0.023904   0.000131
    11  C    0.065297  -0.225191   2.400047  -2.878121  -0.105666  -0.019128
    12  C   -0.006739  -0.141908   0.150289  -1.983833  -0.254285  -0.019986
    13  C    0.003468  -0.062454   0.104485  -1.266768   0.102269  -0.011383
    14  C    0.003160  -0.003141   0.006888  -0.741736  -0.259357  -0.006768
    15  C   -0.000023  -0.001456  -0.023352   0.014571  -0.013726   0.000501
    16  C    0.000060   0.001328   0.004288   0.032148  -0.037600   0.000149
    17  C    0.000018   0.000430   0.000684   0.002885  -0.006552   0.000001
    18  C   -0.000001  -0.000003  -0.000019   0.000351  -0.000201  -0.000001
    19  C   -0.000000   0.000001   0.000001   0.000194   0.000002   0.000000
    20  N   -0.000000  -0.000000  -0.000000  -0.000000   0.000000  -0.000000
    21  C    0.000001   0.000011   0.000028  -0.000276  -0.000137   0.000000
    22  N   -0.000000   0.000000   0.000000  -0.000002  -0.000003  -0.000000
    23  C   -0.000007  -0.000140  -0.000246   0.000072   0.002292   0.000021
    24  C   -0.000040   0.000579   0.000068   0.013653  -0.000796   0.000269
    25  C   -0.000384  -0.000061  -0.001923   0.132448   0.001185   0.003720
    26  C    0.000483   0.025375   0.030575   0.043240  -0.127658  -0.004076
    27  C    0.002467  -0.014318  -0.009101  -0.082667   0.016949  -0.012514
    28  N   -0.001470  -0.003915  -0.030077  -0.041130   0.044006   0.017625
    29  C    0.000138   0.001714   0.007912  -0.003811   0.005788  -0.000956
    30  N   -0.000001  -0.000001   0.000005  -0.000210   0.000066   0.000003
    31  C   -0.009028   0.173260  -0.499396   3.663735   0.516402   0.036334
    32  C    0.000135   0.246345  -0.733943   0.821666  -0.388174   0.011997
    33  C    0.654106  -0.880693   5.523732  -6.231598  -0.500277  -0.068932
    34  C   -1.528692   0.813721  -4.733385   2.132191   0.557806   0.049661
    35  H    0.504835  -0.007150  -0.152411  -0.021928  -0.001509  -0.000154
    36  H    0.520964  -0.197912   0.095354  -0.012630   0.000644  -0.000009
    37  H    0.468369  -0.167123   0.078013  -0.001965   0.000475  -0.000015
    38  H   -0.029203   0.008977   0.320051  -0.141251   0.019385  -0.008110
    39  H    0.000427  -0.001547   0.006903  -0.127330   0.391129  -0.077059
    40  H   -0.000000  -0.000048   0.000878  -0.018602   0.003883  -0.000006
    41  H   -0.000000   0.000000  -0.000072   0.001560   0.000214  -0.000000
    42  H    0.000000   0.000001   0.000002  -0.000024  -0.000018   0.000000
    43  H   -0.000000  -0.000000   0.000000   0.000000   0.000000   0.000000
    44  H   -0.000000   0.000000   0.000000   0.000000   0.000000  -0.000000
    45  H    0.000029  -0.000045   0.000308  -0.010174  -0.000609  -0.000004
    46  H    0.001802   0.016736   0.002712   0.152714  -0.006749  -0.000009
    47  H   -0.002827  -0.032976  -0.019594   0.069668   0.001547   0.000017
    48  H   -0.004160   0.088820   0.089316   0.019937   0.000598  -0.000002
               7          8          9         10         11         12
     1  C   -0.015167   0.341388  -0.312183   0.000787   0.065297  -0.006739
     2  C    0.015799  -0.829836  -0.755342   0.022127  -0.225191  -0.141908
     3  C    0.013711  -2.474042  -2.797419   0.047890   2.400047   0.150289
     4  C   -0.085352 -14.200412   2.516102  -0.211469  -2.878121  -1.983833
     5  S    0.591757  -1.275731  -0.047464  -0.023904  -0.105666  -0.254285
     6  O   -0.113052  -0.484801   0.066118   0.000131  -0.019128  -0.019986
     7  O    8.617509  -0.333350   0.329087  -0.012968  -0.196384  -0.013268
     8  C   -0.333350  31.306411   1.474157  -0.066072  -3.465740  -0.355711
     9  C    0.329087   1.474157  16.812966   0.371057  -7.959051   0.592692
    10  O   -0.012968  -0.066072   0.371057   8.045782   0.032414   0.086615
    11  C   -0.196384  -3.465740  -7.959051   0.032414  25.901657  -3.274661
    12  C   -0.013268  -0.355711   0.592692   0.086615  -3.274661  16.773064
    13  C   -0.008033   1.044075  -3.323151   0.115155   1.292013  -0.981811
    14  C   -0.034956   0.062729  -0.423855   0.016370  -1.335333   2.362343
    15  C    0.000747   0.031315   0.462677  -0.001449  -1.032235   0.482538
    16  C   -0.003795  -0.039841  -0.328251   0.003422  -0.126092  -0.896762
    17  C   -0.000175   0.002003  -0.008505  -0.000030   0.079100   0.033729
    18  C    0.000020  -0.001520   0.016299   0.000119  -0.016768   0.155102
    19  C    0.000000  -0.000097   0.001660   0.000002   0.011912   0.020486
    20  N    0.000000  -0.000000  -0.000003   0.000000  -0.000057  -0.000175
    21  C   -0.000005   0.000765  -0.005189  -0.000050   0.002568  -0.044969
    22  N   -0.000000  -0.000035  -0.000301   0.000002  -0.001422  -0.000382
    23  C   -0.000029  -0.002387  -0.021597   0.000006  -0.044302  -0.192894
    24  C    0.000744  -0.015881   0.045304  -0.000127   0.015059   0.126041
    25  C   -0.001346  -0.123218  -0.087537  -0.000257   0.039909  -1.063621
    26  C    0.009074  -0.026207   0.288000   0.000352  -0.273463   1.526499
    27  C   -0.037644   0.121512  -0.252518   0.000410   0.107055  -0.380827
    28  N    0.024115   0.003824   0.081224  -0.000189  -0.086403   0.027878
    29  C    0.000264   0.003932  -0.020672   0.000092   0.056395   0.009714
    30  N    0.000007  -0.000005   0.000109   0.000000  -0.000121   0.000111
    31  C    0.089991  -1.048482   2.381314  -0.079236  -3.608195  -7.403853
    32  C   -0.098004   0.371987   1.913961  -0.131187  -3.961501  -0.020705
    33  C   -0.295799  -4.802204  -5.582094   0.098696   4.767071   0.470257
    34  C    0.084694   0.595115   0.172434   0.001823  -0.808484  -0.111834
    35  H    0.000001  -0.007079  -0.000139  -0.000000  -0.000217  -0.000014
    36  H   -0.000002  -0.012147  -0.000869  -0.000001   0.000152  -0.000001
    37  H    0.000001   0.002498   0.000271   0.000001   0.000073   0.000017
    38  H    0.000360   0.087980   0.009550  -0.000001   0.007138   0.000464
    39  H   -0.087962   0.014667   0.009885  -0.000438  -0.030501  -0.003629
    40  H    0.001496   0.035557   0.030818   0.007078  -0.045722   0.372004
    41  H   -0.000094  -0.001148   0.001216   0.000007   0.093513  -0.154951
    42  H    0.000000   0.000041   0.000200   0.000004  -0.003775   0.036922
    43  H   -0.000000   0.000000  -0.000000  -0.000000   0.000011  -0.000039
    44  H    0.000000  -0.000001  -0.000005  -0.000000  -0.000215  -0.000153
    45  H   -0.000007   0.013643   0.001338   0.000036   0.036435   0.013950
    46  H   -0.000323  -0.090974  -0.020208  -0.001053   0.210094   0.031968
    47  H    0.000091  -0.056682   0.024430   0.001413   0.062067   0.005010
    48  H   -0.000007  -0.020230  -0.015624   0.000015  -0.004012  -0.000545
              13         14         15         16         17         18
     1  C    0.003468   0.003160  -0.000023   0.000060   0.000018  -0.000001
     2  C   -0.062454  -0.003141  -0.001456   0.001328   0.000430  -0.000003
     3  C    0.104485   0.006888  -0.023352   0.004288   0.000684  -0.000019
     4  C   -1.266768  -0.741736   0.014571   0.032148   0.002885   0.000351
     5  S    0.102269  -0.259357  -0.013726  -0.037600  -0.006552  -0.000201
     6  O   -0.011383  -0.006768   0.000501   0.000149   0.000001  -0.000001
     7  O   -0.008033  -0.034956   0.000747  -0.003795  -0.000175   0.000020
     8  C    1.044075   0.062729   0.031315  -0.039841   0.002003  -0.001520
     9  C   -3.323151  -0.423855   0.462677  -0.328251  -0.008505   0.016299
    10  O    0.115155   0.016370  -0.001449   0.003422  -0.000030   0.000119
    11  C    1.292013  -1.335333  -1.032235  -0.126092   0.079100  -0.016768
    12  C   -0.981811   2.362343   0.482538  -0.896762   0.033729   0.155102
    13  C   20.165090  -1.603679  -1.869604   2.399157   0.043618  -0.319166
    14  C   -1.603679  15.392761   1.127382  -2.602826  -0.889665   0.163528
    15  C   -1.869604   1.127382  11.222554  -1.672847  -2.646669   0.490296
    16  C    2.399157  -2.602826  -1.672847  12.333528   0.328897  -1.695637
    17  C    0.043618  -0.889665  -2.646669   0.328897  14.870820  -2.314072
    18  C   -0.319166   0.163528   0.490296  -1.695637  -2.314072  12.274305
    19  C   -0.010053  -0.168655  -0.379064  -1.911808   0.278006  -1.171419
    20  N   -0.000388   0.000005   0.015055   0.086401   0.052863   0.307047
    21  C    0.138587   0.122070  -0.425515   1.122815  -0.990571  -2.633009
    22  N    0.007369  -0.005312   0.040430   0.015588   0.036550   0.254829
    23  C    0.331119  -0.920488   0.225493   1.015855  -0.477399  -0.451708
    24  C   -0.396688  -0.049734   0.836766  -1.079492  -0.833137   0.662703
    25  C    1.253552  -3.621719  -3.161455   5.208921  -0.309801  -1.136875
    26  C   -2.502634   3.462156   2.485176  -5.235697  -1.089996   0.973302
    27  C    0.857363   0.902727   0.444849  -0.141906  -1.169911  -0.059413
    28  N   -0.116761  -0.042376  -0.003958  -0.050671   0.013563  -0.000879
    29  C    0.154047  -0.132238  -1.665829  -0.076644  -0.360911  -0.087956
    30  N    0.002782   0.004388   0.088795   0.000801   0.013533   0.003482
    31  C   -6.973708  -6.382888   1.411902  -1.416492   0.044228  -0.153007
    32  C   -3.330985   1.301760  -0.527230   0.591956  -0.058799   0.065981
    33  C    0.509619   0.313923  -0.067616   0.032636   0.004560  -0.000516
    34  C    0.051654  -0.037470  -0.000326  -0.001464  -0.000044   0.000014
    35  H    0.000001  -0.000004  -0.000000  -0.000000  -0.000000  -0.000000
    36  H    0.000001   0.000002  -0.000000  -0.000000  -0.000000  -0.000000
    37  H    0.000001   0.000001   0.000000   0.000000   0.000000   0.000000
    38  H    0.000153   0.000195  -0.000010  -0.000000  -0.000000  -0.000000
    39  H   -0.004794   0.029647  -0.001695  -0.001315  -0.000199  -0.000001
    40  H   -0.057459  -0.015854  -0.001348   0.001644   0.000459   0.000320
    41  H    0.273407  -0.017497  -0.043687   0.067020   0.024566   0.002441
    42  H    0.084353  -0.035078  -0.025082   0.374334  -0.074415  -0.033749
    43  H   -0.000648   0.002163   0.006785   0.016163  -0.030870  -0.000221
    44  H   -0.000242  -0.012934  -0.005119   0.018895   0.002205  -0.005340
    45  H    0.047559   0.097287  -0.010382  -0.012926  -0.005561   0.002110
    46  H    0.020450  -0.026333  -0.000323   0.000347   0.000261  -0.000057
    47  H    0.001772   0.001702  -0.000076  -0.000005  -0.000001  -0.000000
    48  H   -0.000032   0.000007  -0.000000   0.000000   0.000000  -0.000000
              19         20         21         22         23         24
     1  C   -0.000000  -0.000000   0.000001  -0.000000  -0.000007  -0.000040
     2  C    0.000001  -0.000000   0.000011   0.000000  -0.000140   0.000579
     3  C    0.000001  -0.000000   0.000028   0.000000  -0.000246   0.000068
     4  C    0.000194  -0.000000  -0.000276  -0.000002   0.000072   0.013653
     5  S    0.000002   0.000000  -0.000137  -0.000003   0.002292  -0.000796
     6  O    0.000000  -0.000000   0.000000  -0.000000   0.000021   0.000269
     7  O    0.000000   0.000000  -0.000005  -0.000000  -0.000029   0.000744
     8  C   -0.000097  -0.000000   0.000765  -0.000035  -0.002387  -0.015881
     9  C    0.001660  -0.000003  -0.005189  -0.000301  -0.021597   0.045304
    10  O    0.000002   0.000000  -0.000050   0.000002   0.000006  -0.000127
    11  C    0.011912  -0.000057   0.002568  -0.001422  -0.044302   0.015059
    12  C    0.020486  -0.000175  -0.044969  -0.000382  -0.192894   0.126041
    13  C   -0.010053  -0.000388   0.138587   0.007369   0.331119  -0.396688
    14  C   -0.168655   0.000005   0.122070  -0.005312  -0.920488  -0.049734
    15  C   -0.379064   0.015055  -0.425515   0.040430   0.225493   0.836766
    16  C   -1.911808   0.086401   1.122815   0.015588   1.015855  -1.079492
    17  C    0.278006   0.052863  -0.990571   0.036550  -0.477399  -0.833137
    18  C   -1.171419   0.307047  -2.633009   0.254829  -0.451708   0.662703
    19  C   13.045767  -0.431485  -2.411162   0.043091  -0.196805  -0.653431
    20  N   -0.431485   7.290658   0.078109  -0.002669   0.019322   0.039392
    21  C   -2.411162   0.078109  12.732088  -0.308406  -0.395355   0.404397
    22  N    0.043091  -0.002669  -0.308406   7.287452   0.056427  -0.005323
    23  C   -0.196805   0.019322  -0.395355   0.056427  10.408118  -1.039164
    24  C   -0.653431   0.039392   0.404397  -0.005323  -1.039164  13.521664
    25  C    0.263952  -0.003300  -0.655124   0.022880   0.197621  -5.840141
    26  C   -0.136286   0.002099  -0.194631   0.002923  -3.512274   3.736057
    27  C   -0.023389   0.000395  -0.040176   0.000703   1.423704  -3.349400
    28  N   -0.000088  -0.000001   0.000284  -0.000005  -0.028215   0.047937
    29  C    0.014787  -0.000143  -0.028080   0.000407  -0.468671  -0.740516
    30  N   -0.000329   0.000004   0.000426  -0.000001   0.046091   0.096795
    31  C    0.021027   0.000056  -0.009393  -0.001723   0.025938   1.007624
    32  C   -0.016269   0.000044   0.018732  -0.000644   0.066217  -0.431253
    33  C   -0.000049  -0.000000   0.000414   0.000011   0.000087  -0.006884
    34  C    0.000000  -0.000000   0.000005   0.000000  -0.000010   0.000270
    35  H    0.000000  -0.000000   0.000000  -0.000000   0.000000   0.000000
    36  H   -0.000000   0.000000   0.000000  -0.000000  -0.000000  -0.000000
    37  H    0.000000   0.000000  -0.000000   0.000000  -0.000000  -0.000000
    38  H   -0.000000   0.000000   0.000000  -0.000000  -0.000000  -0.000000
    39  H    0.000000  -0.000000  -0.000002   0.000000  -0.000034  -0.001573
    40  H    0.000008  -0.000000  -0.000072   0.000000  -0.000121  -0.000182
    41  H    0.000428   0.000000   0.003090  -0.000154   0.001296   0.008997
    42  H    0.000250  -0.000087   0.012494   0.005009   0.003021  -0.009356
    43  H   -0.008664   0.002682   0.012875  -0.000103   0.323275  -0.020605
    44  H    0.000279   0.000049   0.000118   0.000003   0.055285   0.254738
    45  H    0.000122  -0.000000  -0.000742   0.000008  -0.002735  -0.016208
    46  H    0.000000  -0.000000   0.000020  -0.000000   0.000044   0.000162
    47  H   -0.000000   0.000000   0.000000  -0.000000   0.000000   0.000000
    48  H   -0.000000  -0.000000   0.000000   0.000000   0.000000  -0.000000
              25         26         27         28         29         30
     1  C   -0.000384   0.000483   0.002467  -0.001470   0.000138  -0.000001
     2  C   -0.000061   0.025375  -0.014318  -0.003915   0.001714  -0.000001
     3  C   -0.001923   0.030575  -0.009101  -0.030077   0.007912   0.000005
     4  C    0.132448   0.043240  -0.082667  -0.041130  -0.003811  -0.000210
     5  S    0.001185  -0.127658   0.016949   0.044006   0.005788   0.000066
     6  O    0.003720  -0.004076  -0.012514   0.017625  -0.000956   0.000003
     7  O   -0.001346   0.009074  -0.037644   0.024115   0.000264   0.000007
     8  C   -0.123218  -0.026207   0.121512   0.003824   0.003932  -0.000005
     9  C   -0.087537   0.288000  -0.252518   0.081224  -0.020672   0.000109
    10  O   -0.000257   0.000352   0.000410  -0.000189   0.000092   0.000000
    11  C    0.039909  -0.273463   0.107055  -0.086403   0.056395  -0.000121
    12  C   -1.063621   1.526499  -0.380827   0.027878   0.009714   0.000111
    13  C    1.253552  -2.502634   0.857363  -0.116761   0.154047   0.002782
    14  C   -3.621719   3.462156   0.902727  -0.042376  -0.132238   0.004388
    15  C   -3.161455   2.485176   0.444849  -0.003958  -1.665829   0.088795
    16  C    5.208921  -5.235697  -0.141906  -0.050671  -0.076644   0.000801
    17  C   -0.309801  -1.089996  -1.169911   0.013563  -0.360911   0.013533
    18  C   -1.136875   0.973302  -0.059413  -0.000879  -0.087956   0.003482
    19  C    0.263952  -0.136286  -0.023389  -0.000088   0.014787  -0.000329
    20  N   -0.003300   0.002099   0.000395  -0.000001  -0.000143   0.000004
    21  C   -0.655124  -0.194631  -0.040176   0.000284  -0.028080   0.000426
    22  N    0.022880   0.002923   0.000703  -0.000005   0.000407  -0.000001
    23  C    0.197621  -3.512274   1.423704  -0.028215  -0.468671   0.046091
    24  C   -5.840141   3.736057  -3.349400   0.047937  -0.740516   0.096795
    25  C   31.716976 -17.369273  -0.175643  -0.064928  -0.051341   0.024996
    26  C  -17.369273  33.144666  -9.311100   0.138207  -1.933819   0.276754
    27  C   -0.175643  -9.311100  19.327980   0.079277  -0.544351  -0.039999
    28  N   -0.064928   0.138207   0.079277   7.207590   0.005694  -0.004217
    29  C   -0.051341  -1.933819  -0.544351   0.005694  12.289830  -0.326977
    30  N    0.024996   0.276754  -0.039999  -0.004217  -0.326977   7.265451
    31  C    0.243307   0.983652  -2.112610   0.231668   0.077896  -0.005733
    32  C    0.135895  -0.662123   0.859210  -0.029122   0.028064  -0.002437
    33  C   -0.021590  -0.015048   0.066916  -0.027523   0.003423  -0.000015
    34  C   -0.000427   0.003639  -0.014812   0.007658  -0.000339   0.000004
    35  H    0.000000   0.000001   0.000000   0.000001  -0.000000   0.000000
    36  H   -0.000000  -0.000000   0.000001  -0.000000   0.000000  -0.000000
    37  H   -0.000000  -0.000000  -0.000000   0.000000  -0.000000   0.000000
    38  H   -0.000005  -0.000036  -0.000066  -0.000013   0.000000   0.000000
    39  H   -0.006578  -0.013702   0.068640  -0.048390  -0.001899   0.000022
    40  H   -0.002431   0.002562  -0.002586   0.000181  -0.000001   0.000000
    41  H    0.013005  -0.038327  -0.000491  -0.000834  -0.002870  -0.000001
    42  H    0.033173   0.005921   0.002923  -0.000089   0.000191   0.000003
    43  H    0.007906   0.005874  -0.000790   0.000008  -0.000411   0.000014
    44  H    0.062536  -0.130595   0.039545  -0.000380   0.038500   0.000453
    45  H   -0.028958   0.047254   0.028086  -0.001649   0.011283  -0.000001
    46  H    0.004627  -0.006562   0.002552  -0.000902  -0.000765  -0.000000
    47  H    0.000010  -0.000015   0.000009   0.000000  -0.000000   0.000000
    48  H    0.000000  -0.000000   0.000002  -0.000000   0.000000  -0.000000
              31         32         33         34         35         36
     1  C   -0.009028   0.000135   0.654106  -1.528692   0.504835   0.520964
     2  C    0.173260   0.246345  -0.880693   0.813721  -0.007150  -0.197912
     3  C   -0.499396  -0.733943   5.523732  -4.733385  -0.152411   0.095354
     4  C    3.663735   0.821666  -6.231598   2.132191  -0.021928  -0.012630
     5  S    0.516402  -0.388174  -0.500277   0.557806  -0.001509   0.000644
     6  O    0.036334   0.011997  -0.068932   0.049661  -0.000154  -0.000009
     7  O    0.089991  -0.098004  -0.295799   0.084694   0.000001  -0.000002
     8  C   -1.048482   0.371987  -4.802204   0.595115  -0.007079  -0.012147
     9  C    2.381314   1.913961  -5.582094   0.172434  -0.000139  -0.000869
    10  O   -0.079236  -0.131187   0.098696   0.001823  -0.000000  -0.000001
    11  C   -3.608195  -3.961501   4.767071  -0.808484  -0.000217   0.000152
    12  C   -7.403853  -0.020705   0.470257  -0.111834  -0.000014  -0.000001
    13  C   -6.973708  -3.330985   0.509619   0.051654   0.000001   0.000001
    14  C   -6.382888   1.301760   0.313923  -0.037470  -0.000004   0.000002
    15  C    1.411902  -0.527230  -0.067616  -0.000326  -0.000000  -0.000000
    16  C   -1.416492   0.591956   0.032636  -0.001464  -0.000000  -0.000000
    17  C    0.044228  -0.058799   0.004560  -0.000044  -0.000000  -0.000000
    18  C   -0.153007   0.065981  -0.000516   0.000014  -0.000000  -0.000000
    19  C    0.021027  -0.016269  -0.000049   0.000000   0.000000  -0.000000
    20  N    0.000056   0.000044  -0.000000  -0.000000  -0.000000   0.000000
    21  C   -0.009393   0.018732   0.000414   0.000005   0.000000   0.000000
    22  N   -0.001723  -0.000644   0.000011   0.000000  -0.000000  -0.000000
    23  C    0.025938   0.066217   0.000087  -0.000010   0.000000  -0.000000
    24  C    1.007624  -0.431253  -0.006884   0.000270   0.000000  -0.000000
    25  C    0.243307   0.135895  -0.021590  -0.000427   0.000000  -0.000000
    26  C    0.983652  -0.662123  -0.015048   0.003639   0.000001  -0.000000
    27  C   -2.112610   0.859210   0.066916  -0.014812   0.000000   0.000001
    28  N    0.231668  -0.029122  -0.027523   0.007658   0.000001  -0.000000
    29  C    0.077896   0.028064   0.003423  -0.000339  -0.000000   0.000000
    30  N   -0.005733  -0.002437  -0.000015   0.000004   0.000000  -0.000000
    31  C   33.217988  -6.375772  -1.867081   0.304131   0.000074  -0.000032
    32  C   -6.375772  17.216981  -0.659028   0.064230   0.000162  -0.000037
    33  C   -1.867081  -0.659028  16.695714  -2.770533  -0.009508   0.018731
    34  C    0.304131   0.064230  -2.770533  11.354563   0.049845  -0.064356
    35  H    0.000074   0.000162  -0.009508   0.049845   0.531644  -0.025657
    36  H   -0.000032  -0.000037   0.018731  -0.064356  -0.025657   0.536090
    37  H   -0.000011  -0.000022   0.010831  -0.042207  -0.024938  -0.028772
    38  H   -0.001070  -0.001235  -0.018942   0.047815   0.003530   0.000174
    39  H   -0.034489  -0.002224   0.018851  -0.000134  -0.000000  -0.000000
    40  H   -0.019058   0.010119   0.006656   0.000429   0.000000  -0.000000
    41  H    0.082083  -0.009836  -0.000536   0.000005  -0.000000   0.000000
    42  H   -0.064988  -0.004549   0.000033  -0.000002   0.000000   0.000000
    43  H    0.000854  -0.000064  -0.000000   0.000000   0.000000   0.000000
    44  H   -0.001499   0.000790   0.000000  -0.000000  -0.000000  -0.000000
    45  H    0.188905  -0.105192   0.002786   0.000263  -0.000000   0.000000
    46  H   -0.153762   0.203730  -0.020918  -0.023618  -0.000000   0.000000
    47  H    0.006044  -0.002835   0.327926  -0.078983   0.000002  -0.000000
    48  H    0.000289   0.002753  -0.051734   0.193775   0.000101   0.000924
              37         38         39         40         41         42
     1  C    0.468369  -0.029203   0.000427  -0.000000  -0.000000   0.000000
     2  C   -0.167123   0.008977  -0.001547  -0.000048   0.000000   0.000001
     3  C    0.078013   0.320051   0.006903   0.000878  -0.000072   0.000002
     4  C   -0.001965  -0.141251  -0.127330  -0.018602   0.001560  -0.000024
     5  S    0.000475   0.019385   0.391129   0.003883   0.000214  -0.000018
     6  O   -0.000015  -0.008110  -0.077059  -0.000006  -0.000000   0.000000
     7  O    0.000001   0.000360  -0.087962   0.001496  -0.000094   0.000000
     8  C    0.002498   0.087980   0.014667   0.035557  -0.001148   0.000041
     9  C    0.000271   0.009550   0.009885   0.030818   0.001216   0.000200
    10  O    0.000001  -0.000001  -0.000438   0.007078   0.000007   0.000004
    11  C    0.000073   0.007138  -0.030501  -0.045722   0.093513  -0.003775
    12  C    0.000017   0.000464  -0.003629   0.372004  -0.154951   0.036922
    13  C    0.000001   0.000153  -0.004794  -0.057459   0.273407   0.084353
    14  C    0.000001   0.000195   0.029647  -0.015854  -0.017497  -0.035078
    15  C    0.000000  -0.000010  -0.001695  -0.001348  -0.043687  -0.025082
    16  C    0.000000  -0.000000  -0.001315   0.001644   0.067020   0.374334
    17  C    0.000000  -0.000000  -0.000199   0.000459   0.024566  -0.074415
    18  C    0.000000  -0.000000  -0.000001   0.000320   0.002441  -0.033749
    19  C    0.000000  -0.000000   0.000000   0.000008   0.000428   0.000250
    20  N    0.000000   0.000000  -0.000000  -0.000000   0.000000  -0.000087
    21  C   -0.000000   0.000000  -0.000002  -0.000072   0.003090   0.012494
    22  N    0.000000  -0.000000   0.000000   0.000000  -0.000154   0.005009
    23  C   -0.000000  -0.000000  -0.000034  -0.000121   0.001296   0.003021
    24  C   -0.000000  -0.000000  -0.001573  -0.000182   0.008997  -0.009356
    25  C   -0.000000  -0.000005  -0.006578  -0.002431   0.013005   0.033173
    26  C   -0.000000  -0.000036  -0.013702   0.002562  -0.038327   0.005921
    27  C   -0.000000  -0.000066   0.068640  -0.002586  -0.000491   0.002923
    28  N    0.000000  -0.000013  -0.048390   0.000181  -0.000834  -0.000089
    29  C   -0.000000   0.000000  -0.001899  -0.000001  -0.002870   0.000191
    30  N    0.000000   0.000000   0.000022   0.000000  -0.000001   0.000003
    31  C   -0.000011  -0.001070  -0.034489  -0.019058   0.082083  -0.064988
    32  C   -0.000022  -0.001235  -0.002224   0.010119  -0.009836  -0.004549
    33  C    0.010831  -0.018942   0.018851   0.006656  -0.000536   0.000033
    34  C   -0.042207   0.047815  -0.000134   0.000429   0.000005  -0.000002
    35  H   -0.024938   0.003530  -0.000000   0.000000  -0.000000   0.000000
    36  H   -0.028772   0.000174  -0.000000  -0.000000   0.000000   0.000000
    37  H    0.529861   0.000151  -0.000000  -0.000000  -0.000000  -0.000000
    38  H    0.000151   0.517834   0.000182  -0.000000  -0.000000  -0.000000
    39  H   -0.000000   0.000182   0.855809   0.000015   0.000002   0.000000
    40  H   -0.000000  -0.000000   0.000015   0.530471  -0.004965   0.000000
    41  H   -0.000000  -0.000000   0.000002  -0.004965   0.563423   0.000512
    42  H   -0.000000  -0.000000   0.000000   0.000000   0.000512   0.522112
    43  H    0.000000  -0.000000   0.000000   0.000000  -0.000000  -0.000095
    44  H    0.000000  -0.000000   0.000000   0.000000   0.000000   0.000013
    45  H   -0.000000  -0.000000   0.000001   0.000016  -0.000166   0.000032
    46  H    0.000000  -0.000003  -0.000257  -0.000159   0.000018   0.000000
    47  H   -0.000000   0.000014   0.000004   0.000000  -0.000000  -0.000000
    48  H    0.000812  -0.000139  -0.000000  -0.000000  -0.000000   0.000000
              43         44         45         46         47         48
     1  C   -0.000000  -0.000000   0.000029   0.001802  -0.002827  -0.004160
     2  C   -0.000000   0.000000  -0.000045   0.016736  -0.032976   0.088820
     3  C    0.000000   0.000000   0.000308   0.002712  -0.019594   0.089316
     4  C    0.000000   0.000000  -0.010174   0.152714   0.069668   0.019937
     5  S    0.000000   0.000000  -0.000609  -0.006749   0.001547   0.000598
     6  O    0.000000  -0.000000  -0.000004  -0.000009   0.000017  -0.000002
     7  O   -0.000000   0.000000  -0.000007  -0.000323   0.000091  -0.000007
     8  C    0.000000  -0.000001   0.013643  -0.090974  -0.056682  -0.020230
     9  C   -0.000000  -0.000005   0.001338  -0.020208   0.024430  -0.015624
    10  O   -0.000000  -0.000000   0.000036  -0.001053   0.001413   0.000015
    11  C    0.000011  -0.000215   0.036435   0.210094   0.062067  -0.004012
    12  C   -0.000039  -0.000153   0.013950   0.031968   0.005010  -0.000545
    13  C   -0.000648  -0.000242   0.047559   0.020450   0.001772  -0.000032
    14  C    0.002163  -0.012934   0.097287  -0.026333   0.001702   0.000007
    15  C    0.006785  -0.005119  -0.010382  -0.000323  -0.000076  -0.000000
    16  C    0.016163   0.018895  -0.012926   0.000347  -0.000005   0.000000
    17  C   -0.030870   0.002205  -0.005561   0.000261  -0.000001   0.000000
    18  C   -0.000221  -0.005340   0.002110  -0.000057  -0.000000  -0.000000
    19  C   -0.008664   0.000279   0.000122   0.000000  -0.000000  -0.000000
    20  N    0.002682   0.000049  -0.000000  -0.000000   0.000000  -0.000000
    21  C    0.012875   0.000118  -0.000742   0.000020   0.000000   0.000000
    22  N   -0.000103   0.000003   0.000008  -0.000000  -0.000000   0.000000
    23  C    0.323275   0.055285  -0.002735   0.000044   0.000000   0.000000
    24  C   -0.020605   0.254738  -0.016208   0.000162   0.000000  -0.000000
    25  C    0.007906   0.062536  -0.028958   0.004627   0.000010   0.000000
    26  C    0.005874  -0.130595   0.047254  -0.006562  -0.000015  -0.000000
    27  C   -0.000790   0.039545   0.028086   0.002552   0.000009   0.000002
    28  N    0.000008  -0.000380  -0.001649  -0.000902   0.000000  -0.000000
    29  C   -0.000411   0.038500   0.011283  -0.000765  -0.000000   0.000000
    30  N    0.000014   0.000453  -0.000001  -0.000000   0.000000  -0.000000
    31  C    0.000854  -0.001499   0.188905  -0.153762   0.006044   0.000289
    32  C   -0.000064   0.000790  -0.105192   0.203730  -0.002835   0.002753
    33  C   -0.000000   0.000000   0.002786  -0.020918   0.327926  -0.051734
    34  C    0.000000  -0.000000   0.000263  -0.023618  -0.078983   0.193775
    35  H    0.000000  -0.000000  -0.000000  -0.000000   0.000002   0.000101
    36  H    0.000000  -0.000000   0.000000   0.000000  -0.000000   0.000924
    37  H    0.000000   0.000000  -0.000000   0.000000  -0.000000   0.000812
    38  H   -0.000000  -0.000000  -0.000000  -0.000003   0.000014  -0.000139
    39  H    0.000000   0.000000   0.000001  -0.000257   0.000004  -0.000000
    40  H    0.000000   0.000000   0.000016  -0.000159   0.000000  -0.000000
    41  H   -0.000000   0.000000  -0.000166   0.000018  -0.000000  -0.000000
    42  H   -0.000095   0.000013   0.000032   0.000000  -0.000000   0.000000
    43  H    0.513898  -0.004523  -0.000000  -0.000000  -0.000000  -0.000000
    44  H   -0.004523   0.515852   0.000002   0.000000  -0.000000   0.000000
    45  H   -0.000000   0.000002   0.578764  -0.006014  -0.000000  -0.000000
    46  H   -0.000000   0.000000  -0.006014   0.573084  -0.000044  -0.000003
    47  H   -0.000000  -0.000000  -0.000000  -0.000044   0.549308  -0.004999
    48  H   -0.000000   0.000000  -0.000000  -0.000003  -0.004999   0.565545
 Mulliken charges:
               1
     1  C   -0.528057
     2  C    0.184502
     3  C   -0.000696
     4  C   -1.484279
     5  S    1.275060
     6  O   -0.551809
     7  O   -0.441747
     8  C    0.220236
     9  C    0.359108
    10  O   -0.323373
    11  C    0.322779
    12  C    0.029862
    13  C   -0.162678
    14  C   -0.003300
    15  C    0.192241
    16  C   -0.324283
    17  C    1.434302
    18  C    0.709288
    19  C   -0.182920
    20  N   -0.455875
    21  C   -0.507032
    22  N   -0.447197
    23  C   -0.446726
    24  C   -0.329290
    25  C    0.361317
    26  C    1.389683
    27  C   -0.577044
    28  N   -0.346556
    29  C   -0.260872
    30  N   -0.445052
    31  C   -0.487193
    32  C   -0.379544
    33  C    0.372142
    34  C   -0.268622
    35  H    0.160512
    36  H    0.169388
    37  H    0.173683
    38  H    0.176129
    39  H    0.049571
    40  H    0.164019
    41  H    0.138826
    42  H    0.169763
    43  H    0.174524
    44  H    0.171742
    45  H    0.131158
    46  H    0.137713
    47  H    0.148002
    48  H    0.138593
 Sum of Mulliken charges =  -0.00000
 Mulliken charges with hydrogens summed into heavy atoms:
               1
     1  C   -0.024474
     2  C    0.184502
     3  C    0.175433
     4  C   -1.484279
     5  S    1.324631
     6  O   -0.551809
     7  O   -0.441747
     8  C    0.220236
     9  C    0.359108
    10  O   -0.323373
    11  C    0.322779
    12  C    0.193881
    13  C   -0.023852
    14  C   -0.003300
    15  C    0.192241
    16  C   -0.154520
    17  C    1.434302
    18  C    0.709288
    19  C   -0.182920
    20  N   -0.455875
    21  C   -0.507032
    22  N   -0.447197
    23  C   -0.272201
    24  C   -0.157548
    25  C    0.361317
    26  C    1.389683
    27  C   -0.577044
    28  N   -0.346556
    29  C   -0.260872
    30  N   -0.445052
    31  C   -0.356034
    32  C   -0.241831
    33  C    0.520145
    34  C   -0.130028
 Electronic spatial extent (au):  <R**2>=          20412.7933
 Charge=             -0.0000 electrons
 Dipole moment (field-independent basis, Debye):
    X=             -0.7412    Y=             -0.3561    Z=             -6.4120  Tot=              6.4645
 Quadrupole moment (field-independent basis, Debye-Ang):
   XX=           -219.6052   YY=           -245.0242   ZZ=           -205.3565
   XY=             18.6103   XZ=             32.7857   YZ=              2.0586
 Traceless Quadrupole moment (field-independent basis, Debye-Ang):
   XX=              3.7234   YY=            -21.6955   ZZ=             17.9721
   XY=             18.6103   XZ=             32.7857   YZ=              2.0586
 Octapole moment (field-independent basis, Debye-Ang**2):
  XXX=           -620.3163  YYY=            -49.9913  ZZZ=             -5.9241  XYY=           -106.4733
  XXY=             60.3858  XXZ=           -119.2367  XZZ=             -9.8962  YZZ=            -11.6704
  YYZ=            -20.7922  XYZ=             -0.7813
 Hexadecapole moment (field-independent basis, Debye-Ang**3):
 XXXX=         -25362.2583 YYYY=          -6042.5852 ZZZZ=          -1515.9045 XXXY=            934.6411
 XXXZ=           1130.5169 YYYX=             24.2795 YYYZ=            170.9194 ZZZX=            101.7321
 ZZZY=            -12.6378 XXYY=          -5145.5966 XXZZ=          -3995.0696 YYZZ=          -1068.0231
 XXYZ=             36.7785 YYXZ=            125.7405 ZZXY=             34.2932
 N-N= 3.265502193977D+03 E-N=-1.082492174568D+04  KE= 1.826785422703D+03
 Unable to Open any file for archive entry.
 1\1\GINC-N1\SP\RB3LYP TD-FC\6-31+G(d,p)\C26H14N4O3S1\HPCMGAC13\25-Aug-
 2025\0\\# td=(50-50,nstates=3) b3lyp/6-31+g(d,p) geom=connectivity\\Ti
 tle Card Required\\0,1\C,0,7.314007,0.207086,2.309476\C,0,6.118515,-0.
 326372,1.557251\C,0,5.404871,0.482894,0.663587\C,0,4.298745,-0.015922,
 -0.026876\S,0,3.554149,1.08162,-1.263524\O,0,4.435049,2.250802,-1.4087
 59\O,0,3.16112,0.25253,-2.414819\C,0,3.872353,-1.34546,0.137794\C,0,2.
 697811,-1.98027,-0.568747\O,0,2.844563,-3.02631,-1.179821\C,0,1.333726
 ,-1.373556,-0.410386\C,0,0.383771,-1.561023,-1.424575\C,0,-0.901755,-1
 .050723,-1.281246\C,0,-1.270918,-0.360782,-0.112025\C,0,-2.668177,0.12
 6729,0.057437\C,0,-3.677313,-0.795569,0.046322\C,0,-5.059104,-0.454115
 ,0.277056\C,0,-6.0566,-1.422634,0.241439\C,0,-7.423918,-1.10212,0.4977
 46\N,0,-8.537088,-0.831368,0.708819\C,0,-5.771666,-2.789853,-0.053992\
 N,0,-5.531477,-3.903847,-0.295411\C,0,-5.364388,0.925113,0.578124\C,0,
 -4.385384,1.860803,0.578066\C,0,-3.004541,1.54021,0.257478\C,0,-2.1102
 58,2.597855,0.106162\C,0,-0.753463,2.513954,-0.333168\N,0,0.351783,2.5
 73837,-0.69475\C,0,-2.528505,3.94675,0.346504\N,0,-2.857064,5.045704,0
 .548475\C,0,-0.329753,-0.207349,0.916599\C,0,0.966623,-0.695763,0.7612
 84\C,0,4.609411,-2.159491,1.009483\C,0,5.701932,-1.656276,1.71346\H,0,
 7.499207,1.257393,2.071389\H,0,7.166485,0.126283,3.392387\H,0,8.218733
 ,-0.35943,2.061761\H,0,5.720523,1.503392,0.471169\H,0,2.403899,1.51714
 3,-0.668962\H,0,0.675175,-2.090385,-2.325015\H,0,-1.622401,-1.169134,-
 2.08488\H,0,-3.425218,-1.840027,-0.10608\H,0,-6.38948,1.207798,0.79275
 \H,0,-4.637196,2.894713,0.786374\H,0,-0.608219,0.293601,1.839337\H,0,1
 .686263,-0.567873,1.564225\H,0,4.313676,-3.197341,1.127102\H,0,6.24709
 1,-2.313189,2.386571\\Version=ES64L-G16RevC.02\State=1-A\HF=-1841.9471
 645\RMSD=5.375e-09\PG=C01 [X(C26H14N4O3S1)]\\@
 The archive entry for this job was punched.


 MEMORIES ARE LIKE AN ENGLISH GRAMMER LESSON -
 PRESENT TENSE, AND PAST PERFECT.
 Job cpu time:       0 days  5 hours 56 minutes 22.5 seconds.
 Elapsed time:       0 days  0 hours 23 minutes 18.0 seconds.
 File lengths (MBytes):  RWF=   2714 Int=      0 D2E=      0 Chk=    132 Scr=      2
 Normal termination of Gaussian 16 at Mon Aug 25 14:56:55 2025.
