 Entering Gaussian System, Link 0=g16
 Input=M835E.gjf
 Output=M835E.log
 Initial command:
 /hpc/softwares/Gaussian/g16/l1.exe "/hpc/home/hpcmgac13/pbs.13414.admin1.x8z/Gau-3284845.inp" -scrdir="/hpc/home/hpcmgac13/pbs.13414.admin1.x8z/"
 Default linda workers: n2
 Default is to use  16 SMP processors on each worker.
 Entering Link 1 = /hpc/softwares/Gaussian/g16/l1.exe PID=   3284846.
  
 Copyright (c) 1988-2021, Gaussian, Inc.  All Rights Reserved.
  
 This is part of the Gaussian(R) 16 program.  It is based on
 the Gaussian(R) 09 system (copyright 2009, Gaussian, Inc.),
 the Gaussian(R) 03 system (copyright 2003, Gaussian, Inc.),
 the Gaussian(R) 98 system (copyright 1998, Gaussian, Inc.),
 the Gaussian(R) 94 system (copyright 1995, Gaussian, Inc.),
 the Gaussian 92(TM) system (copyright 1992, Gaussian, Inc.),
 the Gaussian 90(TM) system (copyright 1990, Gaussian, Inc.),
 the Gaussian 88(TM) system (copyright 1988, Gaussian, Inc.),
 the Gaussian 86(TM) system (copyright 1986, Carnegie Mellon
 University), and the Gaussian 82(TM) system (copyright 1983,
 Carnegie Mellon University). Gaussian is a federally registered
 trademark of Gaussian, Inc.
  
 This software contains proprietary and confidential information,
 including trade secrets, belonging to Gaussian, Inc.
  
 This software is provided under written license and may be
 used, copied, transmitted, or stored only in accord with that
 written license.
  
 The following legend is applicable only to US Government
 contracts under FAR:
  
                    RESTRICTED RIGHTS LEGEND
  
 Use, reproduction and disclosure by the US Government is
 subject to restrictions as set forth in subparagraphs (a)
 and (c) of the Commercial Computer Software - Restricted
 Rights clause in FAR 52.227-19.
  
 Gaussian, Inc.
 340 Quinnipiac St., Bldg. 40, Wallingford CT 06492
  
  
 ---------------------------------------------------------------
 Warning -- This program may not be used in any manner that
 competes with the business of Gaussian, Inc. or will provide
 assistance to any competitor of Gaussian, Inc.  The licensee
 of this program is prohibited from giving any competitor of
 Gaussian, Inc. access to this program.  By using this program,
 the user acknowledges that Gaussian, Inc. is engaged in the
 business of creating and licensing software in the field of
 computational chemistry and represents and warrants to the
 licensee that it is not a competitor of Gaussian, Inc. and that
 it will not use this program in any manner prohibited above.
 ---------------------------------------------------------------
  

 Cite this work as:
 Gaussian 16, Revision C.02,
 M. J. Frisch, G. W. Trucks, H. B. Schlegel, G. E. Scuseria, 
 M. A. Robb, J. R. Cheeseman, G. Scalmani, V. Barone, 
 G. A. Petersson, H. Nakatsuji, X. Li, M. Caricato, A. V. Marenich, 
 J. Bloino, B. G. Janesko, R. Gomperts, B. Mennucci, H. P. Hratchian, 
 J. V. Ortiz, A. F. Izmaylov, J. L. Sonnenberg, D. Williams-Young, 
 F. Ding, F. Lipparini, F. Egidi, J. Goings, B. Peng, A. Petrone, 
 T. Henderson, D. Ranasinghe, V. G. Zakrzewski, J. Gao, N. Rega, 
 G. Zheng, W. Liang, M. Hada, M. Ehara, K. Toyota, R. Fukuda, 
 J. Hasegawa, M. Ishida, T. Nakajima, Y. Honda, O. Kitao, H. Nakai, 
 T. Vreven, K. Throssell, J. A. Montgomery, Jr., J. E. Peralta, 
 F. Ogliaro, M. J. Bearpark, J. J. Heyd, E. N. Brothers, K. N. Kudin, 
 V. N. Staroverov, T. A. Keith, R. Kobayashi, J. Normand, 
 K. Raghavachari, A. P. Rendell, J. C. Burant, S. S. Iyengar, 
 J. Tomasi, M. Cossi, J. M. Millam, M. Klene, C. Adamo, R. Cammi, 
 J. W. Ochterski, R. L. Martin, K. Morokuma, O. Farkas, 
 J. B. Foresman, and D. J. Fox, Gaussian, Inc., Wallingford CT, 2019.
 
 ******************************************
 Gaussian 16:  ES64L-G16RevC.02  7-Dec-2021
                25-Aug-2025 
 ******************************************
 SetLPE:    new flags="-opt 'Tsnet.Node.lindarsharg: ssh'  -nodelist 'n2.head.cm.mguif.local' -env GAUSS_MDEF=4294967296 -env GAUSS_EXEDIR="/hpc/softwares/Gaussian/g16/bsd:/hpc/softwares/Gaussian/g16""
 Will use up to    1 processors via Linda.
 ----------------------------------------------------------
 # td=(50-50,nstates=3) b3lyp/6-31+g(d,p) geom=connectivity
 ----------------------------------------------------------
 1/38=1,57=2,172=1/1;
 2/12=2,17=6,18=5,40=1/2;
 3/5=1,6=6,7=111,11=9,25=1,30=1,74=-5/1,2,3,8;
 4//1;
 5/5=2,38=5/2;
 8/6=1,10=2,108=3/1;
 9/41=3,42=1,48=2,70=2/14;
 6/7=2,8=2,9=2,10=2/1;
 99/5=1,9=1/99;
 -------------------
 Title Card Required
 -------------------
 Symbolic Z-matrix:
 Charge =  0 Multiplicity = 1
 C                    -7.30027   0.43635   0.00024 
 C                    -5.91608  -0.13441   0.00026 
 C                    -4.78203   0.59821   0.00004 
 C                    -3.43548   0.07076   0.00001 
 C                    -2.27803   0.80911  -0.00022 
 C                    -1.14808  -0.10505  -0.00027 
 C                     0.18323   0.23472  -0.00035 
 C                     0.74721   1.55954  -0.00014 
 C                     2.10752   1.59501  -0.00006 
 C                     2.71889   0.28876  -0.00014 
 C                     4.07873   0.02543   0.00015 
 C                     4.58224  -1.30737   0.0002 
 N                     4.96933  -2.40691   0.00026 
 C                     5.01955   1.09728   0.00022 
 N                     5.77162   1.98778   0.00029 
 S                     1.49325  -0.97032  -0.00031 
 C                    -1.70441  -1.46691  -0.00009 
 C                    -3.05425  -1.36649   0.00011 
 H                    -7.86478   0.09811  -0.87859 
 H                    -7.86442   0.09888   0.87961 
 H                    -7.28827   1.53037  -0.00019 
 H                    -5.84641  -1.22151   0.00042 
 H                    -4.86538   1.68506  -0.00012 
 H                    -2.21527   1.88918  -0.00038 
 H                     0.11957   2.44248  -0.00014 
 H                     2.70605   2.49822   0.00034 
 H                    -1.11966  -2.37786  -0.00006 
 H                    -3.75248  -2.19358   0.0004 
 
                          Input orientation:                          
 ---------------------------------------------------------------------
 Center     Atomic      Atomic             Coordinates (Angstroms)
 Number     Number       Type             X           Y           Z
 ---------------------------------------------------------------------
      1          6           0       -7.300271    0.436345    0.000239
      2          6           0       -5.916080   -0.134409    0.000257
      3          6           0       -4.782031    0.598213    0.000044
      4          6           0       -3.435484    0.070764    0.000007
      5          6           0       -2.278027    0.809114   -0.000220
      6          6           0       -1.148080   -0.105053   -0.000268
      7          6           0        0.183226    0.234719   -0.000350
      8          6           0        0.747206    1.559542   -0.000144
      9          6           0        2.107518    1.595007   -0.000064
     10          6           0        2.718892    0.288764   -0.000136
     11          6           0        4.078733    0.025433    0.000152
     12          6           0        4.582237   -1.307366    0.000202
     13          7           0        4.969331   -2.406910    0.000259
     14          6           0        5.019551    1.097277    0.000218
     15          7           0        5.771616    1.987777    0.000291
     16         16           0        1.493254   -0.970320   -0.000307
     17          6           0       -1.704413   -1.466907   -0.000086
     18          6           0       -3.054251   -1.366493    0.000111
     19          1           0       -7.864784    0.098110   -0.878586
     20          1           0       -7.864418    0.098884    0.879614
     21          1           0       -7.288270    1.530371   -0.000194
     22          1           0       -5.846412   -1.221510    0.000424
     23          1           0       -4.865379    1.685060   -0.000123
     24          1           0       -2.215274    1.889182   -0.000383
     25          1           0        0.119569    2.442478   -0.000140
     26          1           0        2.706047    2.498222    0.000344
     27          1           0       -1.119655   -2.377863   -0.000061
     28          1           0       -3.752479   -2.193583    0.000400
 ---------------------------------------------------------------------
                    Distance matrix (angstroms):
                    1          2          3          4          5
     1  C    0.000000
     2  C    1.497246   0.000000
     3  C    2.523437   1.350112   0.000000
     4  C    3.882039   2.489067   1.446164   0.000000
     5  C    5.036059   3.758413   2.512870   1.372905   0.000000
     6  C    6.175967   4.768090   3.701376   2.294151   1.453438
     7  C    7.486213   6.110466   4.978544   3.622422   2.527389
     8  C    8.125482   6.875235   5.612185   4.439747   3.116918
     9  C    9.478871   8.207862   6.961285   5.748755   4.455405
    10  C   10.020250   8.645335   7.507303   6.158236   5.023939
    11  C   11.386421   9.996091   8.879258   7.514354   6.404885
    12  C   12.009768  10.563640   9.556189   8.135299   7.179325
    13  N   12.594730  11.120091  10.203912   8.762407   7.928872
    14  C   12.337538  11.004775   9.814279   8.517121   7.303265
    15  N   13.163631  11.878801  10.644734   9.404554   8.135478
    16  S    8.905324   7.456338   6.468346   5.037491   4.170005
    17  C    5.910668   4.417430   3.706272   2.315392   2.347191
    18  C    4.612907   3.115782   2.616351   1.486959   2.309933
    19  H    1.097912   2.150320   3.244296   4.515681   5.699904
    20  H    1.097926   2.150283   3.244084   4.515524   5.699675
    21  H    1.094092   2.157405   2.673977   4.120002   5.061892
    22  H    2.205037   1.089331   2.108151   2.735424   4.105704
    23  H    2.736419   2.101057   1.090038   2.156514   2.731606
    24  H    5.288471   4.217924   2.873124   2.189876   1.081889
    25  H    7.686260   6.562729   5.237079   4.273573   2.901094
    26  H   10.216542   9.015088   7.725370   6.603859   5.262516
    27  H    6.791155   5.295166   4.719113   3.370288   3.390966
    28  H    4.416260   2.986866   2.975584   2.286428   3.345175
                    6          7          8          9         10
     6  C    0.000000
     7  C    1.373980   0.000000
     8  C    2.522496   1.439871   0.000000
     9  C    3.672754   2.356541   1.360774   0.000000
    10  C    3.886974   2.536242   2.345724   1.442237   0.000000
    11  C    5.228442   3.901125   3.667774   2.519772   1.385103
    12  C    5.855091   4.661472   4.788175   3.814184   2.453505
    13  N    6.536150   5.466718   5.793020   4.919890   3.511571
    14  C    6.283731   4.912641   4.297281   2.954263   2.438591
    15  N    7.229255   5.856903   5.042626   3.685089   3.493676
    16  S    2.779448   1.779970   2.637573   2.637844   1.757123
    17  C    1.471106   2.541400   3.894847   4.889390   4.758992
    18  C    2.285764   3.611805   4.797161   5.950995   6.005752
    19  H    6.776934   8.096939   8.779169  10.122219  10.621781
    20  H    6.776797   8.096750   8.778813  10.121844  10.621510
    21  H    6.354254   7.583005   8.035529   9.396010  10.083892
    22  H    4.829161   6.202994   7.156120   8.437877   8.697434
    23  H    4.125872   5.252799   5.613988   6.973478   7.711732
    24  H    2.261830   2.913769   2.980763   4.332790   5.187228
    25  H    2.845496   2.208677   1.083284   2.161053   3.375643
    26  H    4.650950   3.389406   2.172137   1.083529   2.209495
    27  H    2.272988   2.919432   4.357560   5.118432   4.673900
    28  H    3.338391   4.624546   5.859446   6.978035   6.931139
                   11         12         13         14         15
    11  C    0.000000
    12  C    1.424735   0.000000
    13  N    2.590262   1.165692   0.000000
    14  C    1.426180   2.444085   3.504547   0.000000
    15  N    2.591649   3.503226   4.467319   1.165587   0.000000
    16  S    2.770600   3.107317   3.761237   4.087753   5.201415
    17  C    5.972592   6.288674   6.739619   7.196300   8.235645
    18  C    7.267525   7.636717   8.090756   8.441353   9.441772
    19  H   11.976020  12.556909  13.105800  12.952865  13.794733
    20  H   11.975713  12.556677  13.105624  12.952482  13.794294
    21  H   11.466194  12.204986  12.874431  12.315439  13.067894
    22  H   10.003168  10.429002  10.880509  11.110622  12.053136
    23  H    9.096785   9.910200  10.652030   9.902390  10.641302
    24  H    6.564151   7.511596   8.371079   7.278036   7.987499
    25  H    4.638651   5.828957   6.858335   5.081278   5.670308
    26  H    2.828242   4.242946   5.402108   2.704616   3.107775
    27  H    5.727047   5.801512   6.089055   7.054534   8.157722
    28  H    8.139528   8.381699   8.724418   9.369006  10.401546
                   16         17         18         19         20
    16  S    0.000000
    17  C    3.235996   0.000000
    18  C    4.564729   1.353568   0.000000
    19  H    9.459693   6.416480   5.104743   0.000000
    20  H    9.459571   6.416482   5.104759   1.758200   0.000000
    21  H    9.130642   6.337439   5.130179   1.776320   1.776278
    22  H    7.343963   4.149262   2.795923   2.566687   2.566859
    23  H    6.890810   4.463922   3.548543   3.505216   3.504872
    24  H    4.682940   3.394748   3.362038   5.991339   5.991026
    25  H    3.678886   4.313954   4.957963   8.367653   8.367225
    26  H    3.674459   5.930801   6.936646  10.875455  10.874956
    27  H    2.967907   1.082489   2.183010   7.238716   7.238780
    28  H    5.386473   2.173162   1.082405   4.789105   4.789203
                   21         22         23         24         25
    21  H    0.000000
    22  H    3.106735   0.000000
    23  H    2.427824   3.067666   0.000000
    24  H    5.085669   4.781377   2.657955   0.000000
    25  H    7.463780   7.001267   5.042161   2.399506   0.000000
    26  H   10.041071   9.326358   7.614967   4.958864   2.587079
    27  H    7.302472   4.866147   5.526101   4.405457   4.977084
    28  H    5.135139   2.308567   4.035148   4.362565   6.040349
                   26         27         28
    26  H    0.000000
    27  H    6.197758   0.000000
    28  H    7.982831   2.639265   0.000000
 Stoichiometry    C15H10N2S
 Framework group  C1[X(C15H10N2S)]
 Deg. of freedom    78
 Full point group                 C1      NOp   1
 Largest Abelian subgroup         C1      NOp   1
 Largest concise Abelian subgroup C1      NOp   1
                         Standard orientation:                         
 ---------------------------------------------------------------------
 Center     Atomic      Atomic             Coordinates (Angstroms)
 Number     Number       Type             X           Y           Z
 ---------------------------------------------------------------------
      1          6           0        7.300271   -0.436345    0.000239
      2          6           0        5.916080    0.134409    0.000257
      3          6           0        4.782031   -0.598213    0.000044
      4          6           0        3.435484   -0.070764    0.000007
      5          6           0        2.278027   -0.809114   -0.000220
      6          6           0        1.148080    0.105053   -0.000268
      7          6           0       -0.183226   -0.234719   -0.000350
      8          6           0       -0.747206   -1.559542   -0.000144
      9          6           0       -2.107518   -1.595007   -0.000064
     10          6           0       -2.718892   -0.288764   -0.000136
     11          6           0       -4.078733   -0.025433    0.000152
     12          6           0       -4.582237    1.307366    0.000202
     13          7           0       -4.969331    2.406910    0.000259
     14          6           0       -5.019551   -1.097277    0.000218
     15          7           0       -5.771616   -1.987777    0.000291
     16         16           0       -1.493254    0.970320   -0.000307
     17          6           0        1.704413    1.466907   -0.000086
     18          6           0        3.054251    1.366493    0.000111
     19          1           0        7.864784   -0.098110   -0.878586
     20          1           0        7.864418   -0.098884    0.879614
     21          1           0        7.288270   -1.530371   -0.000194
     22          1           0        5.846412    1.221510    0.000424
     23          1           0        4.865379   -1.685060   -0.000123
     24          1           0        2.215274   -1.889182   -0.000383
     25          1           0       -0.119569   -2.442478   -0.000140
     26          1           0       -2.706047   -2.498222    0.000344
     27          1           0        1.119655    2.377863   -0.000061
     28          1           0        3.752479    2.193583    0.000400
 ---------------------------------------------------------------------
 Rotational constants (GHZ):           1.4013213           0.1348664           0.1231195
 Standard basis: 6-31+G(d,p) (6D, 7F)
 There are   396 symmetry adapted cartesian basis functions of A   symmetry.
 There are   396 symmetry adapted basis functions of A   symmetry.
   396 basis functions,   670 primitive gaussians,   396 cartesian basis functions
    65 alpha electrons       65 beta electrons
       nuclear repulsion energy      1165.4387076866 Hartrees.
 NAtoms=   28 NActive=   28 NUniq=   28 SFac= 1.00D+00 NAtFMM=   60 NAOKFM=F Big=F
 Integral buffers will be    131072 words long.
 Regular integral format.
 Two-electron integral symmetry is turned on.
 One-electron integrals computed using PRISM.
 NBasis=   396 RedAO= T EigKep=  1.11D-06  NBF=   396
 NBsUse=   392 1.00D-06 EigRej=  7.13D-07 NBFU=   392
 ExpMin= 4.05D-02 ExpMax= 2.19D+04 ExpMxC= 3.30D+03 IAcc=3 IRadAn=         5 AccDes= 0.00D+00
 Harris functional with IExCor=  402 and IRadAn=       5 diagonalized for initial guess.
 HarFok:  IExCor=  402 AccDes= 0.00D+00 IRadAn=         5 IDoV= 1 UseB2=F ITyADJ=14
 ICtDFT=  3500011 ScaDFX=  1.000000  1.000000  1.000000  1.000000
 FoFCou: FMM=F IPFlag=           0 FMFlag=      100000 FMFlg1=           0
         NFxFlg=           0 DoJE=T BraDBF=F KetDBF=T FulRan=T
         wScrn=  0.000000 ICntrl=       500 IOpCl=  0 I1Cent=   200000004 NGrid=           0
         NMat0=    1 NMatS0=      1 NMatT0=    0 NMatD0=    1 NMtDS0=    0 NMtDT0=    0
 Petite list used in FoFCou.
 Requested convergence on RMS density matrix=1.00D-08 within 128 cycles.
 Requested convergence on MAX density matrix=1.00D-06.
 Requested convergence on             energy=1.00D-06.
 No special actions if energy rises.
 EnCoef did     2 forward-backward iterations
 SCF Done:  E(RB3LYP) =  -1085.24895611     A.U. after   18 cycles
            NFock= 18  Conv=0.90D-08     -V/T= 2.0074
 DoSCS=F DFT=T ScalE2(SS,OS)=  1.000000  1.000000
 ExpMin= 4.05D-02 ExpMax= 2.19D+04 ExpMxC= 3.30D+03 IAcc=3 IRadAn=         5 AccDes= 0.00D+00
 HarFok:  IExCor=  205 AccDes= 0.00D+00 IRadAn=         5 IDoV=-2 UseB2=F ITyADJ=14
 ICtDFT= 12500011 ScaDFX=  1.000000  1.000000  1.000000  1.000000
 GSVD:  LWork=        -660 too small for GESVD, short by        2750 words or        2750 for optimal perf.
 Range of M.O.s used for correlation:    23   392
 NBasis=   396 NAE=    65 NBE=    65 NFC=    22 NFV=     0
 NROrb=    370 NOA=    43 NOB=    43 NVA=   327 NVB=   327

 **** Warning!!: The largest alpha MO coefficient is  0.16792525D+03


 **** Warning!!: The smallest alpha delta epsilon is  0.83112263D-01

 Orbital symmetries:
       Occupied  (A) (A) (A) (A) (A) (A) (A) (A) (A) (A) (A) (A)
                 (A) (A) (A) (A) (A) (A) (A) (A) (A) (A) (A) (A)
                 (A) (A) (A) (A) (A) (A) (A) (A) (A) (A) (A) (A)
                 (A) (A) (A) (A) (A) (A) (A) (A) (A) (A) (A) (A)
                 (A) (A) (A) (A) (A) (A) (A) (A) (A) (A) (A) (A)
                 (A) (A) (A) (A) (A)
       Virtual   (A) (A) (A) (A) (A) (A) (A) (A) (A) (A) (A) (A)
                 (A) (A) (A) (A) (A) (A) (A) (A) (A) (A) (A) (A)
                 (A) (A) (A) (A) (A) (A) (A) (A) (A) (A) (A) (A)
                 (A) (A) (A) (A) (A) (A) (A) (A) (A) (A) (A) (A)
                 (A) (A) (A) (A) (A) (A) (A) (A) (A) (A) (A) (A)
                 (A) (A) (A) (A) (A) (A) (A) (A) (A) (A) (A) (A)
                 (A) (A) (A) (A) (A) (A) (A) (A) (A) (A) (A) (A)
                 (A) (A) (A) (A) (A) (A) (A) (A) (A) (A) (A) (A)
                 (A) (A) (A) (A) (A) (A) (A) (A) (A) (A) (A) (A)
                 (A) (A) (A) (A) (A) (A) (A) (A) (A) (A) (A) (A)
                 (A) (A) (A) (A) (A) (A) (A) (A) (A) (A) (A) (A)
                 (A) (A) (A) (A) (A) (A) (A) (A) (A) (A) (A) (A)
                 (A) (A) (A) (A) (A) (A) (A) (A) (A) (A) (A) (A)
                 (A) (A) (A) (A) (A) (A) (A) (A) (A) (A) (A) (A)
                 (A) (A) (A) (A) (A) (A) (A) (A) (A) (A) (A) (A)
                 (A) (A) (A) (A) (A) (A) (A) (A) (A) (A) (A) (A)
                 (A) (A) (A) (A) (A) (A) (A) (A) (A) (A) (A) (A)
                 (A) (A) (A) (A) (A) (A) (A) (A) (A) (A) (A) (A)
                 (A) (A) (A) (A) (A) (A) (A) (A) (A) (A) (A) (A)
                 (A) (A) (A) (A) (A) (A) (A) (A) (A) (A) (A) (A)
                 (A) (A) (A) (A) (A) (A) (A) (A) (A) (A) (A) (A)
                 (A) (A) (A) (A) (A) (A) (A) (A) (A) (A) (A) (A)
                 (A) (A) (A) (A) (A) (A) (A) (A) (A) (A) (A) (A)
                 (A) (A) (A) (A) (A) (A) (A) (A) (A) (A) (A) (A)
                 (A) (A) (A) (A) (A) (A) (A) (A) (A) (A) (A) (A)
                 (A) (A) (A) (A) (A) (A) (A) (A) (A) (A) (A) (A)
                 (A) (A) (A) (A) (A) (A) (A) (A) (A) (A) (A) (A)
                 (A) (A) (A)
    24 initial guesses have been made.
 Convergence on wavefunction:    0.001000000000000
 Iteration     1 Dimension    24 NMult     0 NNew     24
 CISAX will form    24 AO SS matrices at one time.
 New state      1 was old state      2
 New state      2 was old state      4
 New state      3 was old state      1
 New state      4 was old state      6
 New state      5 was old state      3
 New state      6 was old state     10
 New state      7 was old state      8
 New state      8 was old state      5
 New state      9 was old state     14
 New state     10 was old state      9
 New state     11 was old state     12
 New state     12 was old state     18
 Vector   6 SDiff=1.05D+00 TDiff=6.07D+00 assumed to be singlet.
 Vector  12 SDiff=9.91D-01 TDiff=4.98D+00 assumed to be singlet.
 Iteration     2 Dimension    36 NMult    24 NNew     12
 New state      6 was old state      8
 Iteration     3 Dimension    48 NMult    36 NNew     12
 Iteration     4 Dimension    60 NMult    48 NNew     12
 Iteration     5 Dimension    72 NMult    60 NNew     12
 Iteration     6 Dimension    78 NMult    72 NNew      6
 Iteration     7 Dimension    82 NMult    78 NNew      4
 ***********************************************************************
 Excited states from <AA,BB:AA,BB> singles matrix:
 ***********************************************************************
 
 Ground to excited state transition densities written to RWF  633
 Ground to excited state transition electric dipole moments (Au):
       state          X           Y           Z        Dip. S.      Osc.
         1         0.0000     -0.0000      0.0000      0.0000      0.0000
         2         0.0000      0.0000      0.0000      0.0000      0.0000
         3         1.7858      0.0798      0.0000      3.1956      0.1480
         4         0.0000      0.0000     -0.0000      0.0000      0.0000
         5        -3.8671     -0.1655      0.0001     14.9815      1.0187
         6         0.9371     -0.0027      0.0001      0.8782      0.0747
 Ground to excited state transition velocity dipole moments (Au):
       state          X           Y           Z        Dip. S.      Osc.
         1         0.0000     -0.0000     -0.0000      0.0000      0.0000
         2        -0.0000     -0.0000      0.0000      0.0000      0.0000
         3        -0.1159     -0.0082     -0.0000      0.0135      0.1294
         4        -0.0000     -0.0000      0.0000      0.0000      0.0000
         5         0.3744      0.0164     -0.0000      0.1405      0.9181
         6        -0.1171      0.0010     -0.0000      0.0137      0.0716
 Ground to excited state transition magnetic dipole moments (Au):
       state          X           Y           Z
         1        -0.0000      0.0000     -0.0000
         2        -0.0000      0.0000      0.0000
         3         0.0001      0.0002     -0.6718
         4         0.0000     -0.0000     -0.0000
         5         0.0001     -0.0003      0.2208
         6        -0.0001     -0.0000     -0.0578
 Ground to excited state transition velocity quadrupole moments (Au):
       state          XX          YY          ZZ          XY          XZ          YZ
         1        -0.0000      0.0000     -0.0000     -0.0000      0.0000     -0.0000
         2         0.0000      0.0000     -0.0000      0.0000      0.0000     -0.0000
         3        -0.4480      0.0737     -0.0041      0.0440     -0.0001      0.0000
         4         0.0000      0.0000      0.0000     -0.0000     -0.0000      0.0000
         5        -0.3503     -0.1789      0.0174      0.0911      0.0002     -0.0000
         6        -0.8366      0.0232     -0.0023      0.0999     -0.0000      0.0000
 <0|del|b> * <b|rxdel|0> + <0|del|b> * <b|delr+rdel|0>
 Rotatory Strengths (R) in cgs (10**-40 erg-esu-cm/Gauss)
       state          XX          YY          ZZ    R(velocity)    E-M Angle
         1         0.0000     -0.0000     -0.0000     -0.0000       90.00
         2        -0.0000      0.0000     -0.0000     -0.0000       90.00
         3        -0.0024     -0.0433     -0.0444     -0.0300       90.00
         4         0.0000     -0.0000      0.0000      0.0000       90.00
         5        -0.0325      0.0929      0.1074      0.0559       90.00
         6        -0.0011      0.0222      0.0181      0.0131       90.00
 1/2[<0|r|b>*<b|rxdel|0> + (<0|rxdel|b>*<b|r|0>)*]
 Rotatory Strengths (R) in cgs (10**-40 erg-esu-cm/Gauss)
       state          XX          YY          ZZ     R(length)
         1         0.0000      0.0000      0.0000      0.0000
         2         0.0000     -0.0000     -0.0000     -0.0000
         3        -0.0998     -0.0108      0.0205     -0.0300
         4        -0.0000      0.0000     -0.0000     -0.0000
         5         0.2221     -0.0323     -0.0113      0.0595
         6         0.0371     -0.0000      0.0028      0.0133
  1/2[<0|del|b>*<b|r|0> + (<0|r|b>*<b|del|0>)*] (Au)
       state          X           Y           Z        Dip. S.   Osc.(frdel)
         1         0.0000      0.0000     -0.0000     -0.0000     -0.0000
         2        -0.0000     -0.0000      0.0000      0.0000      0.0000
         3        -0.2069     -0.0007     -0.0000      0.2075      0.1384
         4        -0.0000     -0.0000     -0.0000      0.0000      0.0000
         5        -1.4479     -0.0027     -0.0000      1.4506      0.9671
         6        -0.1098     -0.0000     -0.0000      0.1098      0.0732

 Excitation energies and oscillator strengths:
 
 Excited State   1:      Triplet-A      0.8401 eV 1475.74 nm  f=0.0000  <S**2>=2.000
      64 -> 66        -0.15846
      65 -> 66         0.70764
      65 <- 66         0.20507
 This state for optimization and/or second-order correction.
 Total Energy, E(TD-HF/TD-DFT) =  -1085.21808121    
 Copying the excited state density for this state as the 1-particle RhoCI density.
 
 Excited State   2:      Triplet-A      1.4360 eV  863.37 nm  f=0.0000  <S**2>=2.000
      64 -> 66         0.67797
      65 -> 66         0.12322
      65 -> 67         0.12021
      64 <- 66         0.10759
 
 Excited State   3:      Singlet-A      1.8906 eV  655.81 nm  f=0.1480  <S**2>=0.000
      64 -> 66         0.38815
      65 -> 66         0.58819
 
 Excited State   4:      Triplet-A      2.6659 eV  465.07 nm  f=0.0000  <S**2>=2.000
      61 -> 66        -0.14095
      62 -> 66        -0.11573
      63 -> 66         0.56876
      64 -> 67        -0.14621
      64 -> 69        -0.12603
      65 -> 67         0.27700
      65 -> 69        -0.12906
 
 Excited State   5:      Singlet-A      2.7754 eV  446.73 nm  f=1.0187  <S**2>=0.000
      62 -> 66         0.12235
      64 -> 66         0.58102
      65 -> 66        -0.39558
      65 <- 66         0.10269
 
 Excited State   6:      Singlet-A      3.4743 eV  356.87 nm  f=0.0747  <S**2>=0.000
      62 -> 66         0.25904
      63 -> 66         0.60567
      65 -> 67        -0.22736
 SavETr:  write IOETrn=   770 NScale= 10 NData=  16 NLR=1 NState=    6 LETran=     118.

 **********************************************************************

            Population analysis using the SCF Density.

 **********************************************************************

 Orbital symmetries:
       Occupied  (A) (A) (A) (A) (A) (A) (A) (A) (A) (A) (A) (A)
                 (A) (A) (A) (A) (A) (A) (A) (A) (A) (A) (A) (A)
                 (A) (A) (A) (A) (A) (A) (A) (A) (A) (A) (A) (A)
                 (A) (A) (A) (A) (A) (A) (A) (A) (A) (A) (A) (A)
                 (A) (A) (A) (A) (A) (A) (A) (A) (A) (A) (A) (A)
                 (A) (A) (A) (A) (A)
       Virtual   (A) (A) (A) (A) (A) (A) (A) (A) (A) (A) (A) (A)
                 (A) (A) (A) (A) (A) (A) (A) (A) (A) (A) (A) (A)
                 (A) (A) (A) (A) (A) (A) (A) (A) (A) (A) (A) (A)
                 (A) (A) (A) (A) (A) (A) (A) (A) (A) (A) (A) (A)
                 (A) (A) (A) (A) (A) (A) (A) (A) (A) (A) (A) (A)
                 (A) (A) (A) (A) (A) (A) (A) (A) (A) (A) (A) (A)
                 (A) (A) (A) (A) (A) (A) (A) (A) (A) (A) (A) (A)
                 (A) (A) (A) (A) (A) (A) (A) (A) (A) (A) (A) (A)
                 (A) (A) (A) (A) (A) (A) (A) (A) (A) (A) (A) (A)
                 (A) (A) (A) (A) (A) (A) (A) (A) (A) (A) (A) (A)
                 (A) (A) (A) (A) (A) (A) (A) (A) (A) (A) (A) (A)
                 (A) (A) (A) (A) (A) (A) (A) (A) (A) (A) (A) (A)
                 (A) (A) (A) (A) (A) (A) (A) (A) (A) (A) (A) (A)
                 (A) (A) (A) (A) (A) (A) (A) (A) (A) (A) (A) (A)
                 (A) (A) (A) (A) (A) (A) (A) (A) (A) (A) (A) (A)
                 (A) (A) (A) (A) (A) (A) (A) (A) (A) (A) (A) (A)
                 (A) (A) (A) (A) (A) (A) (A) (A) (A) (A) (A) (A)
                 (A) (A) (A) (A) (A) (A) (A) (A) (A) (A) (A) (A)
                 (A) (A) (A) (A) (A) (A) (A) (A) (A) (A) (A) (A)
                 (A) (A) (A) (A) (A) (A) (A) (A) (A) (A) (A) (A)
                 (A) (A) (A) (A) (A) (A) (A) (A) (A) (A) (A) (A)
                 (A) (A) (A) (A) (A) (A) (A) (A) (A) (A) (A) (A)
                 (A) (A) (A) (A) (A) (A) (A) (A) (A) (A) (A) (A)
                 (A) (A) (A) (A) (A) (A) (A) (A) (A) (A) (A) (A)
                 (A) (A) (A) (A) (A) (A) (A) (A) (A) (A) (A) (A)
                 (A) (A) (A) (A) (A) (A) (A) (A) (A) (A) (A) (A)
                 (A) (A) (A) (A) (A) (A) (A) (A) (A) (A) (A) (A)
                 (A) (A) (A)
 The electronic state is 1-A.
 Alpha  occ. eigenvalues --  -88.95043 -14.36252 -14.36138 -10.29669 -10.28651
 Alpha  occ. eigenvalues --  -10.27881 -10.25620 -10.25558 -10.25546 -10.25082
 Alpha  occ. eigenvalues --  -10.24864 -10.23030 -10.22550 -10.22253 -10.21819
 Alpha  occ. eigenvalues --  -10.21779 -10.21104 -10.20809  -8.00950  -5.97422
 Alpha  occ. eigenvalues --   -5.97053  -5.96546  -0.94522  -0.92669  -0.92238
 Alpha  occ. eigenvalues --   -0.89969  -0.84927  -0.82491  -0.79481  -0.77519
 Alpha  occ. eigenvalues --   -0.75306  -0.71949  -0.68989  -0.63133  -0.62721
 Alpha  occ. eigenvalues --   -0.60335  -0.59119  -0.56795  -0.55887  -0.54162
 Alpha  occ. eigenvalues --   -0.51120  -0.47400  -0.46010  -0.45511  -0.45162
 Alpha  occ. eigenvalues --   -0.44059  -0.43649  -0.42853  -0.41875  -0.40613
 Alpha  occ. eigenvalues --   -0.40196  -0.39480  -0.38904  -0.38812  -0.38119
 Alpha  occ. eigenvalues --   -0.37669  -0.36992  -0.36158  -0.35990  -0.35009
 Alpha  occ. eigenvalues --   -0.32957  -0.30688  -0.29293  -0.24979  -0.22746
 Alpha virt. eigenvalues --   -0.14435  -0.06758  -0.03422  -0.03297  -0.01316
 Alpha virt. eigenvalues --   -0.00410  -0.00375  -0.00130   0.00202   0.00934
 Alpha virt. eigenvalues --    0.01412   0.01698   0.02280   0.02846   0.02872
 Alpha virt. eigenvalues --    0.03030   0.04179   0.04350   0.04860   0.05364
 Alpha virt. eigenvalues --    0.05540   0.05779   0.06078   0.06900   0.07257
 Alpha virt. eigenvalues --    0.07561   0.07981   0.08055   0.08507   0.08667
 Alpha virt. eigenvalues --    0.09458   0.10244   0.10379   0.10577   0.10885
 Alpha virt. eigenvalues --    0.11511   0.11893   0.12177   0.12575   0.12767
 Alpha virt. eigenvalues --    0.13225   0.13713   0.14354   0.14358   0.14958
 Alpha virt. eigenvalues --    0.15577   0.15698   0.16481   0.16573   0.16622
 Alpha virt. eigenvalues --    0.16928   0.17244   0.17700   0.18408   0.18646
 Alpha virt. eigenvalues --    0.19588   0.19664   0.19841   0.19955   0.20542
 Alpha virt. eigenvalues --    0.20703   0.21430   0.21641   0.21947   0.22216
 Alpha virt. eigenvalues --    0.23289   0.23365   0.23780   0.23978   0.24301
 Alpha virt. eigenvalues --    0.24577   0.24739   0.25167   0.25535   0.26623
 Alpha virt. eigenvalues --    0.26679   0.26762   0.26810   0.27411   0.27774
 Alpha virt. eigenvalues --    0.28145   0.28516   0.29028   0.29518   0.30110
 Alpha virt. eigenvalues --    0.31050   0.31686   0.32122   0.32743   0.33623
 Alpha virt. eigenvalues --    0.34384   0.35009   0.35338   0.36477   0.37521
 Alpha virt. eigenvalues --    0.39143   0.39585   0.40709   0.43228   0.44488
 Alpha virt. eigenvalues --    0.46453   0.46809   0.48428   0.49465   0.50831
 Alpha virt. eigenvalues --    0.54399   0.55488   0.58885   0.61684   0.61686
 Alpha virt. eigenvalues --    0.62293   0.62979   0.63426   0.65603   0.65806
 Alpha virt. eigenvalues --    0.66257   0.66418   0.67329   0.68306   0.69621
 Alpha virt. eigenvalues --    0.70345   0.70569   0.70902   0.71580   0.71604
 Alpha virt. eigenvalues --    0.71838   0.73186   0.73898   0.74322   0.75211
 Alpha virt. eigenvalues --    0.75341   0.76061   0.76424   0.76724   0.76730
 Alpha virt. eigenvalues --    0.78420   0.79914   0.81578   0.84116   0.84448
 Alpha virt. eigenvalues --    0.85539   0.86975   0.87838   0.88566   0.89348
 Alpha virt. eigenvalues --    0.90080   0.90149   0.90775   0.91899   0.92288
 Alpha virt. eigenvalues --    0.92386   0.92982   0.94981   0.95706   0.96968
 Alpha virt. eigenvalues --    0.98330   0.99613   1.00203   1.00547   1.01478
 Alpha virt. eigenvalues --    1.01739   1.02609   1.03396   1.04695   1.05438
 Alpha virt. eigenvalues --    1.05878   1.07261   1.08588   1.09783   1.10767
 Alpha virt. eigenvalues --    1.11814   1.12530   1.13342   1.17394   1.19021
 Alpha virt. eigenvalues --    1.20386   1.21383   1.21743   1.24253   1.25556
 Alpha virt. eigenvalues --    1.26541   1.27521   1.28168   1.28858   1.30158
 Alpha virt. eigenvalues --    1.30295   1.31155   1.32441   1.32492   1.33252
 Alpha virt. eigenvalues --    1.34075   1.37177   1.38209   1.38680   1.43085
 Alpha virt. eigenvalues --    1.43507   1.45752   1.47748   1.48933   1.49051
 Alpha virt. eigenvalues --    1.50751   1.52833   1.53264   1.53601   1.57937
 Alpha virt. eigenvalues --    1.60582   1.60982   1.64924   1.67574   1.70893
 Alpha virt. eigenvalues --    1.71660   1.74039   1.75388   1.75825   1.77729
 Alpha virt. eigenvalues --    1.78590   1.80572   1.83225   1.84485   1.86000
 Alpha virt. eigenvalues --    1.87305   1.87548   1.89244   1.89844   1.92289
 Alpha virt. eigenvalues --    1.93372   1.94447   1.95266   1.96948   1.97595
 Alpha virt. eigenvalues --    1.99137   2.00907   2.01467   2.02011   2.02734
 Alpha virt. eigenvalues --    2.03953   2.04178   2.05349   2.06347   2.08669
 Alpha virt. eigenvalues --    2.09354   2.11182   2.11534   2.12656   2.15315
 Alpha virt. eigenvalues --    2.17580   2.17874   2.21251   2.23152   2.25945
 Alpha virt. eigenvalues --    2.26119   2.26720   2.29244   2.29692   2.36750
 Alpha virt. eigenvalues --    2.39044   2.39140   2.40662   2.41008   2.42056
 Alpha virt. eigenvalues --    2.43676   2.45730   2.48285   2.49670   2.52422
 Alpha virt. eigenvalues --    2.53982   2.54137   2.56387   2.57131   2.57152
 Alpha virt. eigenvalues --    2.60967   2.61847   2.63336   2.66830   2.68662
 Alpha virt. eigenvalues --    2.69125   2.69761   2.70032   2.73973   2.74427
 Alpha virt. eigenvalues --    2.81396   2.81627   2.83008   2.83144   2.84273
 Alpha virt. eigenvalues --    2.85938   2.88420   2.90795   2.95103   2.96250
 Alpha virt. eigenvalues --    2.97470   2.99720   3.03748   3.05935   3.09565
 Alpha virt. eigenvalues --    3.13405   3.21624   3.25655   3.27303   3.28118
 Alpha virt. eigenvalues --    3.28653   3.41216   3.42807   3.43941   3.46149
 Alpha virt. eigenvalues --    3.51788   3.57603   3.66545   3.70237   3.95070
 Alpha virt. eigenvalues --    4.21739   4.23646   4.24734   4.26338   4.26660
 Alpha virt. eigenvalues --    4.30389   4.31712   4.32812   4.35223   4.42170
 Alpha virt. eigenvalues --    4.44622   4.56134   4.57884   4.61548   4.75234
 Alpha virt. eigenvalues --    4.77737   4.81831
          Condensed to atoms (all electrons):
               1          2          3          4          5          6
     1  C    7.001947  -1.866786   1.442914  -0.854666  -0.209209   0.038641
     2  C   -1.866786   8.498046  -1.657718   1.345173  -0.127313  -0.411281
     3  C    1.442914  -1.657718  10.180200  -1.996284  -1.338273  -0.244301
     4  C   -0.854666   1.345173  -1.996284   9.865774   0.621466  -2.055905
     5  C   -0.209209  -0.127313  -1.338273   0.621466  13.132681   0.579479
     6  C    0.038641  -0.411281  -0.244301  -2.055905   0.579479   9.481537
     7  C   -0.007455  -0.009040  -0.065862   0.342906  -0.402490  -1.368491
     8  C    0.004148  -0.033318  -0.080665  -1.174535  -1.023343   0.012302
     9  C   -0.001492   0.001418  -0.055507   0.093478  -1.552595   0.146217
    10  C   -0.000843   0.000417  -0.042871   0.014368  -0.251142   0.306602
    11  C   -0.000164  -0.000668  -0.014244  -0.109333  -0.327930  -0.431816
    12  C   -0.000019  -0.000063  -0.000798   0.009226   0.060933   0.130203
    13  N    0.000000   0.000001   0.000002  -0.000041  -0.000698  -0.000294
    14  C    0.000008   0.000038  -0.000101  -0.013553  -0.018142  -0.040776
    15  N   -0.000000  -0.000000   0.000001   0.000017   0.000002  -0.000121
    16  S   -0.002141   0.004329  -0.031977   0.141329   0.512827   0.103183
    17  C   -0.255727   0.301610  -1.349814   1.639516  -1.936266  -0.394122
    18  C    0.078251  -0.103446   0.771690  -1.543381  -1.380653  -0.479582
    19  H    0.505511  -0.181813   0.048340  -0.017490  -0.000211   0.000500
    20  H    0.505677  -0.181930   0.048415  -0.017611  -0.000229   0.000496
    21  H    0.529381  -0.138294  -0.012367  -0.011510  -0.010652  -0.000898
    22  H   -0.031373   0.441148  -0.135480   0.023146  -0.021123  -0.004137
    23  H   -0.057884  -0.015825   0.216760   0.040293   0.095181  -0.002210
    24  H    0.000313   0.001248   0.014827  -0.075292   0.292431   0.008288
    25  H   -0.000013  -0.000128  -0.000881   0.018333   0.010002   0.009032
    26  H    0.000000   0.000003   0.000094   0.000998  -0.001692   0.002325
    27  H   -0.000124   0.001883  -0.009103   0.040741   0.112818   0.158976
    28  H    0.002545   0.009678  -0.062097   0.008778   0.077508   0.018777
               7          8          9         10         11         12
     1  C   -0.007455   0.004148  -0.001492  -0.000843  -0.000164  -0.000019
     2  C   -0.009040  -0.033318   0.001418   0.000417  -0.000668  -0.000063
     3  C   -0.065862  -0.080665  -0.055507  -0.042871  -0.014244  -0.000798
     4  C    0.342906  -1.174535   0.093478   0.014368  -0.109333   0.009226
     5  C   -0.402490  -1.023343  -1.552595  -0.251142  -0.327930   0.060933
     6  C   -1.368491   0.012302   0.146217   0.306602  -0.431816   0.130203
     7  C    9.083276   0.608250  -1.026564  -1.767147  -0.062074  -0.285861
     8  C    0.608250  10.260242  -1.822281   0.460217  -1.343339   0.091879
     9  C   -1.026564  -1.822281   9.801841  -0.161102   1.119116   0.158538
    10  C   -1.767147   0.460217  -0.161102  10.919861  -2.737777   0.107159
    11  C   -0.062074  -1.343339   1.119116  -2.737777  10.909829  -2.620519
    12  C   -0.285861   0.091879   0.158538   0.107159  -2.620519  12.171078
    13  N    0.019226  -0.004351   0.026168   0.065699   0.046900  -0.005242
    14  C   -0.168135  -0.237846  -1.273631  -0.868977  -0.460395  -2.909011
    15  N    0.019176   0.061992   0.096407   0.024761   0.198515   0.154174
    16  S    0.377464  -0.576993  -0.716641   0.027806   0.349929  -0.581264
    17  C    0.213329  -0.514951   0.602336  -0.222137   0.227851  -0.034914
    18  C    0.742162   1.007158  -0.083863  -0.062342   0.048023  -0.049287
    19  H   -0.000020  -0.000004  -0.000001  -0.000000  -0.000000  -0.000000
    20  H   -0.000020  -0.000004  -0.000001  -0.000000  -0.000000  -0.000000
    21  H   -0.000088  -0.000058  -0.000002  -0.000001  -0.000000   0.000000
    22  H   -0.001008  -0.000374  -0.000007  -0.000002  -0.000000   0.000000
    23  H    0.004356   0.000634   0.000117   0.000132   0.000007   0.000000
    24  H   -0.005901   0.032528   0.013192   0.004821   0.000505   0.000012
    25  H    0.100720   0.226057  -0.060186  -0.022430  -0.001067  -0.000101
    26  H   -0.002251  -0.047483   0.251292   0.126010  -0.059020  -0.001603
    27  H   -0.130200  -0.036301  -0.005583   0.018432  -0.003885   0.001353
    28  H   -0.006263   0.000341  -0.000431   0.000210  -0.000037   0.000005
              13         14         15         16         17         18
     1  C    0.000000   0.000008  -0.000000  -0.002141  -0.255727   0.078251
     2  C    0.000001   0.000038  -0.000000   0.004329   0.301610  -0.103446
     3  C    0.000002  -0.000101   0.000001  -0.031977  -1.349814   0.771690
     4  C   -0.000041  -0.013553   0.000017   0.141329   1.639516  -1.543381
     5  C   -0.000698  -0.018142   0.000002   0.512827  -1.936266  -1.380653
     6  C   -0.000294  -0.040776  -0.000121   0.103183  -0.394122  -0.479582
     7  C    0.019226  -0.168135   0.019176   0.377464   0.213329   0.742162
     8  C   -0.004351  -0.237846   0.061992  -0.576993  -0.514951   1.007158
     9  C    0.026168  -1.273631   0.096407  -0.716641   0.602336  -0.083863
    10  C    0.065699  -0.868977   0.024761   0.027806  -0.222137  -0.062342
    11  C    0.046900  -0.460395   0.198515   0.349929   0.227851   0.048023
    12  C   -0.005242  -2.909011   0.154174  -0.581264  -0.034914  -0.049287
    13  N    7.232160   0.094460  -0.004230  -0.013639   0.001963   0.000510
    14  C    0.094460  12.074013  -0.348679   0.403239  -0.011935   0.026762
    15  N   -0.004230  -0.348679   7.305983  -0.011528   0.000233  -0.000146
    16  S   -0.013639   0.403239  -0.011528  16.638133   0.035062  -0.365820
    17  C    0.001963  -0.011935   0.000233   0.035062  10.046994  -2.470333
    18  C    0.000510   0.026762  -0.000146  -0.365820  -2.470333   9.621609
    19  H   -0.000000   0.000000  -0.000000  -0.000001  -0.001899  -0.003305
    20  H   -0.000000   0.000000  -0.000000  -0.000001  -0.001904  -0.003298
    21  H   -0.000000  -0.000000  -0.000000   0.000001  -0.000113  -0.001279
    22  H   -0.000000  -0.000000   0.000000   0.000092   0.021705   0.000444
    23  H   -0.000000  -0.000000   0.000000   0.000225   0.010188  -0.009057
    24  H    0.000000  -0.000009   0.000000  -0.003131   0.010867   0.001102
    25  H    0.000003  -0.002137   0.000020   0.026295   0.010267  -0.007306
    26  H    0.000018   0.007370   0.003731   0.034491   0.001153   0.000553
    27  H   -0.000003   0.000127  -0.000000   0.077438   0.308882  -0.232838
    28  H   -0.000000  -0.000000  -0.000000  -0.000542  -0.054601   0.307446
              19         20         21         22         23         24
     1  C    0.505511   0.505677   0.529381  -0.031373  -0.057884   0.000313
     2  C   -0.181813  -0.181930  -0.138294   0.441148  -0.015825   0.001248
     3  C    0.048340   0.048415  -0.012367  -0.135480   0.216760   0.014827
     4  C   -0.017490  -0.017611  -0.011510   0.023146   0.040293  -0.075292
     5  C   -0.000211  -0.000229  -0.010652  -0.021123   0.095181   0.292431
     6  C    0.000500   0.000496  -0.000898  -0.004137  -0.002210   0.008288
     7  C   -0.000020  -0.000020  -0.000088  -0.001008   0.004356  -0.005901
     8  C   -0.000004  -0.000004  -0.000058  -0.000374   0.000634   0.032528
     9  C   -0.000001  -0.000001  -0.000002  -0.000007   0.000117   0.013192
    10  C   -0.000000  -0.000000  -0.000001  -0.000002   0.000132   0.004821
    11  C   -0.000000  -0.000000  -0.000000  -0.000000   0.000007   0.000505
    12  C   -0.000000  -0.000000   0.000000   0.000000   0.000000   0.000012
    13  N   -0.000000  -0.000000  -0.000000  -0.000000  -0.000000   0.000000
    14  C    0.000000   0.000000  -0.000000  -0.000000  -0.000000  -0.000009
    15  N   -0.000000  -0.000000  -0.000000   0.000000   0.000000   0.000000
    16  S   -0.000001  -0.000001   0.000001   0.000092   0.000225  -0.003131
    17  C   -0.001899  -0.001904  -0.000113   0.021705   0.010188   0.010867
    18  C   -0.003305  -0.003298  -0.001279   0.000444  -0.009057   0.001102
    19  H    0.544352  -0.031141  -0.026072  -0.002044   0.000075   0.000000
    20  H   -0.031141   0.544362  -0.026076  -0.002040   0.000075   0.000000
    21  H   -0.026072  -0.026076   0.535705   0.003774   0.003321   0.000000
    22  H   -0.002044  -0.002040   0.003774   0.579184   0.005041   0.000001
    23  H    0.000075   0.000075   0.003321   0.005041   0.588455   0.002219
    24  H    0.000000   0.000000   0.000000   0.000001   0.002219   0.582536
    25  H    0.000000   0.000000  -0.000000   0.000000   0.000001  -0.000174
    26  H    0.000000   0.000000   0.000000  -0.000000   0.000000   0.000000
    27  H    0.000000   0.000000  -0.000000   0.000003   0.000002  -0.000049
    28  H    0.000001   0.000001   0.000000   0.000252  -0.000067  -0.000085
              25         26         27         28
     1  C   -0.000013   0.000000  -0.000124   0.002545
     2  C   -0.000128   0.000003   0.001883   0.009678
     3  C   -0.000881   0.000094  -0.009103  -0.062097
     4  C    0.018333   0.000998   0.040741   0.008778
     5  C    0.010002  -0.001692   0.112818   0.077508
     6  C    0.009032   0.002325   0.158976   0.018777
     7  C    0.100720  -0.002251  -0.130200  -0.006263
     8  C    0.226057  -0.047483  -0.036301   0.000341
     9  C   -0.060186   0.251292  -0.005583  -0.000431
    10  C   -0.022430   0.126010   0.018432   0.000210
    11  C   -0.001067  -0.059020  -0.003885  -0.000037
    12  C   -0.000101  -0.001603   0.001353   0.000005
    13  N    0.000003   0.000018  -0.000003  -0.000000
    14  C   -0.002137   0.007370   0.000127  -0.000000
    15  N    0.000020   0.003731  -0.000000  -0.000000
    16  S    0.026295   0.034491   0.077438  -0.000542
    17  C    0.010267   0.001153   0.308882  -0.054601
    18  C   -0.007306   0.000553  -0.232838   0.307446
    19  H    0.000000   0.000000   0.000000   0.000001
    20  H    0.000000   0.000000   0.000000   0.000001
    21  H   -0.000000   0.000000  -0.000000   0.000000
    22  H    0.000000  -0.000000   0.000003   0.000252
    23  H    0.000001   0.000000   0.000002  -0.000067
    24  H   -0.000174   0.000000  -0.000049  -0.000085
    25  H    0.546208  -0.002432  -0.000001   0.000000
    26  H   -0.002432   0.512724   0.000000   0.000000
    27  H   -0.000001   0.000000   0.564503  -0.001759
    28  H    0.000000   0.000000  -0.001759   0.570286
 Mulliken charges:
               1
     1  C   -0.821442
     2  C    0.122631
     3  C    0.375101
     4  C   -0.335939
     5  C   -0.893368
     6  C    0.437379
     7  C   -0.201996
     8  C    0.130098
     9  C    0.449768
    10  C    0.060278
    11  C    1.271594
    12  C   -0.395878
    13  N   -0.458611
    14  C   -0.252691
    15  N   -0.500308
    16  S   -0.428168
    17  C   -0.183238
    18  C    0.190223
    19  H    0.165222
    20  H    0.165229
    21  H    0.155227
    22  H    0.122795
    23  H    0.117962
    24  H    0.119750
    25  H    0.149920
    26  H    0.173718
    27  H    0.134690
    28  H    0.130053
 Sum of Mulliken charges =  -0.00000
 Mulliken charges with hydrogens summed into heavy atoms:
               1
     1  C   -0.335765
     2  C    0.245426
     3  C    0.493063
     4  C   -0.335939
     5  C   -0.773619
     6  C    0.437379
     7  C   -0.201996
     8  C    0.280018
     9  C    0.623486
    10  C    0.060278
    11  C    1.271594
    12  C   -0.395878
    13  N   -0.458611
    14  C   -0.252691
    15  N   -0.500308
    16  S   -0.428168
    17  C   -0.048548
    18  C    0.320277
 Electronic spatial extent (au):  <R**2>=           8141.2395
 Charge=             -0.0000 electrons
 Dipole moment (field-independent basis, Debye):
    X=              9.6154    Y=             -1.8078    Z=             -0.0001  Tot=              9.7839
 Quadrupole moment (field-independent basis, Debye-Ang):
   XX=           -135.3342   YY=           -115.7789   ZZ=           -116.7293
   XY=              3.1723   XZ=              0.0042   YZ=              0.0005
 Traceless Quadrupole moment (field-independent basis, Debye-Ang):
   XX=            -12.7201   YY=              6.8352   ZZ=              5.8848
   XY=              3.1723   XZ=              0.0042   YZ=              0.0005
 Octapole moment (field-independent basis, Debye-Ang**2):
  XXX=            463.0635  YYY=            -20.7813  ZZZ=              0.0023  XYY=             95.2926
  XXY=             18.1000  XXZ=             -0.0024  XZZ=             -7.0745  YZZ=              1.0139
  YYZ=             -0.0025  XYZ=              0.0060
 Hexadecapole moment (field-independent basis, Debye-Ang**3):
 XXXX=         -11010.4040 YYYY=          -1145.7888 ZZZZ=           -146.8646 XXXY=           -144.6374
 XXXZ=              0.1759 YYYX=             59.5944 YYYZ=             -0.0017 ZZZX=              0.0091
 ZZZY=             -0.0013 XXYY=          -2291.0054 XXZZ=          -1796.9140 YYZZ=           -222.6704
 XXYZ=              0.0172 YYXZ=              0.0197 ZZXY=             -2.3205
 N-N= 1.165438707687D+03 E-N=-4.866194199640D+03  KE= 1.077224044131D+03
 Unable to Open any file for archive entry.
 1\1\GINC-N2\SP\RB3LYP TD-FC\6-31+G(d,p)\C15H10N2S1\HPCMGAC13\25-Aug-20
 25\0\\# td=(50-50,nstates=3) b3lyp/6-31+g(d,p) geom=connectivity\\Titl
 e Card Required\\0,1\C,0,-7.300271,0.436345,0.000239\C,0,-5.91608,-0.1
 34409,0.000257\C,0,-4.782031,0.598213,0.000044\C,0,-3.435484,0.070764,
 0.000007\C,0,-2.278027,0.809114,-0.00022\C,0,-1.14808,-0.105053,-0.000
 268\C,0,0.183226,0.234719,-0.00035\C,0,0.747206,1.559542,-0.000144\C,0
 ,2.107518,1.595007,-0.000064\C,0,2.718892,0.288764,-0.000136\C,0,4.078
 733,0.025433,0.000152\C,0,4.582237,-1.307366,0.000202\N,0,4.969331,-2.
 40691,0.000259\C,0,5.019551,1.097277,0.000218\N,0,5.771616,1.987777,0.
 000291\S,0,1.493254,-0.97032,-0.000307\C,0,-1.704413,-1.466907,-0.0000
 86\C,0,-3.054251,-1.366493,0.000111\H,0,-7.864784,0.09811,-0.878586\H,
 0,-7.864418,0.098884,0.879614\H,0,-7.28827,1.530371,-0.000194\H,0,-5.8
 46412,-1.22151,0.000424\H,0,-4.865379,1.68506,-0.000123\H,0,-2.215274,
 1.889182,-0.000383\H,0,0.119569,2.442478,-0.00014\H,0,2.706047,2.49822
 2,0.000344\H,0,-1.119655,-2.377863,-0.000061\H,0,-3.752479,-2.193583,0
 .0004\\Version=ES64L-G16RevC.02\State=1-A\HF=-1085.2489561\RMSD=9.032e
 -09\PG=C01 [X(C15H10N2S1)]\\@
 The archive entry for this job was punched.


 When cryptography is outlawed, bayl bhgynjf jvyy unir cevinpl.
 Job cpu time:       0 days  0 hours 48 minutes 15.2 seconds.
 Elapsed time:       0 days  0 hours  3 minutes  7.5 seconds.
 File lengths (MBytes):  RWF=    862 Int=      0 D2E=      0 Chk=     41 Scr=      2
 Normal termination of Gaussian 16 at Mon Aug 25 14:31:05 2025.
