 Entering Gaussian System, Link 0=g16
 Input=M855E.gjf
 Output=M855E.log
 Initial command:
 /hpc/softwares/Gaussian/g16/l1.exe "/hpc/home/hpcmgac13/pbs.13413.admin1.x8z/Gau-3284397.inp" -scrdir="/hpc/home/hpcmgac13/pbs.13413.admin1.x8z/"
 Default linda workers: n2
 Default is to use  16 SMP processors on each worker.
 Entering Link 1 = /hpc/softwares/Gaussian/g16/l1.exe PID=   3284398.
  
 Copyright (c) 1988-2021, Gaussian, Inc.  All Rights Reserved.
  
 This is part of the Gaussian(R) 16 program.  It is based on
 the Gaussian(R) 09 system (copyright 2009, Gaussian, Inc.),
 the Gaussian(R) 03 system (copyright 2003, Gaussian, Inc.),
 the Gaussian(R) 98 system (copyright 1998, Gaussian, Inc.),
 the Gaussian(R) 94 system (copyright 1995, Gaussian, Inc.),
 the Gaussian 92(TM) system (copyright 1992, Gaussian, Inc.),
 the Gaussian 90(TM) system (copyright 1990, Gaussian, Inc.),
 the Gaussian 88(TM) system (copyright 1988, Gaussian, Inc.),
 the Gaussian 86(TM) system (copyright 1986, Carnegie Mellon
 University), and the Gaussian 82(TM) system (copyright 1983,
 Carnegie Mellon University). Gaussian is a federally registered
 trademark of Gaussian, Inc.
  
 This software contains proprietary and confidential information,
 including trade secrets, belonging to Gaussian, Inc.
  
 This software is provided under written license and may be
 used, copied, transmitted, or stored only in accord with that
 written license.
  
 The following legend is applicable only to US Government
 contracts under FAR:
  
                    RESTRICTED RIGHTS LEGEND
  
 Use, reproduction and disclosure by the US Government is
 subject to restrictions as set forth in subparagraphs (a)
 and (c) of the Commercial Computer Software - Restricted
 Rights clause in FAR 52.227-19.
  
 Gaussian, Inc.
 340 Quinnipiac St., Bldg. 40, Wallingford CT 06492
  
  
 ---------------------------------------------------------------
 Warning -- This program may not be used in any manner that
 competes with the business of Gaussian, Inc. or will provide
 assistance to any competitor of Gaussian, Inc.  The licensee
 of this program is prohibited from giving any competitor of
 Gaussian, Inc. access to this program.  By using this program,
 the user acknowledges that Gaussian, Inc. is engaged in the
 business of creating and licensing software in the field of
 computational chemistry and represents and warrants to the
 licensee that it is not a competitor of Gaussian, Inc. and that
 it will not use this program in any manner prohibited above.
 ---------------------------------------------------------------
  

 Cite this work as:
 Gaussian 16, Revision C.02,
 M. J. Frisch, G. W. Trucks, H. B. Schlegel, G. E. Scuseria, 
 M. A. Robb, J. R. Cheeseman, G. Scalmani, V. Barone, 
 G. A. Petersson, H. Nakatsuji, X. Li, M. Caricato, A. V. Marenich, 
 J. Bloino, B. G. Janesko, R. Gomperts, B. Mennucci, H. P. Hratchian, 
 J. V. Ortiz, A. F. Izmaylov, J. L. Sonnenberg, D. Williams-Young, 
 F. Ding, F. Lipparini, F. Egidi, J. Goings, B. Peng, A. Petrone, 
 T. Henderson, D. Ranasinghe, V. G. Zakrzewski, J. Gao, N. Rega, 
 G. Zheng, W. Liang, M. Hada, M. Ehara, K. Toyota, R. Fukuda, 
 J. Hasegawa, M. Ishida, T. Nakajima, Y. Honda, O. Kitao, H. Nakai, 
 T. Vreven, K. Throssell, J. A. Montgomery, Jr., J. E. Peralta, 
 F. Ogliaro, M. J. Bearpark, J. J. Heyd, E. N. Brothers, K. N. Kudin, 
 V. N. Staroverov, T. A. Keith, R. Kobayashi, J. Normand, 
 K. Raghavachari, A. P. Rendell, J. C. Burant, S. S. Iyengar, 
 J. Tomasi, M. Cossi, J. M. Millam, M. Klene, C. Adamo, R. Cammi, 
 J. W. Ochterski, R. L. Martin, K. Morokuma, O. Farkas, 
 J. B. Foresman, and D. J. Fox, Gaussian, Inc., Wallingford CT, 2019.
 
 ******************************************
 Gaussian 16:  ES64L-G16RevC.02  7-Dec-2021
                25-Aug-2025 
 ******************************************
 SetLPE:    new flags="-opt 'Tsnet.Node.lindarsharg: ssh'  -nodelist 'n2.head.cm.mguif.local' -env GAUSS_MDEF=4294967296 -env GAUSS_EXEDIR="/hpc/softwares/Gaussian/g16/bsd:/hpc/softwares/Gaussian/g16""
 Will use up to    1 processors via Linda.
 ----------------------------------------------------------
 # td=(50-50,nstates=3) b3lyp/6-31+g(d,p) geom=connectivity
 ----------------------------------------------------------
 1/38=1,57=2,172=1/1;
 2/12=2,17=6,18=5,40=1/2;
 3/5=1,6=6,7=111,11=9,25=1,30=1,74=-5/1,2,3,8;
 4//1;
 5/5=2,38=5/2;
 8/6=1,10=2,108=3/1;
 9/41=3,42=1,48=2,70=2/14;
 6/7=2,8=2,9=2,10=2/1;
 99/5=1,9=1/99;
 -------------------
 Title Card Required
 -------------------
 Symbolic Z-matrix:
 Charge =  0 Multiplicity = 1
 C                     5.2131   -1.56229  -1.59719 
 Si                    4.36413  -2.10705  -0.00003 
 C                     4.27165  -3.99118   0.09345 
 C                     5.2725   -1.41099   1.50285 
 C                     2.64174  -1.4389    0.00056 
 C                     1.50173  -0.99663   0.00041 
 C                     0.17609  -0.4517    0.00024 
 C                     0.11332   0.97675   0.00014 
 C                     0.14356   2.19965   0.00009 
 Si                    0.21726   4.04767   0.00012 
 C                    -1.55041   4.71522  -0.00171 
 C                     1.13405   4.60025   1.55519 
 C                     1.13724   4.60033  -1.55303 
 C                    -0.8938   -1.30739   0.00021 
 C                    -2.33005  -1.05065  -0.00004 
 C                    -2.92943   0.22861  -0.00064 
 C                    -4.3165    0.36799  -0.00089 
 C                    -5.15034  -0.7497   -0.00057 
 C                    -4.57266  -2.03137   0.00002 
 C                    -5.41036  -3.19799   0.00035 
 N                    -6.09138  -4.14174   0.0006 
 C                    -3.17946  -2.17543   0.00028 
 H                     5.24771  -0.47018  -1.6736 
 H                     6.24309  -1.93663  -1.63504 
 H                     4.6829   -1.943    -2.47675 
 H                     3.76039  -4.31767   1.00552 
 H                     5.27709  -4.42862   0.09576 
 H                     3.72712  -4.40372  -0.76282 
 H                     6.30396  -1.78157   1.53742 
 H                     5.30782  -0.31668   1.47122 
 H                     4.77716  -1.70338   2.43495 
 H                    -1.54799   5.81164  -0.00178 
 H                    -2.10047   4.38269  -0.8889 
 H                    -2.10221   4.3828    0.88444 
 H                     1.20471   5.6938    1.59374 
 H                     2.1512    4.19485   1.57839 
 H                     0.61823   4.26285   2.46053 
 H                     2.15453   4.19514  -1.57402 
 H                     0.62346   4.2629   -2.45951 
 H                     1.20778   5.6939   -1.59135 
 H                    -0.62869  -2.36141   0.0004 
 H                    -2.30501   1.11194  -0.00092 
 H                    -4.7534    1.36187  -0.00136 
 H                    -6.22964  -0.64254  -0.00077 
 H                    -2.75139  -3.173     0.00073 
 
                          Input orientation:                          
 ---------------------------------------------------------------------
 Center     Atomic      Atomic             Coordinates (Angstroms)
 Number     Number       Type             X           Y           Z
 ---------------------------------------------------------------------
      1          6           0        5.213098   -1.562291   -1.597188
      2         14           0        4.364127   -2.107051   -0.000026
      3          6           0        4.271654   -3.991178    0.093445
      4          6           0        5.272497   -1.410987    1.502847
      5          6           0        2.641742   -1.438898    0.000558
      6          6           0        1.501729   -0.996630    0.000408
      7          6           0        0.176086   -0.451702    0.000236
      8          6           0        0.113322    0.976746    0.000140
      9          6           0        0.143564    2.199645    0.000086
     10         14           0        0.217256    4.047667    0.000117
     11          6           0       -1.550413    4.715222   -0.001708
     12          6           0        1.134052    4.600247    1.555186
     13          6           0        1.137244    4.600334   -1.553030
     14          6           0       -0.893796   -1.307386    0.000212
     15          6           0       -2.330050   -1.050646   -0.000041
     16          6           0       -2.929427    0.228612   -0.000637
     17          6           0       -4.316502    0.367989   -0.000890
     18          6           0       -5.150340   -0.749704   -0.000565
     19          6           0       -4.572656   -2.031365    0.000022
     20          6           0       -5.410364   -3.197988    0.000345
     21          7           0       -6.091375   -4.141736    0.000599
     22          6           0       -3.179458   -2.175429    0.000280
     23          1           0        5.247714   -0.470182   -1.673596
     24          1           0        6.243088   -1.936634   -1.635035
     25          1           0        4.682898   -1.943003   -2.476751
     26          1           0        3.760387   -4.317668    1.005522
     27          1           0        5.277089   -4.428624    0.095761
     28          1           0        3.727121   -4.403724   -0.762817
     29          1           0        6.303955   -1.781574    1.537419
     30          1           0        5.307824   -0.316681    1.471224
     31          1           0        4.777161   -1.703381    2.434951
     32          1           0       -1.547986    5.811643   -0.001780
     33          1           0       -2.100468    4.382690   -0.888898
     34          1           0       -2.102208    4.382802    0.884443
     35          1           0        1.204712    5.693798    1.593737
     36          1           0        2.151203    4.194848    1.578386
     37          1           0        0.618228    4.262853    2.460529
     38          1           0        2.154527    4.195143   -1.574021
     39          1           0        0.623462    4.262898   -2.459512
     40          1           0        1.207784    5.693905   -1.591352
     41          1           0       -0.628685   -2.361411    0.000402
     42          1           0       -2.305011    1.111938   -0.000919
     43          1           0       -4.753397    1.361869   -0.001357
     44          1           0       -6.229644   -0.642541   -0.000769
     45          1           0       -2.751392   -3.172995    0.000733
 ---------------------------------------------------------------------
                    Distance matrix (angstroms):
                    1          2          3          4          5
     1  C    0.000000
     2  Si   1.889032   0.000000
     3  C    3.105487   1.888709   0.000000
     4  C    3.104294   1.888986   3.105718   0.000000
     5  C    3.029833   1.847441   3.029748   3.029608   0.000000
     6  C    4.080018   3.070237   4.080252   4.080160   1.222796
     7  C    5.399691   4.503317   5.413895   5.399210   2.655940
     8  C    5.916577   5.251585   6.479251   5.880177   3.496891
     9  C    6.511806   6.029990   7.441514   6.449877   4.413603
    10  Si   7.679938   7.421394   9.003882   7.590162   5.998377
    11  C    9.364711   9.029130  10.474107   9.292267   7.446299
    12  C    8.034485   7.605256   9.262495   7.298246   6.415705
    13  C    7.388673   7.603526   9.292442   7.910416   6.414786
    14  C    6.317501   5.318385   5.821796   6.347583   3.537983
    15  C    7.727337   6.777020   7.227584   7.758043   4.986928
    16  C    8.488641   7.658411   8.346918   8.498253   5.815369
    17  C    9.853295   9.026580   9.631597   9.867871   7.189020
    18  C   10.517146   9.610800   9.964435  10.551449   7.822502
    19  C    9.926333   8.937103   9.059327   9.978496   7.238685
    20  C   10.866718   9.835183   9.714900  10.935008   8.242015
    21  N   11.704596  10.651641  10.364538  11.783519   9.141809
    22  C    8.565211   7.543895   7.669726   8.618447   5.867610
    23  H    1.095326   2.502180   4.058638   3.312932   3.245349
    24  H    1.096560   2.496556   3.330968   3.326358   3.986552
    25  H    1.095301   2.502537   3.312107   4.058062   3.249231
    26  H    4.059134   2.502490   1.095388   3.314001   3.247866
    27  H    3.329570   2.496473   1.096478   3.329571   3.986550
    28  H    3.313313   2.502466   1.095397   4.059297   3.248228
    29  H    3.326231   2.496519   3.331315   1.096556   3.986373
    30  H    3.312955   2.502112   4.058799   1.095333   3.245030
    31  H    4.058090   2.502531   3.312432   1.095294   3.249036
    32  H   10.130769   9.882247  11.400552  10.047352   8.374018
    33  H    9.451599   9.203142  10.568377   9.677177   7.561123
    34  H    9.747632   9.204019  10.553451   9.398760   7.561647
    35  H    8.882567   8.565934  10.269166   8.187375   7.448398
    36  H    7.252870   6.863115   8.585592   6.416663   5.871053
    37  H    8.456370   7.788566   9.331647   7.400800   6.531158
    38  H    6.519466   6.861300   8.618499   7.114601   5.870187
    39  H    7.466002   7.785750   9.378521   8.337073   6.529615
    40  H    8.288242   8.564446  10.296925   8.750740   7.447637
    41  H    6.108790   4.999287   5.165087   6.163164   3.398047
    42  H    8.137662   7.405356   8.324856   8.126813   5.565710
    43  H   10.508492   9.755135  10.493600  10.510467   7.907742
    44  H   11.590118  10.694521  11.022681  11.625430   8.907058
    45  H    8.281354   7.194918   7.071152   8.351276   5.665067
                    6          7          8          9         10
     6  C    0.000000
     7  C    1.433275   0.000000
     8  C    2.412859   1.429826   0.000000
     9  C    3.472864   2.651546   1.223273   0.000000
    10  Si   5.205267   4.499557   3.072679   1.849491   0.000000
    11  C    6.476174   5.447743   4.091970   3.032769   1.889520
    12  C    5.820443   5.371942   4.073060   3.026928   1.887882
    13  C    5.819968   5.372106   4.073223   3.027024   1.887878
    14  C    2.415597   1.369979   2.496306   3.657237   5.469098
    15  C    3.832160   2.576713   3.174962   4.084502   5.699260
    16  C    4.597430   3.179157   3.133373   3.650787   4.948413
    17  C    5.976119   4.566754   4.471457   4.821530   5.839092
    18  C    6.656650   5.334756   5.539564   6.060040   7.199018
    19  C    6.161885   5.004586   5.568404   6.335943   7.739373
    20  C    7.254172   6.224991   6.923836   7.744712   9.174400
    21  N    8.218693   7.273061   8.043452   8.893120  10.337560
    22  C    4.827326   3.772388   4.558356   5.493974   7.089752
    23  H    4.136646   5.340736   5.590794   5.998461   6.965471
    24  H    5.102819   6.456597   6.981090   7.548948   8.648481
    25  H    4.141470   5.354512   5.961623   6.625844   7.871783
    26  H    4.140179   5.366890   6.507127   7.521149   9.140210
    27  H    5.103040   6.468792   7.476072   8.384282   9.872111
    28  H    4.140431   5.367549   6.526186   7.551714   9.182986
    29  H    5.102932   6.456181   6.949496   7.494259   8.566869
    30  H    4.136664   5.340110   5.551567   5.930070   6.864807
    31  H    4.141854   5.353917   5.904471   6.529349   7.732768
    32  H    7.460117   6.496300   5.112355   3.988468   2.495535
    33  H    6.534812   5.417066   4.158330   3.254483   2.504882
    34  H    6.535149   5.417091   4.158339   3.254497   2.504848
    35  H    6.883948   6.431523   5.097182   3.984327   2.494883
    36  H    5.464730   5.289808   4.123106   3.240753   2.500549
    37  H    5.873239   5.336250   4.136054   3.245907   2.502141
    38  H    5.464383   5.290150   4.123418   3.240956   2.500536
    39  H    5.872410   5.336474   4.136294   3.246065   2.502220
    40  H    6.883557   6.431644   5.097282   3.984356   2.494798
    41  H    2.530077   2.072352   3.419630   4.625970   6.464665
    42  H    4.351704   2.932714   2.422109   2.679296   3.870444
    43  H    6.684992   5.252508   4.881934   4.968108   5.649859
    44  H    7.739477   6.408572   6.546397   6.978238   7.972488
    45  H    4.777615   3.996944   5.042513   6.102953   7.807101
                   11         12         13         14         15
    11  C    0.000000
    12  C    3.105397   0.000000
    13  C    3.105366   3.108218   0.000000
    14  C    6.058297   6.436633   6.437301   0.000000
    15  C    5.818339   6.808181   6.809367   1.459021   0.000000
    16  C    4.693756   6.167953   6.169254   2.550115   1.412712
    17  C    5.152639   7.074031   7.075679   3.810748   2.441007
    18  C    6.544073   8.398567   8.400403   4.292922   2.836301
    19  C    7.392590   8.886131   8.887877   3.749421   2.447671
    20  C    8.804437  10.298514  10.300387   4.896301   3.754918
    21  N    9.953193  11.447524  11.449475   5.920166   4.868511
    22  C    7.080598   8.181313   8.182766   2.444944   1.409479
    23  H    8.711955   7.283989   6.528448   6.420334   7.782045
    24  H   10.375625   8.888789   8.295078   7.348816   8.772507
    25  H    9.450501   8.465515   7.499345   6.135053   7.490783
    26  H   10.526738   9.312839   9.641464   5.633282   6.984126
    27  H   11.412020  10.040677  10.068709   6.916002   8.323970
    28  H   10.563467   9.652390   9.402391   5.614481   6.965219
    29  H   10.308655   8.213151   8.773513   7.375329   8.800232
    30  H    8.632786   6.450086   7.121579   6.450230   7.812838
    31  H    9.336700   7.333618   8.299989   6.184215   7.541067
    32  H    1.096424   3.329407   3.329280   7.149024   6.906710
    33  H    1.095557   4.059926   3.312283   5.884177   5.510346
    34  H    1.095557   3.312183   4.059882   5.883907   5.509681
    35  H    3.330731   1.096509   3.332020   7.480617   7.779601
    36  H    4.058257   1.095209   3.316368   6.483613   7.077307
    37  H    3.312137   1.095242   4.061025   6.274308   6.555915
    38  H    4.058230   3.316235   1.095210   6.484467   7.078640
    39  H    3.312270   4.061072   1.095237   6.275379   6.557895
    40  H    3.330531   3.332000   1.096514   7.481162   7.780585
    41  H    7.136408   7.347740   7.348303   1.086854   2.147731
    42  H    3.681450   5.139739   5.140727   2.800832   2.162729
    43  H    4.637250   6.897244   6.898913   4.692701   3.419480
    44  H    7.113426   9.172341   9.174328   5.377108   3.920891
    45  H    7.979118   8.828153   8.829514   2.632710   2.163769
                   16         17         18         19         20
    16  C    0.000000
    17  C    1.394060   0.000000
    18  C    2.426841   1.394462   0.000000
    19  C    2.794226   2.412989   1.405836   0.000000
    20  C    4.230442   3.729977   2.462054   1.436233   0.000000
    21  N    5.394243   4.846421   3.520146   2.600033   1.163803
    22  C    2.417008   2.786009   2.432502   1.400627   2.454092
    23  H    8.375723   9.745497  10.535497  10.083549  11.128236
    24  H    9.565280  10.930995  11.571106  10.939045  11.835051
    25  H    8.294248   9.615600  10.210192   9.581623  10.468282
    26  H    8.150744   9.391719   9.651095   8.699300   9.293371
    27  H    9.436421  10.726315  11.057803  10.137726  10.758495
    28  H    8.145495   9.383477   9.630275   8.665813   9.248235
    29  H    9.574017  10.944456  11.603061  10.987568  11.899332
    30  H    8.385465   9.760304  10.570093  10.135505  11.195757
    31  H    8.310005   9.639430  10.266280   9.667240  10.580493
    32  H    5.751401   6.107213   7.485201   8.406034   9.802623
    33  H    4.328111   4.670887   6.035919   6.931233   8.319426
    34  H    4.327234   4.669651   6.034647   6.930141   8.318287
    35  H    7.035723   7.835233   9.189516   9.777323  11.196517
    36  H    6.636049   7.679204   8.958471   9.298776  10.692125
    37  H    5.909170   6.751304   8.028642   8.521535   9.902554
    38  H    6.637431   7.680890   8.960377   9.300645  10.694138
    39  H    5.911392   6.754138   8.031774   8.524476   9.905694
    40  H    7.036783   7.836625   9.191107   9.778842  11.198176
    41  H    3.464337   4.587987   4.800309   3.957757   4.854309
    42  H    1.081739   2.144658   3.400236   3.875896   5.312126
    43  H    2.147356   1.085668   2.148559   3.398044   4.606941
    44  H    3.413259   2.163627   1.084611   2.162046   2.683567
    45  H    3.406263   3.871452   3.409882   2.149493   2.659089
                   21         22         23         24         25
    21  N    0.000000
    22  C    3.513634   0.000000
    23  H   12.035704   8.759392   0.000000
    24  H   12.636327   9.566381   1.772777   0.000000
    25  H   11.271941   8.246596   1.770106   1.772772   0.000000
    26  H    9.904445   7.332199   4.918634   4.336550   4.314659
    27  H   11.372481   8.752096   4.335983   3.184152   3.626182
    28  H    9.851614   7.297153   4.314449   3.630067   3.147416
    29  H   12.711270   9.615250   3.625743   3.176824   4.332141
    30  H   12.113444   8.812070   3.149138   3.625991   4.315317
    31  H   11.401610   8.334161   4.315363   4.332221   4.918447
    32  H   10.941304   8.151995   9.404139  11.108742  10.251045
    33  H    9.454331   6.705504   8.840922  10.493117   9.410086
    34  H    9.453168   6.704670   9.171498  10.766940   9.866666
    35  H   12.349441   9.147939   8.063249   9.697097   9.326703
    36  H   11.829122   8.454986   6.475050   8.041435   7.779899
    37  H   11.032096   7.869353   7.805431   9.319138   8.911281
    38  H   11.831225   8.456595   5.598480   7.370125   6.699583
    39  H   11.035355   7.871774   6.663589   8.407982   7.415695
    40  H   12.351189   9.149186   7.370466   9.142282   8.436985
    41  H    5.745480   2.557544   6.396177   7.076465   5.875735
    42  H    6.475928   3.401682   7.895860   9.221395   8.018309
    43  H    5.663908   3.871662  10.304126  11.596194  10.300166
    44  H    3.501926   3.413705  11.599905  12.645732  11.265224
    45  H    3.477635   1.085531   8.607803   9.225237   7.932180
                   26         27         28         29         30
    26  H    0.000000
    27  H    1.772106   0.000000
    28  H    1.770744   1.772054   0.000000
    29  H    3.631036   3.184290   4.336684   0.000000
    30  H    4.315013   4.336003   4.918687   1.772730   0.000000
    31  H    3.148268   3.626112   4.315108   1.772788   1.770116
    32  H   11.480262  12.306674  11.522138  11.030823   9.312799
    33  H   10.659957  11.534173  10.544087  10.701378   9.084991
    34  H   10.492038  11.520298  10.672281  10.444591   8.794204
    35  H   10.349247  11.013247  10.671263   9.049124   7.278489
    36  H    8.682199   9.291588   9.049872   7.277681   5.507235
    37  H    9.252867  10.140951   9.755241   8.349534   6.628964
    38  H    9.038848   9.322442   8.779044   7.913277   6.290736
    39  H    9.771022  10.184705   9.360652   9.207557   7.639796
    40  H   10.653222  11.039528  10.440098   9.573033   7.894102
    41  H    4.909293   6.257845   4.870995   7.124614   6.448750
    42  H    8.202597   9.391241   8.209119   9.211579   7.884378
    43  H   10.283748  11.582309  10.283048  11.598021  10.306027
    44  H   10.692048  12.113986  10.670726  12.678901  11.635554
    45  H    6.687536   8.126632   6.638436   9.289605   8.675934
                   31         32         33         34         35
    31  H    0.000000
    32  H   10.120313   0.000000
    33  H    9.766781   1.770345   0.000000
    34  H    9.315118   1.770350   1.773342   0.000000
    35  H    8.257620   3.183851   4.336669   3.627331   0.000000
    36  H    6.512946   4.335314   4.919297   4.313744   1.772832
    37  H    7.272780   3.626872   4.315592   3.146301   1.772821
    38  H    7.598859   4.335160   4.313879   4.919253   3.630813
    39  H    8.763873   3.626878   3.146581   4.315749   4.337529
    40  H    9.147208   3.183531   3.627293   4.336427   3.185090
    41  H    5.965166   8.224593   6.959878   6.959684   8.413469
    42  H    8.001040   4.760285   3.395315   3.394635   5.987865
    43  H   10.303538   5.484081   4.117174   4.115760   7.537174
    44  H   11.322891   7.973356   6.564436   6.563033   9.897540
    45  H    8.047627   9.064872   7.635674   7.634949   9.839128
                   36         37         38         39         40
    36  H    0.000000
    37  H    1.769976   0.000000
    38  H    3.152409   4.317684   0.000000
    39  H    4.317782   4.920044   1.769984   0.000000
    40  H    3.631040   4.337422   1.772825   1.772827   0.000000
    41  H    7.293994   7.175506   7.294757   7.176386   8.413942
    42  H    5.644146   4.953011   5.645200   4.954713   5.988625
    43  H    7.628556   6.582625   7.630212   6.585523   7.538587
    44  H    9.804726   8.775775   9.806765   8.779169   9.899285
    45  H    8.989413   8.526240   8.990959   8.528479   9.840311
                   41         42         43         44         45
    41  H    0.000000
    42  H    3.856712   0.000000
    43  H    5.556624   2.461109   0.000000
    44  H    5.858776   4.298946   2.489370   0.000000
    45  H    2.272565   4.308121   4.957118   4.301330   0.000000
 Stoichiometry    C19H23NSi2
 Framework group  C1[X(C19H23NSi2)]
 Deg. of freedom   129
 Full point group                 C1      NOp   1
 Largest Abelian subgroup         C1      NOp   1
 Largest concise Abelian subgroup C1      NOp   1
                         Standard orientation:                         
 ---------------------------------------------------------------------
 Center     Atomic      Atomic             Coordinates (Angstroms)
 Number     Number       Type             X           Y           Z
 ---------------------------------------------------------------------
      1          6           0       -5.213098   -1.562291    1.597188
      2         14           0       -4.364127   -2.107051    0.000026
      3          6           0       -4.271654   -3.991178   -0.093445
      4          6           0       -5.272497   -1.410987   -1.502847
      5          6           0       -2.641742   -1.438898   -0.000558
      6          6           0       -1.501729   -0.996630   -0.000408
      7          6           0       -0.176086   -0.451702   -0.000236
      8          6           0       -0.113322    0.976746   -0.000140
      9          6           0       -0.143564    2.199645   -0.000086
     10         14           0       -0.217256    4.047667   -0.000117
     11          6           0        1.550413    4.715222    0.001708
     12          6           0       -1.134052    4.600247   -1.555186
     13          6           0       -1.137244    4.600334    1.553030
     14          6           0        0.893796   -1.307386   -0.000212
     15          6           0        2.330050   -1.050646    0.000041
     16          6           0        2.929427    0.228612    0.000637
     17          6           0        4.316502    0.367989    0.000890
     18          6           0        5.150340   -0.749704    0.000565
     19          6           0        4.572656   -2.031365   -0.000022
     20          6           0        5.410364   -3.197987   -0.000345
     21          7           0        6.091375   -4.141735   -0.000599
     22          6           0        3.179458   -2.175429   -0.000280
     23          1           0       -5.247714   -0.470182    1.673596
     24          1           0       -6.243088   -1.936634    1.635035
     25          1           0       -4.682898   -1.943003    2.476751
     26          1           0       -3.760387   -4.317668   -1.005522
     27          1           0       -5.277089   -4.428624   -0.095761
     28          1           0       -3.727121   -4.403724    0.762817
     29          1           0       -6.303955   -1.781574   -1.537419
     30          1           0       -5.307824   -0.316681   -1.471224
     31          1           0       -4.777161   -1.703381   -2.434951
     32          1           0        1.547985    5.811643    0.001780
     33          1           0        2.100468    4.382690    0.888898
     34          1           0        2.102208    4.382802   -0.884443
     35          1           0       -1.204713    5.693798   -1.593737
     36          1           0       -2.151203    4.194848   -1.578386
     37          1           0       -0.618228    4.262853   -2.460529
     38          1           0       -2.154527    4.195143    1.574021
     39          1           0       -0.623462    4.262898    2.459512
     40          1           0       -1.207785    5.693905    1.591352
     41          1           0        0.628685   -2.361411   -0.000402
     42          1           0        2.305011    1.111938    0.000919
     43          1           0        4.753397    1.361869    0.001357
     44          1           0        6.229644   -0.642540    0.000769
     45          1           0        2.751392   -3.172995   -0.000733
 ---------------------------------------------------------------------
 Rotational constants (GHZ):           0.1884782           0.1248108           0.0789230
 Standard basis: 6-31+G(d,p) (6D, 7F)
 There are   541 symmetry adapted cartesian basis functions of A   symmetry.
 There are   541 symmetry adapted basis functions of A   symmetry.
   541 basis functions,   913 primitive gaussians,   541 cartesian basis functions
    86 alpha electrons       86 beta electrons
       nuclear repulsion energy      1734.0615760452 Hartrees.
 NAtoms=   45 NActive=   45 NUniq=   45 SFac= 1.00D+00 NAtFMM=   60 NAOKFM=F Big=F
 Integral buffers will be    131072 words long.
 Regular integral format.
 Two-electron integral symmetry is turned on.
 One-electron integrals computed using PRISM.
 NBasis=   541 RedAO= T EigKep=  2.61D-06  NBF=   541
 NBsUse=   534 1.00D-06 EigRej=  7.67D-07 NBFU=   534
 ExpMin= 3.31D-02 ExpMax= 1.61D+04 ExpMxC= 2.43D+03 IAcc=3 IRadAn=         5 AccDes= 0.00D+00
 Harris functional with IExCor=  402 and IRadAn=       5 diagonalized for initial guess.
 HarFok:  IExCor=  402 AccDes= 0.00D+00 IRadAn=         5 IDoV= 1 UseB2=F ITyADJ=14
 ICtDFT=  3500011 ScaDFX=  1.000000  1.000000  1.000000  1.000000
 FoFCou: FMM=F IPFlag=           0 FMFlag=      100000 FMFlg1=           0
         NFxFlg=           0 DoJE=T BraDBF=F KetDBF=T FulRan=T
         wScrn=  0.000000 ICntrl=       500 IOpCl=  0 I1Cent=   200000004 NGrid=           0
         NMat0=    1 NMatS0=      1 NMatT0=    0 NMatD0=    1 NMtDS0=    0 NMtDT0=    0
 Petite list used in FoFCou.
 Requested convergence on RMS density matrix=1.00D-08 within 128 cycles.
 Requested convergence on MAX density matrix=1.00D-06.
 Requested convergence on             energy=1.00D-06.
 No special actions if energy rises.
 SCF Done:  E(RB3LYP) =  -1371.64507973     A.U. after   16 cycles
            NFock= 16  Conv=0.33D-08     -V/T= 2.0075
 DoSCS=F DFT=T ScalE2(SS,OS)=  1.000000  1.000000
 ExpMin= 3.31D-02 ExpMax= 1.61D+04 ExpMxC= 2.43D+03 IAcc=3 IRadAn=         5 AccDes= 0.00D+00
 HarFok:  IExCor=  205 AccDes= 0.00D+00 IRadAn=         5 IDoV=-2 UseB2=F ITyADJ=14
 ICtDFT= 12500011 ScaDFX=  1.000000  1.000000  1.000000  1.000000
 GSVD:  LWork=       -1140 too small for GESVD, short by        4950 words or        4950 for optimal perf.
 Range of M.O.s used for correlation:    31   534
 NBasis=   541 NAE=    86 NBE=    86 NFC=    30 NFV=     0
 NROrb=    504 NOA=    56 NOB=    56 NVA=   448 NVB=   448

 **** Warning!!: The largest alpha MO coefficient is  0.12426022D+03

 Orbital symmetries:
       Occupied  (A) (A) (A) (A) (A) (A) (A) (A) (A) (A) (A) (A)
                 (A) (A) (A) (A) (A) (A) (A) (A) (A) (A) (A) (A)
                 (A) (A) (A) (A) (A) (A) (A) (A) (A) (A) (A) (A)
                 (A) (A) (A) (A) (A) (A) (A) (A) (A) (A) (A) (A)
                 (A) (A) (A) (A) (A) (A) (A) (A) (A) (A) (A) (A)
                 (A) (A) (A) (A) (A) (A) (A) (A) (A) (A) (A) (A)
                 (A) (A) (A) (A) (A) (A) (A) (A) (A) (A) (A) (A)
                 (A) (A)
       Virtual   (A) (A) (A) (A) (A) (A) (A) (A) (A) (A) (A) (A)
                 (A) (A) (A) (A) (A) (A) (A) (A) (A) (A) (A) (A)
                 (A) (A) (A) (A) (A) (A) (A) (A) (A) (A) (A) (A)
                 (A) (A) (A) (A) (A) (A) (A) (A) (A) (A) (A) (A)
                 (A) (A) (A) (A) (A) (A) (A) (A) (A) (A) (A) (A)
                 (A) (A) (A) (A) (A) (A) (A) (A) (A) (A) (A) (A)
                 (A) (A) (A) (A) (A) (A) (A) (A) (A) (A) (A) (A)
                 (A) (A) (A) (A) (A) (A) (A) (A) (A) (A) (A) (A)
                 (A) (A) (A) (A) (A) (A) (A) (A) (A) (A) (A) (A)
                 (A) (A) (A) (A) (A) (A) (A) (A) (A) (A) (A) (A)
                 (A) (A) (A) (A) (A) (A) (A) (A) (A) (A) (A) (A)
                 (A) (A) (A) (A) (A) (A) (A) (A) (A) (A) (A) (A)
                 (A) (A) (A) (A) (A) (A) (A) (A) (A) (A) (A) (A)
                 (A) (A) (A) (A) (A) (A) (A) (A) (A) (A) (A) (A)
                 (A) (A) (A) (A) (A) (A) (A) (A) (A) (A) (A) (A)
                 (A) (A) (A) (A) (A) (A) (A) (A) (A) (A) (A) (A)
                 (A) (A) (A) (A) (A) (A) (A) (A) (A) (A) (A) (A)
                 (A) (A) (A) (A) (A) (A) (A) (A) (A) (A) (A) (A)
                 (A) (A) (A) (A) (A) (A) (A) (A) (A) (A) (A) (A)
                 (A) (A) (A) (A) (A) (A) (A) (A) (A) (A) (A) (A)
                 (A) (A) (A) (A) (A) (A) (A) (A) (A) (A) (A) (A)
                 (A) (A) (A) (A) (A) (A) (A) (A) (A) (A) (A) (A)
                 (A) (A) (A) (A) (A) (A) (A) (A) (A) (A) (A) (A)
                 (A) (A) (A) (A) (A) (A) (A) (A) (A) (A) (A) (A)
                 (A) (A) (A) (A) (A) (A) (A) (A) (A) (A) (A) (A)
                 (A) (A) (A) (A) (A) (A) (A) (A) (A) (A) (A) (A)
                 (A) (A) (A) (A) (A) (A) (A) (A) (A) (A) (A) (A)
                 (A) (A) (A) (A) (A) (A) (A) (A) (A) (A) (A) (A)
                 (A) (A) (A) (A) (A) (A) (A) (A) (A) (A) (A) (A)
                 (A) (A) (A) (A) (A) (A) (A) (A) (A) (A) (A) (A)
                 (A) (A) (A) (A) (A) (A) (A) (A) (A) (A) (A) (A)
                 (A) (A) (A) (A) (A) (A) (A) (A) (A) (A) (A) (A)
                 (A) (A) (A) (A) (A) (A) (A) (A) (A) (A) (A) (A)
                 (A) (A) (A) (A) (A) (A) (A) (A) (A) (A) (A) (A)
                 (A) (A) (A) (A) (A) (A) (A) (A) (A) (A) (A) (A)
                 (A) (A) (A) (A) (A) (A) (A) (A) (A) (A) (A) (A)
                 (A) (A) (A) (A) (A) (A) (A) (A) (A) (A) (A) (A)
                 (A) (A) (A) (A)
    24 initial guesses have been made.
 Convergence on wavefunction:    0.001000000000000
 Iteration     1 Dimension    24 NMult     0 NNew     24
 CISAX will form    24 AO SS matrices at one time.
 New state      1 was old state      2
 New state      2 was old state      4
 New state      3 was old state      6
 New state      4 was old state      8
 New state      5 was old state      3
 New state      6 was old state      5
 New state      7 was old state     10
 New state      8 was old state      1
 New state      9 was old state     14
 New state     10 was old state     12
 New state     11 was old state     24
 New state     12 was old state     11
 Vector   4 SDiff=1.74D+00 TDiff=1.58D+01 assumed to be singlet.
 Vector  10 SDiff=1.27D+00 TDiff=1.14D+01 assumed to be singlet.
 Iteration     2 Dimension    36 NMult    24 NNew     12
 New state      3 was old state      5
 New state      4 was old state      3
 New state      5 was old state      6
 New state      6 was old state      8
 Iteration     3 Dimension    48 NMult    36 NNew     12
 No map to state      4
 Iteration     4 Dimension    60 NMult    48 NNew     12
 Iteration     5 Dimension    70 NMult    60 NNew     10
 Iteration     6 Dimension    78 NMult    70 NNew      8
 Iteration     7 Dimension    82 NMult    78 NNew      4
 Iteration     8 Dimension    86 NMult    82 NNew      4
 Iteration     9 Dimension    88 NMult    86 NNew      2
 Iteration    10 Dimension    90 NMult    88 NNew      2
 ***********************************************************************
 Excited states from <AA,BB:AA,BB> singles matrix:
 ***********************************************************************
 
 Ground to excited state transition densities written to RWF  633
 Ground to excited state transition electric dipole moments (Au):
       state          X           Y           Z        Dip. S.      Osc.
         1         0.0000     -0.0000      0.0000      0.0000      0.0000
         2        -0.0000      0.0000     -0.0000      0.0000      0.0000
         3        -2.7369      0.7237      0.0036      8.0146      0.6995
         4        -0.0000      0.0000     -0.0000      0.0000      0.0000
         5         0.0020     -0.0052     -0.0036      0.0000      0.0000
         6        -0.8859      0.3405      0.0020      0.9007      0.0885
 Ground to excited state transition velocity dipole moments (Au):
       state          X           Y           Z        Dip. S.      Osc.
         1         0.0000     -0.0000     -0.0000      0.0000      0.0000
         2         0.0000     -0.0000      0.0000      0.0000      0.0000
         3         0.3528     -0.0920     -0.0005      0.1329      0.6768
         4         0.0000     -0.0000      0.0000      0.0000      0.0000
         5        -0.0003      0.0008     -0.0009      0.0000      0.0000
         6         0.1269     -0.0504     -0.0003      0.0186      0.0843
 Ground to excited state transition magnetic dipole moments (Au):
       state          X           Y           Z
         1        -0.0000      0.0000     -0.0000
         2         0.0000     -0.0000     -0.0000
         3         0.0019     -0.0044      0.9354
         4         0.0000     -0.0000      0.0000
         5        -0.1339      0.1134     -0.0066
         6         0.0013     -0.0023     -0.1755
 Ground to excited state transition velocity quadrupole moments (Au):
       state          XX          YY          ZZ          XY          XZ          YZ
         1         0.0000     -0.0000     -0.0000     -0.0000     -0.0000     -0.0000
         2         0.0000      0.0000      0.0000     -0.0000      0.0000      0.0000
         3         1.1662     -0.5705     -0.1278     -0.8040      0.0065      0.0029
         4         0.0000     -0.0000     -0.0000     -0.0000      0.0000      0.0000
         5         0.0068     -0.0078     -0.0003     -0.0075      0.0404      0.0622
         6         0.1474     -0.0036     -0.0578     -0.5584      0.0036      0.0016
 <0|del|b> * <b|rxdel|0> + <0|del|b> * <b|delr+rdel|0>
 Rotatory Strengths (R) in cgs (10**-40 erg-esu-cm/Gauss)
       state          XX          YY          ZZ    R(velocity)    E-M Angle
         1        -0.0000     -0.0000      0.0000     -0.0000       90.00
         2         0.0000      0.0000     -0.0000      0.0000       90.00
         3         2.5191      2.1621     -1.4199      1.0871       89.90
         4         0.0000      0.0000      0.0000      0.0000       90.00
         5         0.1695      0.0522      0.4374      0.2197       52.14
         6         1.2695      0.5867     -0.2583      0.5327       89.20
 1/2[<0|r|b>*<b|rxdel|0> + (<0|rxdel|b>*<b|r|0>)*]
 Rotatory Strengths (R) in cgs (10**-40 erg-esu-cm/Gauss)
       state          XX          YY          ZZ     R(length)
         1         0.0000      0.0000      0.0000      0.0000
         2         0.0000      0.0000     -0.0000      0.0000
         3         3.7647      2.2401     -2.4096      1.1984
         4         0.0000      0.0000      0.0000      0.0000
         5         0.1938      0.4167     -0.0168      0.1979
         6         0.7923      0.5602      0.2461      0.5329
  1/2[<0|del|b>*<b|r|0> + (<0|r|b>*<b|del|0>)*] (Au)
       state          X           Y           Z        Dip. S.   Osc.(frdel)
         1         0.0000      0.0000     -0.0000     -0.0000     -0.0000
         2        -0.0000     -0.0000     -0.0000      0.0000      0.0000
         3        -0.9655     -0.0666     -0.0000      1.0321      0.6881
         4        -0.0000     -0.0000     -0.0000      0.0000      0.0000
         5        -0.0000     -0.0000      0.0000      0.0000      0.0000
         6        -0.1124     -0.0172     -0.0000      0.1296      0.0864

 Excitation energies and oscillator strengths:
 
 Excited State   1:      Triplet-A      1.9382 eV  639.68 nm  f=0.0000  <S**2>=2.000
      86 -> 87         0.69016
      86 <- 87         0.12566
 This state for optimization and/or second-order correction.
 Total Energy, E(TD-HF/TD-DFT) =  -1371.57385153    
 Copying the excited state density for this state as the 1-particle RhoCI density.
 
 Excited State   2:      Triplet-A      3.4064 eV  363.97 nm  f=0.0000  <S**2>=2.000
      81 -> 87        -0.20826
      84 -> 87        -0.34439
      84 -> 88         0.30563
      86 -> 88         0.41782
      86 -> 91        -0.15802
 
 Excited State   3:      Singlet-A      3.5625 eV  348.02 nm  f=0.6995  <S**2>=0.000
      86 -> 87         0.69510
      86 -> 88        -0.10856
 
 Excited State   4:      Triplet-A      3.6502 eV  339.66 nm  f=0.0000  <S**2>=2.000
      81 -> 87         0.14889
      81 -> 88         0.15732
      84 -> 87         0.11340
      84 -> 88        -0.35211
      86 -> 88         0.49840
      86 -> 91         0.15450
 
 Excited State   5:      Singlet-A      3.9159 eV  316.62 nm  f=0.0000  <S**2>=0.000
      85 -> 87         0.69383
 
 Excited State   6:      Singlet-A      4.0091 eV  309.26 nm  f=0.0885  <S**2>=0.000
      84 -> 87         0.33486
      86 -> 87         0.11083
      86 -> 88         0.60384
 SavETr:  write IOETrn=   770 NScale= 10 NData=  16 NLR=1 NState=    6 LETran=     118.

 **********************************************************************

            Population analysis using the SCF Density.

 **********************************************************************

 Orbital symmetries:
       Occupied  (A) (A) (A) (A) (A) (A) (A) (A) (A) (A) (A) (A)
                 (A) (A) (A) (A) (A) (A) (A) (A) (A) (A) (A) (A)
                 (A) (A) (A) (A) (A) (A) (A) (A) (A) (A) (A) (A)
                 (A) (A) (A) (A) (A) (A) (A) (A) (A) (A) (A) (A)
                 (A) (A) (A) (A) (A) (A) (A) (A) (A) (A) (A) (A)
                 (A) (A) (A) (A) (A) (A) (A) (A) (A) (A) (A) (A)
                 (A) (A) (A) (A) (A) (A) (A) (A) (A) (A) (A) (A)
                 (A) (A)
       Virtual   (A) (A) (A) (A) (A) (A) (A) (A) (A) (A) (A) (A)
                 (A) (A) (A) (A) (A) (A) (A) (A) (A) (A) (A) (A)
                 (A) (A) (A) (A) (A) (A) (A) (A) (A) (A) (A) (A)
                 (A) (A) (A) (A) (A) (A) (A) (A) (A) (A) (A) (A)
                 (A) (A) (A) (A) (A) (A) (A) (A) (A) (A) (A) (A)
                 (A) (A) (A) (A) (A) (A) (A) (A) (A) (A) (A) (A)
                 (A) (A) (A) (A) (A) (A) (A) (A) (A) (A) (A) (A)
                 (A) (A) (A) (A) (A) (A) (A) (A) (A) (A) (A) (A)
                 (A) (A) (A) (A) (A) (A) (A) (A) (A) (A) (A) (A)
                 (A) (A) (A) (A) (A) (A) (A) (A) (A) (A) (A) (A)
                 (A) (A) (A) (A) (A) (A) (A) (A) (A) (A) (A) (A)
                 (A) (A) (A) (A) (A) (A) (A) (A) (A) (A) (A) (A)
                 (A) (A) (A) (A) (A) (A) (A) (A) (A) (A) (A) (A)
                 (A) (A) (A) (A) (A) (A) (A) (A) (A) (A) (A) (A)
                 (A) (A) (A) (A) (A) (A) (A) (A) (A) (A) (A) (A)
                 (A) (A) (A) (A) (A) (A) (A) (A) (A) (A) (A) (A)
                 (A) (A) (A) (A) (A) (A) (A) (A) (A) (A) (A) (A)
                 (A) (A) (A) (A) (A) (A) (A) (A) (A) (A) (A) (A)
                 (A) (A) (A) (A) (A) (A) (A) (A) (A) (A) (A) (A)
                 (A) (A) (A) (A) (A) (A) (A) (A) (A) (A) (A) (A)
                 (A) (A) (A) (A) (A) (A) (A) (A) (A) (A) (A) (A)
                 (A) (A) (A) (A) (A) (A) (A) (A) (A) (A) (A) (A)
                 (A) (A) (A) (A) (A) (A) (A) (A) (A) (A) (A) (A)
                 (A) (A) (A) (A) (A) (A) (A) (A) (A) (A) (A) (A)
                 (A) (A) (A) (A) (A) (A) (A) (A) (A) (A) (A) (A)
                 (A) (A) (A) (A) (A) (A) (A) (A) (A) (A) (A) (A)
                 (A) (A) (A) (A) (A) (A) (A) (A) (A) (A) (A) (A)
                 (A) (A) (A) (A) (A) (A) (A) (A) (A) (A) (A) (A)
                 (A) (A) (A) (A) (A) (A) (A) (A) (A) (A) (A) (A)
                 (A) (A) (A) (A) (A) (A) (A) (A) (A) (A) (A) (A)
                 (A) (A) (A) (A) (A) (A) (A) (A) (A) (A) (A) (A)
                 (A) (A) (A) (A) (A) (A) (A) (A) (A) (A) (A) (A)
                 (A) (A) (A) (A) (A) (A) (A) (A) (A) (A) (A) (A)
                 (A) (A) (A) (A) (A) (A) (A) (A) (A) (A) (A) (A)
                 (A) (A) (A) (A) (A) (A) (A) (A) (A) (A) (A) (A)
                 (A) (A) (A) (A) (A) (A) (A) (A) (A) (A) (A) (A)
                 (A) (A) (A) (A) (A) (A) (A) (A) (A) (A) (A) (A)
                 (A) (A) (A) (A)
 The electronic state is 1-A.
 Alpha  occ. eigenvalues --  -66.14919 -66.14328 -14.34973 -10.25658 -10.25309
 Alpha  occ. eigenvalues --  -10.24132 -10.23660 -10.23180 -10.23092 -10.23077
 Alpha  occ. eigenvalues --  -10.22359 -10.22193 -10.21185 -10.20559 -10.18830
 Alpha  occ. eigenvalues --  -10.18096 -10.17858 -10.17614 -10.17613 -10.17189
 Alpha  occ. eigenvalues --  -10.17166 -10.17165  -5.29197  -5.28610  -3.65203
 Alpha  occ. eigenvalues --   -3.65025  -3.65017  -3.64611  -3.64438  -3.64437
 Alpha  occ. eigenvalues --   -0.91983  -0.89362  -0.85372  -0.79937  -0.79002
 Alpha  occ. eigenvalues --   -0.75638  -0.73747  -0.72408  -0.71759  -0.69212
 Alpha  occ. eigenvalues --   -0.69042  -0.68613  -0.68587  -0.67393  -0.65838
 Alpha  occ. eigenvalues --   -0.62386  -0.57445  -0.55457  -0.51913  -0.51539
 Alpha  occ. eigenvalues --   -0.50666  -0.49616  -0.46502  -0.46003  -0.43395
 Alpha  occ. eigenvalues --   -0.42830  -0.42401  -0.42143  -0.42014  -0.41905
 Alpha  occ. eigenvalues --   -0.41483  -0.41453  -0.40570  -0.40399  -0.39952
 Alpha  occ. eigenvalues --   -0.39948  -0.39657  -0.39349  -0.38826  -0.38568
 Alpha  occ. eigenvalues --   -0.38291  -0.36889  -0.36491  -0.35921  -0.35677
 Alpha  occ. eigenvalues --   -0.34262  -0.32554  -0.32399  -0.31995  -0.31770
 Alpha  occ. eigenvalues --   -0.30178  -0.29011  -0.28334  -0.27857  -0.27205
 Alpha  occ. eigenvalues --   -0.23114
 Alpha virt. eigenvalues --   -0.09439  -0.06018  -0.01922  -0.01804  -0.01785
 Alpha virt. eigenvalues --   -0.00998   0.00013   0.00572   0.00668   0.01265
 Alpha virt. eigenvalues --    0.01614   0.01763   0.02081   0.02267   0.02948
 Alpha virt. eigenvalues --    0.03387   0.03795   0.04018   0.04388   0.04975
 Alpha virt. eigenvalues --    0.05415   0.05503   0.05554   0.05687   0.06024
 Alpha virt. eigenvalues --    0.06142   0.06171   0.06339   0.06898   0.07275
 Alpha virt. eigenvalues --    0.07875   0.07913   0.08440   0.08524   0.08797
 Alpha virt. eigenvalues --    0.08927   0.09263   0.09321   0.09570   0.09937
 Alpha virt. eigenvalues --    0.09967   0.10125   0.10445   0.10835   0.11133
 Alpha virt. eigenvalues --    0.11202   0.11279   0.11419   0.11619   0.12086
 Alpha virt. eigenvalues --    0.12142   0.12722   0.13238   0.13570   0.13841
 Alpha virt. eigenvalues --    0.13949   0.14051   0.14292   0.14489   0.14881
 Alpha virt. eigenvalues --    0.15173   0.15758   0.15813   0.15816   0.16426
 Alpha virt. eigenvalues --    0.17034   0.17151   0.17287   0.17800   0.17926
 Alpha virt. eigenvalues --    0.18376   0.18549   0.18673   0.18758   0.19003
 Alpha virt. eigenvalues --    0.19596   0.19776   0.20083   0.20304   0.20376
 Alpha virt. eigenvalues --    0.21294   0.21369   0.21454   0.21966   0.22241
 Alpha virt. eigenvalues --    0.22456   0.22968   0.23408   0.23659   0.23938
 Alpha virt. eigenvalues --    0.23987   0.24424   0.24653   0.24924   0.25119
 Alpha virt. eigenvalues --    0.25193   0.25438   0.25708   0.25732   0.26487
 Alpha virt. eigenvalues --    0.27137   0.27610   0.27880   0.28598   0.28983
 Alpha virt. eigenvalues --    0.29204   0.29963   0.30396   0.30584   0.30777
 Alpha virt. eigenvalues --    0.31485   0.31735   0.32150   0.32920   0.33735
 Alpha virt. eigenvalues --    0.33834   0.34953   0.35101   0.35854   0.35991
 Alpha virt. eigenvalues --    0.36649   0.36817   0.38609   0.38981   0.40031
 Alpha virt. eigenvalues --    0.41815   0.42407   0.42777   0.43974   0.44131
 Alpha virt. eigenvalues --    0.44414   0.45062   0.46097   0.46357   0.47052
 Alpha virt. eigenvalues --    0.48997   0.50035   0.53365   0.53605   0.54515
 Alpha virt. eigenvalues --    0.54873   0.55303   0.56464   0.57959   0.59510
 Alpha virt. eigenvalues --    0.63409   0.64639   0.64686   0.67055   0.67774
 Alpha virt. eigenvalues --    0.68513   0.68851   0.68994   0.69157   0.71794
 Alpha virt. eigenvalues --    0.71913   0.72184   0.72824   0.73560   0.73965
 Alpha virt. eigenvalues --    0.74097   0.74370   0.74767   0.75971   0.77080
 Alpha virt. eigenvalues --    0.77133   0.77217   0.77343   0.77806   0.78253
 Alpha virt. eigenvalues --    0.78446   0.79125   0.80003   0.80331   0.80535
 Alpha virt. eigenvalues --    0.80680   0.81246   0.81473   0.81623   0.82276
 Alpha virt. eigenvalues --    0.82626   0.82801   0.83526   0.83643   0.83796
 Alpha virt. eigenvalues --    0.84781   0.85378   0.87118   0.87953   0.88658
 Alpha virt. eigenvalues --    0.89017   0.89173   0.90089   0.90621   0.90829
 Alpha virt. eigenvalues --    0.91429   0.91489   0.92977   0.93015   0.95426
 Alpha virt. eigenvalues --    0.96094   0.96378   0.96797   0.98600   0.98824
 Alpha virt. eigenvalues --    0.99106   0.99484   1.00040   1.00438   1.01065
 Alpha virt. eigenvalues --    1.01353   1.01551   1.02169   1.02433   1.02924
 Alpha virt. eigenvalues --    1.03126   1.04085   1.04463   1.05646   1.06982
 Alpha virt. eigenvalues --    1.07894   1.08667   1.09874   1.11143   1.13359
 Alpha virt. eigenvalues --    1.13532   1.15328   1.15869   1.16589   1.16651
 Alpha virt. eigenvalues --    1.17665   1.18160   1.18526   1.19647   1.20859
 Alpha virt. eigenvalues --    1.21323   1.22958   1.26147   1.26294   1.27268
 Alpha virt. eigenvalues --    1.27626   1.28945   1.28987   1.29456   1.29516
 Alpha virt. eigenvalues --    1.30795   1.32673   1.33511   1.34071   1.35286
 Alpha virt. eigenvalues --    1.36203   1.36864   1.37956   1.38034   1.39644
 Alpha virt. eigenvalues --    1.40659   1.41945   1.42465   1.44945   1.45894
 Alpha virt. eigenvalues --    1.46353   1.46801   1.47535   1.48315   1.48782
 Alpha virt. eigenvalues --    1.51457   1.52263   1.54735   1.55565   1.55628
 Alpha virt. eigenvalues --    1.56087   1.60328   1.61022   1.62522   1.62954
 Alpha virt. eigenvalues --    1.63187   1.64384   1.65374   1.66025   1.68644
 Alpha virt. eigenvalues --    1.71290   1.72946   1.74560   1.75481   1.77074
 Alpha virt. eigenvalues --    1.78872   1.81335   1.81385   1.82671   1.87453
 Alpha virt. eigenvalues --    1.87918   1.90580   1.91172   1.91512   1.92607
 Alpha virt. eigenvalues --    1.93867   1.95534   1.96813   1.97338   1.97667
 Alpha virt. eigenvalues --    2.00434   2.00592   2.00919   2.03114   2.03458
 Alpha virt. eigenvalues --    2.03731   2.03748   2.04053   2.04067   2.04235
 Alpha virt. eigenvalues --    2.04366   2.04628   2.08635   2.08967   2.09859
 Alpha virt. eigenvalues --    2.10483   2.10669   2.11071   2.11521   2.12023
 Alpha virt. eigenvalues --    2.12373   2.12829   2.13137   2.13224   2.13339
 Alpha virt. eigenvalues --    2.14017   2.14235   2.14736   2.16996   2.18204
 Alpha virt. eigenvalues --    2.18293   2.18977   2.19757   2.20455   2.23118
 Alpha virt. eigenvalues --    2.27956   2.28485   2.30855   2.31333   2.32703
 Alpha virt. eigenvalues --    2.32789   2.33782   2.34127   2.34535   2.35575
 Alpha virt. eigenvalues --    2.36373   2.36802   2.36894   2.37154   2.37397
 Alpha virt. eigenvalues --    2.38385   2.39794   2.40575   2.41606   2.46400
 Alpha virt. eigenvalues --    2.46698   2.49051   2.50949   2.51786   2.53591
 Alpha virt. eigenvalues --    2.54663   2.58548   2.59319   2.61848   2.63716
 Alpha virt. eigenvalues --    2.64093   2.65520   2.65668   2.66528   2.67637
 Alpha virt. eigenvalues --    2.67711   2.68057   2.68199   2.69692   2.70814
 Alpha virt. eigenvalues --    2.73358   2.77433   2.80399   2.80529   2.80568
 Alpha virt. eigenvalues --    2.80903   2.81175   2.82861   2.82956   2.82964
 Alpha virt. eigenvalues --    2.83424   2.84313   2.84361   2.84769   2.84776
 Alpha virt. eigenvalues --    2.85063   2.85705   2.86176   2.98313   3.01945
 Alpha virt. eigenvalues --    3.05879   3.07896   3.10612   3.13457   3.14874
 Alpha virt. eigenvalues --    3.19048   3.22865   3.22983   3.23119   3.23542
 Alpha virt. eigenvalues --    3.24252   3.24670   3.26248   3.27521   3.31353
 Alpha virt. eigenvalues --    3.33842   3.43091   3.43498   3.43528   3.43933
 Alpha virt. eigenvalues --    3.44373   3.44659   3.44733   3.45206   3.45289
 Alpha virt. eigenvalues --    3.45602   3.45609   3.46011   3.46463   3.46785
 Alpha virt. eigenvalues --    3.48020   3.57553   3.83132   4.22744   4.23490
 Alpha virt. eigenvalues --    4.26867   4.30244   4.33170   4.35702   4.38828
 Alpha virt. eigenvalues --    4.40914   4.43440   4.46385   4.46908   4.47009
 Alpha virt. eigenvalues --    4.48800   4.50583   4.51113   4.51650   4.61332
 Alpha virt. eigenvalues --    4.62661   4.86994   4.96551
          Condensed to atoms (all electrons):
               1          2          3          4          5          6
     1  C    5.486449   0.224509  -0.066075  -0.072938  -0.047529  -0.026005
     2  Si   0.224509  12.035877   0.231959   0.222212   0.405694  -0.091012
     3  C   -0.066075   0.231959   5.469382  -0.067583  -0.039905  -0.016433
     4  C   -0.072938   0.222212  -0.067583   5.490402  -0.047308  -0.026666
     5  C   -0.047529   0.405694  -0.039905  -0.047308   6.829165   0.173605
     6  C   -0.026005  -0.091012  -0.016433  -0.026666   0.173605   6.651882
     7  C    0.003146  -0.008077  -0.008034   0.002476   0.159996   0.354945
     8  C    0.008283  -0.033000  -0.003046   0.009919  -0.044869  -1.350459
     9  C   -0.000387  -0.010013  -0.000653  -0.000762   0.090296   0.255446
    10  Si   0.001344  -0.006269   0.000169   0.001412   0.004066  -0.042632
    11  C   -0.000002   0.000067  -0.000005  -0.000005  -0.002568  -0.008029
    12  C   -0.000261   0.001075  -0.000014  -0.000162  -0.001790   0.007736
    13  C   -0.000136   0.001008  -0.000014  -0.000277  -0.001582   0.007262
    14  C   -0.007365   0.039439   0.004588  -0.006874  -0.162252  -0.342580
    15  C   -0.000126   0.008447  -0.000071  -0.000088  -0.217432   0.699865
    16  C   -0.000072   0.002186  -0.000023   0.000004  -0.108588  -0.896156
    17  C   -0.000064   0.001526   0.000045  -0.000063  -0.074222   0.156649
    18  C   -0.000022   0.000063  -0.000015  -0.000020   0.010862  -0.101928
    19  C    0.000112  -0.002536   0.000178   0.000107   0.005997   0.049538
    20  C    0.000012  -0.000048   0.000007   0.000011  -0.006493  -0.008564
    21  N   -0.000000  -0.000001   0.000000  -0.000000   0.000032   0.000112
    22  C    0.000021  -0.005017   0.000844   0.000043   0.036498   0.164443
    23  H    0.388878  -0.021761   0.009861  -0.001997  -0.014799   0.001151
    24  H    0.386827  -0.030555  -0.004087  -0.002385   0.005149   0.003829
    25  H    0.387842  -0.023270  -0.002801   0.010159  -0.008611  -0.001433
    26  H    0.009935  -0.021895   0.388602  -0.003188  -0.009115  -0.002807
    27  H   -0.004564  -0.027679   0.388921  -0.004286   0.005747   0.001641
    28  H   -0.003244  -0.021525   0.388147   0.010014  -0.009785  -0.002399
    29  H   -0.002509  -0.030224  -0.003901   0.386241   0.005451   0.003596
    30  H   -0.001914  -0.021067   0.009875   0.388106  -0.014672   0.000747
    31  H    0.010074  -0.023451  -0.002618   0.387700  -0.007772  -0.002093
    32  H   -0.000000  -0.000001   0.000000  -0.000000   0.000005   0.000212
    33  H    0.000000  -0.000001   0.000000   0.000000   0.000037   0.000088
    34  H    0.000000  -0.000002   0.000000   0.000000   0.000037   0.000087
    35  H    0.000000   0.000007   0.000000  -0.000000   0.000015   0.000350
    36  H   -0.000003   0.000046  -0.000001  -0.000015  -0.000723   0.001687
    37  H   -0.000000  -0.000001   0.000000  -0.000001   0.000062  -0.000105
    38  H   -0.000010   0.000036  -0.000001  -0.000004  -0.000737   0.001732
    39  H   -0.000002   0.000001   0.000000  -0.000000   0.000061  -0.000102
    40  H   -0.000000   0.000008   0.000000   0.000000   0.000016   0.000348
    41  H   -0.000105   0.002266   0.000233  -0.000077   0.005772   0.003706
    42  H   -0.000001  -0.000009  -0.000000  -0.000001  -0.001433   0.011239
    43  H   -0.000000   0.000001   0.000000  -0.000000   0.000017  -0.000035
    44  H    0.000000   0.000000  -0.000000   0.000000   0.000003  -0.000039
    45  H   -0.000001   0.000062   0.000003  -0.000001   0.001408   0.000712
               7          8          9         10         11         12
     1  C    0.003146   0.008283  -0.000387   0.001344  -0.000002  -0.000261
     2  Si  -0.008077  -0.033000  -0.010013  -0.006269   0.000067   0.001075
     3  C   -0.008034  -0.003046  -0.000653   0.000169  -0.000005  -0.000014
     4  C    0.002476   0.009919  -0.000762   0.001412  -0.000005  -0.000162
     5  C    0.159996  -0.044869   0.090296   0.004066  -0.002568  -0.001790
     6  C    0.354945  -1.350459   0.255446  -0.042632  -0.008029   0.007736
     7  C    7.370245  -0.433676   0.266202   0.034062  -0.027348  -0.001611
     8  C   -0.433676   7.293902  -0.297134  -0.130494   0.020903  -0.020290
     9  C    0.266202  -0.297134   6.933957   0.426637  -0.020660  -0.060669
    10  Si   0.034062  -0.130494   0.426637  12.035909   0.185091   0.254716
    11  C   -0.027348   0.020903  -0.020660   0.185091   5.524117  -0.072878
    12  C   -0.001611  -0.020290  -0.060669   0.254716  -0.072878   5.459315
    13  C   -0.001390  -0.020353  -0.060132   0.255183  -0.072995  -0.077582
    14  C    0.378411   0.298745  -0.184197  -0.010338   0.007674   0.001082
    15  C    0.056139  -0.818484   0.278249   0.011391  -0.021261   0.000197
    16  C   -1.191424   1.233368  -0.470769  -0.006195   0.018599  -0.006378
    17  C   -0.780482   0.155623  -0.182739  -0.014320   0.013461   0.002609
    18  C    0.034299   0.137210  -0.017283   0.000885   0.000714   0.000684
    19  C    0.033371  -0.055070  -0.012145   0.004431   0.000232  -0.000580
    20  C   -0.145819   0.025607  -0.012964   0.000671  -0.000391  -0.000051
    21  N    0.002029  -0.000272   0.000087   0.000001   0.000002   0.000000
    22  C    0.199029  -0.340048   0.091597   0.005606  -0.000041  -0.001100
    23  H   -0.002278   0.001867  -0.000618   0.000097  -0.000000  -0.000004
    24  H   -0.000325   0.000211  -0.000008   0.000004  -0.000000   0.000000
    25  H   -0.000272   0.000074  -0.000035  -0.000002  -0.000000  -0.000001
    26  H   -0.000199  -0.000068   0.000012  -0.000002   0.000000   0.000000
    27  H    0.000227   0.000017   0.000017  -0.000001  -0.000000   0.000000
    28  H   -0.000345   0.000011  -0.000000  -0.000002   0.000000   0.000000
    29  H   -0.000281   0.000164   0.000003   0.000002  -0.000000  -0.000000
    30  H   -0.002237   0.002027  -0.000684   0.000089  -0.000000  -0.000013
    31  H   -0.000059  -0.000056   0.000003  -0.000001  -0.000000  -0.000004
    32  H    0.000379   0.004496   0.000769  -0.023977   0.391127  -0.005694
    33  H    0.000994  -0.003448  -0.011275  -0.017319   0.385769   0.009951
    34  H    0.000992  -0.003467  -0.011286  -0.017282   0.385774  -0.003202
    35  H    0.000213   0.002258   0.007348  -0.033501  -0.004329   0.389807
    36  H   -0.001787   0.000699  -0.014460  -0.022238   0.009678   0.390256
    37  H   -0.000256  -0.002649  -0.007075  -0.023344  -0.003297   0.388471
    38  H   -0.001812   0.000688  -0.014536  -0.022150   0.009684  -0.001778
    39  H   -0.000252  -0.002646  -0.007062  -0.023420  -0.003295   0.010163
    40  H    0.000215   0.002255   0.007353  -0.033528  -0.004333  -0.002961
    41  H   -0.040711   0.003354  -0.000415   0.000068  -0.000027   0.000004
    42  H   -0.012588   0.000402  -0.010430   0.012563  -0.004131  -0.000283
    43  H    0.000707   0.001843  -0.000479   0.000192   0.000172   0.000011
    44  H    0.000672   0.000152   0.000027  -0.000067   0.000016   0.000000
    45  H    0.023388  -0.001701   0.000823  -0.000037   0.000004   0.000000
              13         14         15         16         17         18
     1  C   -0.000136  -0.007365  -0.000126  -0.000072  -0.000064  -0.000022
     2  Si   0.001008   0.039439   0.008447   0.002186   0.001526   0.000063
     3  C   -0.000014   0.004588  -0.000071  -0.000023   0.000045  -0.000015
     4  C   -0.000277  -0.006874  -0.000088   0.000004  -0.000063  -0.000020
     5  C   -0.001582  -0.162252  -0.217432  -0.108588  -0.074222   0.010862
     6  C    0.007262  -0.342580   0.699865  -0.896156   0.156649  -0.101928
     7  C   -0.001390   0.378411   0.056139  -1.191424  -0.780482   0.034299
     8  C   -0.020353   0.298745  -0.818484   1.233368   0.155623   0.137210
     9  C   -0.060132  -0.184197   0.278249  -0.470769  -0.182739  -0.017283
    10  Si   0.255183  -0.010338   0.011391  -0.006195  -0.014320   0.000885
    11  C   -0.072995   0.007674  -0.021261   0.018599   0.013461   0.000714
    12  C   -0.077582   0.001082   0.000197  -0.006378   0.002609   0.000684
    13  C    5.458708   0.001042   0.000198  -0.006316   0.002626   0.000672
    14  C    0.001042   6.522993   0.217900   0.537922  -0.789275   0.231513
    15  C    0.000198   0.217900  10.254888  -3.324915   0.903205  -1.470890
    16  C   -0.006316   0.537922  -3.324915  14.038486  -3.562424   1.627074
    17  C    0.002626  -0.789275   0.903205  -3.562424   9.912099  -1.466878
    18  C    0.000672   0.231513  -1.470890   1.627074  -1.466878   9.530362
    19  C   -0.000568  -0.041469  -1.047808  -0.715898   0.762377  -0.971974
    20  C   -0.000050  -0.219098  -0.782069   0.263290   0.134000   0.224646
    21  N    0.000000   0.008177   0.025389  -0.001250  -0.003032   0.017245
    22  C   -0.001093  -0.826001   1.384055  -1.766344   0.745186  -1.794957
    23  H   -0.000014   0.000445  -0.000009   0.000016   0.000000   0.000000
    24  H   -0.000000   0.000016  -0.000014  -0.000001  -0.000000   0.000000
    25  H   -0.000002  -0.000344   0.000009  -0.000006  -0.000000  -0.000000
    26  H    0.000000   0.000234  -0.000008   0.000005  -0.000001   0.000000
    27  H    0.000000  -0.000615  -0.000060  -0.000008  -0.000000   0.000000
    28  H    0.000000   0.000464   0.000047   0.000016  -0.000000   0.000000
    29  H    0.000000  -0.000012  -0.000014  -0.000001  -0.000000   0.000000
    30  H   -0.000004   0.000399  -0.000008   0.000015   0.000000   0.000000
    31  H   -0.000001  -0.000490   0.000004  -0.000011  -0.000000  -0.000000
    32  H   -0.005670  -0.000155   0.001193  -0.000636  -0.001467  -0.000229
    33  H   -0.003190   0.000080   0.003758   0.000303  -0.005049   0.000080
    34  H    0.009950   0.000080   0.003756   0.000321  -0.005056   0.000078
    35  H   -0.002974  -0.000096   0.000218  -0.000047  -0.000144  -0.000009
    36  H   -0.001791   0.000249   0.000057   0.000235  -0.000003  -0.000005
    37  H    0.010159  -0.000094  -0.000135  -0.000167  -0.000035   0.000037
    38  H    0.390211   0.000251   0.000057   0.000233  -0.000002  -0.000005
    39  H    0.388531  -0.000095  -0.000133  -0.000171  -0.000034   0.000037
    40  H    0.389832  -0.000097   0.000218  -0.000048  -0.000144  -0.000009
    41  H    0.000003   0.342165  -0.099116  -0.002780  -0.000650   0.004160
    42  H   -0.000282  -0.040185   0.047966   0.156197   0.108410  -0.003942
    43  H    0.000011   0.004697   0.025445   0.028278   0.303486  -0.016137
    44  H    0.000000   0.000266   0.039958   0.015589  -0.046842   0.252057
    45  H    0.000000   0.052028  -0.124603  -0.014674  -0.020326   0.058804
              19         20         21         22         23         24
     1  C    0.000112   0.000012  -0.000000   0.000021   0.388878   0.386827
     2  Si  -0.002536  -0.000048  -0.000001  -0.005017  -0.021761  -0.030555
     3  C    0.000178   0.000007   0.000000   0.000844   0.009861  -0.004087
     4  C    0.000107   0.000011  -0.000000   0.000043  -0.001997  -0.002385
     5  C    0.005997  -0.006493   0.000032   0.036498  -0.014799   0.005149
     6  C    0.049538  -0.008564   0.000112   0.164443   0.001151   0.003829
     7  C    0.033371  -0.145819   0.002029   0.199029  -0.002278  -0.000325
     8  C   -0.055070   0.025607  -0.000272  -0.340048   0.001867   0.000211
     9  C   -0.012145  -0.012964   0.000087   0.091597  -0.000618  -0.000008
    10  Si   0.004431   0.000671   0.000001   0.005606   0.000097   0.000004
    11  C    0.000232  -0.000391   0.000002  -0.000041  -0.000000  -0.000000
    12  C   -0.000580  -0.000051   0.000000  -0.001100  -0.000004   0.000000
    13  C   -0.000568  -0.000050   0.000000  -0.001093  -0.000014  -0.000000
    14  C   -0.041469  -0.219098   0.008177  -0.826001   0.000445   0.000016
    15  C   -1.047808  -0.782069   0.025389   1.384055  -0.000009  -0.000014
    16  C   -0.715898   0.263290  -0.001250  -1.766344   0.000016  -0.000001
    17  C    0.762377   0.134000  -0.003032   0.745186   0.000000  -0.000000
    18  C   -0.971974   0.224646   0.017245  -1.794957   0.000000   0.000000
    19  C    8.302066  -2.254553   0.457949   1.136753   0.000000   0.000000
    20  C   -2.254553  10.924565  -0.350668  -1.595854   0.000000  -0.000000
    21  N    0.457949  -0.350668   7.331967   0.041679  -0.000000  -0.000000
    22  C    1.136753  -1.595854   0.041679   7.881014   0.000010   0.000001
    23  H    0.000000   0.000000  -0.000000   0.000010   0.517569  -0.023469
    24  H    0.000000  -0.000000  -0.000000   0.000001  -0.023469   0.526464
    25  H   -0.000000   0.000000  -0.000000  -0.000008  -0.022061  -0.023514
    26  H   -0.000006  -0.000000   0.000000  -0.000056  -0.000017   0.000006
    27  H    0.000001  -0.000000  -0.000000   0.000002   0.000006   0.000333
    28  H   -0.000008  -0.000000   0.000000  -0.000071   0.000003   0.000015
    29  H    0.000000  -0.000000  -0.000000   0.000001   0.000013   0.000295
    30  H    0.000000   0.000000  -0.000000   0.000009   0.000402   0.000014
    31  H   -0.000000   0.000000  -0.000000  -0.000008  -0.000001   0.000005
    32  H   -0.000038  -0.000002   0.000000   0.000033  -0.000000   0.000000
    33  H   -0.000121  -0.000015   0.000000  -0.000021  -0.000000  -0.000000
    34  H   -0.000121  -0.000015   0.000000  -0.000020  -0.000000   0.000000
    35  H   -0.000000  -0.000000   0.000000   0.000009   0.000000  -0.000000
    36  H    0.000002   0.000000  -0.000000   0.000020   0.000000   0.000000
    37  H   -0.000008  -0.000000   0.000000  -0.000035   0.000000  -0.000000
    38  H    0.000002   0.000000  -0.000000   0.000020   0.000000   0.000000
    39  H   -0.000008  -0.000000   0.000000  -0.000035   0.000000  -0.000000
    40  H   -0.000000  -0.000000   0.000000   0.000009   0.000000   0.000000
    41  H    0.026254   0.002058   0.000020   0.044322   0.000000   0.000000
    42  H    0.015219   0.002746  -0.000011   0.024204  -0.000000   0.000000
    43  H   -0.023987  -0.010004   0.000029  -0.002569   0.000000   0.000000
    44  H    0.058598  -0.069035   0.000371   0.053823   0.000000  -0.000000
    45  H    0.026033  -0.017808   0.000007   0.306713  -0.000000  -0.000000
              25         26         27         28         29         30
     1  C    0.387842   0.009935  -0.004564  -0.003244  -0.002509  -0.001914
     2  Si  -0.023270  -0.021895  -0.027679  -0.021525  -0.030224  -0.021067
     3  C   -0.002801   0.388602   0.388921   0.388147  -0.003901   0.009875
     4  C    0.010159  -0.003188  -0.004286   0.010014   0.386241   0.388106
     5  C   -0.008611  -0.009115   0.005747  -0.009785   0.005451  -0.014672
     6  C   -0.001433  -0.002807   0.001641  -0.002399   0.003596   0.000747
     7  C   -0.000272  -0.000199   0.000227  -0.000345  -0.000281  -0.002237
     8  C    0.000074  -0.000068   0.000017   0.000011   0.000164   0.002027
     9  C   -0.000035   0.000012   0.000017  -0.000000   0.000003  -0.000684
    10  Si  -0.000002  -0.000002  -0.000001  -0.000002   0.000002   0.000089
    11  C   -0.000000   0.000000  -0.000000   0.000000  -0.000000  -0.000000
    12  C   -0.000001   0.000000   0.000000   0.000000  -0.000000  -0.000013
    13  C   -0.000002   0.000000   0.000000   0.000000   0.000000  -0.000004
    14  C   -0.000344   0.000234  -0.000615   0.000464  -0.000012   0.000399
    15  C    0.000009  -0.000008  -0.000060   0.000047  -0.000014  -0.000008
    16  C   -0.000006   0.000005  -0.000008   0.000016  -0.000001   0.000015
    17  C   -0.000000  -0.000001  -0.000000  -0.000000  -0.000000   0.000000
    18  C   -0.000000   0.000000   0.000000   0.000000   0.000000   0.000000
    19  C   -0.000000  -0.000006   0.000001  -0.000008   0.000000   0.000000
    20  C    0.000000  -0.000000  -0.000000  -0.000000  -0.000000   0.000000
    21  N   -0.000000   0.000000  -0.000000   0.000000  -0.000000  -0.000000
    22  C   -0.000008  -0.000056   0.000002  -0.000071   0.000001   0.000009
    23  H   -0.022061  -0.000017   0.000006   0.000003   0.000013   0.000402
    24  H   -0.023514   0.000006   0.000333   0.000015   0.000295   0.000014
    25  H    0.517541   0.000001   0.000020   0.000403   0.000005  -0.000001
    26  H    0.000001   0.517327  -0.023543  -0.022198   0.000013   0.000003
    27  H    0.000020  -0.023543   0.524853  -0.023562   0.000331   0.000005
    28  H    0.000403  -0.022198  -0.023562   0.517605   0.000006  -0.000017
    29  H    0.000005   0.000013   0.000331   0.000006   0.526556  -0.023438
    30  H   -0.000001   0.000003   0.000005  -0.000017  -0.023438   0.517696
    31  H   -0.000017   0.000399   0.000017   0.000001  -0.023451  -0.022046
    32  H   -0.000000  -0.000000   0.000000  -0.000000   0.000000  -0.000000
    33  H   -0.000000   0.000000   0.000000   0.000000   0.000000   0.000000
    34  H    0.000000   0.000000   0.000000   0.000000  -0.000000  -0.000000
    35  H    0.000000  -0.000000   0.000000  -0.000000   0.000000  -0.000000
    36  H   -0.000000  -0.000000  -0.000000  -0.000000  -0.000000   0.000000
    37  H    0.000000  -0.000000  -0.000000  -0.000000  -0.000000   0.000000
    38  H   -0.000000  -0.000000  -0.000000  -0.000000  -0.000000   0.000000
    39  H    0.000000  -0.000000  -0.000000  -0.000000  -0.000000   0.000000
    40  H   -0.000000  -0.000000   0.000000  -0.000000  -0.000000   0.000000
    41  H    0.000000  -0.000000  -0.000000  -0.000000   0.000000   0.000000
    42  H   -0.000000  -0.000000   0.000000  -0.000000   0.000000  -0.000000
    43  H    0.000000  -0.000000   0.000000  -0.000000   0.000000   0.000000
    44  H    0.000000  -0.000000  -0.000000  -0.000000  -0.000000   0.000000
    45  H    0.000000  -0.000000  -0.000000  -0.000000   0.000000  -0.000000
              31         32         33         34         35         36
     1  C    0.010074  -0.000000   0.000000   0.000000   0.000000  -0.000003
     2  Si  -0.023451  -0.000001  -0.000001  -0.000002   0.000007   0.000046
     3  C   -0.002618   0.000000   0.000000   0.000000   0.000000  -0.000001
     4  C    0.387700  -0.000000   0.000000   0.000000  -0.000000  -0.000015
     5  C   -0.007772   0.000005   0.000037   0.000037   0.000015  -0.000723
     6  C   -0.002093   0.000212   0.000088   0.000087   0.000350   0.001687
     7  C   -0.000059   0.000379   0.000994   0.000992   0.000213  -0.001787
     8  C   -0.000056   0.004496  -0.003448  -0.003467   0.002258   0.000699
     9  C    0.000003   0.000769  -0.011275  -0.011286   0.007348  -0.014460
    10  Si  -0.000001  -0.023977  -0.017319  -0.017282  -0.033501  -0.022238
    11  C   -0.000000   0.391127   0.385769   0.385774  -0.004329   0.009678
    12  C   -0.000004  -0.005694   0.009951  -0.003202   0.389807   0.390256
    13  C   -0.000001  -0.005670  -0.003190   0.009950  -0.002974  -0.001791
    14  C   -0.000490  -0.000155   0.000080   0.000080  -0.000096   0.000249
    15  C    0.000004   0.001193   0.003758   0.003756   0.000218   0.000057
    16  C   -0.000011  -0.000636   0.000303   0.000321  -0.000047   0.000235
    17  C   -0.000000  -0.001467  -0.005049  -0.005056  -0.000144  -0.000003
    18  C   -0.000000  -0.000229   0.000080   0.000078  -0.000009  -0.000005
    19  C   -0.000000  -0.000038  -0.000121  -0.000121  -0.000000   0.000002
    20  C    0.000000  -0.000002  -0.000015  -0.000015  -0.000000   0.000000
    21  N   -0.000000   0.000000   0.000000   0.000000   0.000000  -0.000000
    22  C   -0.000008   0.000033  -0.000021  -0.000020   0.000009   0.000020
    23  H   -0.000001  -0.000000  -0.000000  -0.000000   0.000000   0.000000
    24  H    0.000005   0.000000  -0.000000   0.000000  -0.000000   0.000000
    25  H   -0.000017  -0.000000  -0.000000   0.000000   0.000000  -0.000000
    26  H    0.000399  -0.000000   0.000000   0.000000  -0.000000  -0.000000
    27  H    0.000017   0.000000   0.000000   0.000000   0.000000  -0.000000
    28  H    0.000001  -0.000000   0.000000   0.000000  -0.000000  -0.000000
    29  H   -0.023451   0.000000   0.000000  -0.000000   0.000000  -0.000000
    30  H   -0.022046  -0.000000   0.000000  -0.000000  -0.000000   0.000000
    31  H    0.517420  -0.000000   0.000000  -0.000000  -0.000000  -0.000000
    32  H   -0.000000   0.520754  -0.023643  -0.023643   0.000348   0.000007
    33  H    0.000000  -0.023643   0.519991  -0.022960   0.000004  -0.000017
    34  H   -0.000000  -0.023643  -0.022960   0.520008   0.000000   0.000003
    35  H   -0.000000   0.000348   0.000004   0.000000   0.524719  -0.023316
    36  H   -0.000000   0.000007  -0.000017   0.000003  -0.023316   0.514002
    37  H    0.000000   0.000018   0.000003   0.000438  -0.023553  -0.021956
    38  H   -0.000000   0.000007   0.000003  -0.000017   0.000009   0.000387
    39  H    0.000000   0.000018   0.000438   0.000003   0.000005  -0.000001
    40  H   -0.000000   0.000348   0.000000   0.000004   0.000304   0.000009
    41  H    0.000000   0.000000   0.000000   0.000000   0.000000  -0.000000
    42  H   -0.000000   0.000006   0.000075   0.000075  -0.000000  -0.000000
    43  H   -0.000000   0.000000   0.000009   0.000009  -0.000000  -0.000000
    44  H    0.000000  -0.000000  -0.000000  -0.000000  -0.000000   0.000000
    45  H    0.000000  -0.000000  -0.000000  -0.000000   0.000000   0.000000
              37         38         39         40         41         42
     1  C   -0.000000  -0.000010  -0.000002  -0.000000  -0.000105  -0.000001
     2  Si  -0.000001   0.000036   0.000001   0.000008   0.002266  -0.000009
     3  C    0.000000  -0.000001   0.000000   0.000000   0.000233  -0.000000
     4  C   -0.000001  -0.000004  -0.000000   0.000000  -0.000077  -0.000001
     5  C    0.000062  -0.000737   0.000061   0.000016   0.005772  -0.001433
     6  C   -0.000105   0.001732  -0.000102   0.000348   0.003706   0.011239
     7  C   -0.000256  -0.001812  -0.000252   0.000215  -0.040711  -0.012588
     8  C   -0.002649   0.000688  -0.002646   0.002255   0.003354   0.000402
     9  C   -0.007075  -0.014536  -0.007062   0.007353  -0.000415  -0.010430
    10  Si  -0.023344  -0.022150  -0.023420  -0.033528   0.000068   0.012563
    11  C   -0.003297   0.009684  -0.003295  -0.004333  -0.000027  -0.004131
    12  C    0.388471  -0.001778   0.010163  -0.002961   0.000004  -0.000283
    13  C    0.010159   0.390211   0.388531   0.389832   0.000003  -0.000282
    14  C   -0.000094   0.000251  -0.000095  -0.000097   0.342165  -0.040185
    15  C   -0.000135   0.000057  -0.000133   0.000218  -0.099116   0.047966
    16  C   -0.000167   0.000233  -0.000171  -0.000048  -0.002780   0.156197
    17  C   -0.000035  -0.000002  -0.000034  -0.000144  -0.000650   0.108410
    18  C    0.000037  -0.000005   0.000037  -0.000009   0.004160  -0.003942
    19  C   -0.000008   0.000002  -0.000008  -0.000000   0.026254   0.015219
    20  C   -0.000000   0.000000  -0.000000  -0.000000   0.002058   0.002746
    21  N    0.000000  -0.000000   0.000000   0.000000   0.000020  -0.000011
    22  C   -0.000035   0.000020  -0.000035   0.000009   0.044322   0.024204
    23  H    0.000000   0.000000   0.000000   0.000000   0.000000  -0.000000
    24  H   -0.000000   0.000000  -0.000000   0.000000   0.000000   0.000000
    25  H    0.000000  -0.000000   0.000000  -0.000000   0.000000  -0.000000
    26  H   -0.000000  -0.000000  -0.000000  -0.000000  -0.000000  -0.000000
    27  H   -0.000000  -0.000000  -0.000000   0.000000  -0.000000   0.000000
    28  H   -0.000000  -0.000000  -0.000000  -0.000000  -0.000000  -0.000000
    29  H   -0.000000  -0.000000  -0.000000  -0.000000   0.000000   0.000000
    30  H    0.000000   0.000000   0.000000   0.000000   0.000000  -0.000000
    31  H    0.000000  -0.000000   0.000000  -0.000000   0.000000  -0.000000
    32  H    0.000018   0.000007   0.000018   0.000348   0.000000   0.000006
    33  H    0.000003   0.000003   0.000438   0.000000   0.000000   0.000075
    34  H    0.000438  -0.000017   0.000003   0.000004   0.000000   0.000075
    35  H   -0.023553   0.000009   0.000005   0.000304   0.000000  -0.000000
    36  H   -0.021956   0.000387  -0.000001   0.000009  -0.000000  -0.000000
    37  H    0.516261  -0.000001  -0.000017   0.000005   0.000000  -0.000000
    38  H   -0.000001   0.514051  -0.021957  -0.023317  -0.000000  -0.000000
    39  H   -0.000017  -0.021957   0.516235  -0.023552   0.000000  -0.000000
    40  H    0.000005  -0.023317  -0.023552   0.524712   0.000000  -0.000000
    41  H    0.000000  -0.000000   0.000000   0.000000   0.572653   0.000017
    42  H   -0.000000  -0.000000  -0.000000  -0.000000   0.000017   0.558695
    43  H    0.000000  -0.000000   0.000000  -0.000000   0.000001  -0.005692
    44  H   -0.000000   0.000000  -0.000000  -0.000000  -0.000000  -0.000131
    45  H   -0.000000   0.000000  -0.000000   0.000000   0.003093  -0.000126
              43         44         45
     1  C   -0.000000   0.000000  -0.000001
     2  Si   0.000001   0.000000   0.000062
     3  C    0.000000  -0.000000   0.000003
     4  C   -0.000000   0.000000  -0.000001
     5  C    0.000017   0.000003   0.001408
     6  C   -0.000035  -0.000039   0.000712
     7  C    0.000707   0.000672   0.023388
     8  C    0.001843   0.000152  -0.001701
     9  C   -0.000479   0.000027   0.000823
    10  Si   0.000192  -0.000067  -0.000037
    11  C    0.000172   0.000016   0.000004
    12  C    0.000011   0.000000   0.000000
    13  C    0.000011   0.000000   0.000000
    14  C    0.004697   0.000266   0.052028
    15  C    0.025445   0.039958  -0.124603
    16  C    0.028278   0.015589  -0.014674
    17  C    0.303486  -0.046842  -0.020326
    18  C   -0.016137   0.252057   0.058804
    19  C   -0.023987   0.058598   0.026033
    20  C   -0.010004  -0.069035  -0.017808
    21  N    0.000029   0.000371   0.000007
    22  C   -0.002569   0.053823   0.306713
    23  H    0.000000   0.000000  -0.000000
    24  H    0.000000  -0.000000  -0.000000
    25  H    0.000000   0.000000   0.000000
    26  H   -0.000000  -0.000000  -0.000000
    27  H    0.000000  -0.000000  -0.000000
    28  H   -0.000000  -0.000000  -0.000000
    29  H    0.000000  -0.000000   0.000000
    30  H    0.000000   0.000000  -0.000000
    31  H   -0.000000   0.000000   0.000000
    32  H    0.000000  -0.000000  -0.000000
    33  H    0.000009  -0.000000  -0.000000
    34  H    0.000009  -0.000000  -0.000000
    35  H   -0.000000  -0.000000   0.000000
    36  H   -0.000000   0.000000   0.000000
    37  H    0.000000  -0.000000  -0.000000
    38  H   -0.000000   0.000000   0.000000
    39  H    0.000000  -0.000000  -0.000000
    40  H   -0.000000  -0.000000   0.000000
    41  H    0.000001  -0.000000   0.003093
    42  H   -0.005692  -0.000131  -0.000126
    43  H    0.559721  -0.004666   0.000017
    44  H   -0.004666   0.548808  -0.000137
    45  H    0.000017  -0.000137   0.560517
 Mulliken charges:
               1
     1  C   -0.674097
     2  Si   1.200926
     3  C   -0.677534
     4  C   -0.674105
     5  C   -0.917809
     6  C    0.366870
     7  C   -0.260873
     8  C    0.357151
     9  C   -0.949955
    10  Si   1.192534
    11  C   -0.707490
    12  C   -0.658776
    13  C   -0.658983
    14  C   -0.019230
    15  C   -0.055367
    16  C    0.153163
    17  C   -0.248048
    18  C   -0.287184
    19  C    0.247682
    20  C   -0.104112
    21  N   -0.529859
    22  C    0.217335
    23  H    0.166709
    24  H    0.161190
    25  H    0.166326
    26  H    0.166568
    27  H    0.162181
    28  H    0.166426
    29  H    0.161153
    30  H    0.166713
    31  H    0.166455
    32  H    0.165436
    33  H    0.165476
    34  H    0.165453
    35  H    0.162353
    36  H    0.168977
    37  H    0.167275
    38  H    0.168955
    39  H    0.167291
    40  H    0.162353
    41  H    0.133733
    42  H    0.141433
    43  H    0.138922
    44  H    0.150577
    45  H    0.145803
 Sum of Mulliken charges =  -0.00000
 Mulliken charges with hydrogens summed into heavy atoms:
               1
     1  C   -0.179873
     2  Si   1.200926
     3  C   -0.182359
     4  C   -0.179784
     5  C   -0.917809
     6  C    0.366870
     7  C   -0.260873
     8  C    0.357151
     9  C   -0.949955
    10  Si   1.192534
    11  C   -0.211124
    12  C   -0.160170
    13  C   -0.160384
    14  C    0.114504
    15  C   -0.055367
    16  C    0.294596
    17  C   -0.109125
    18  C   -0.136607
    19  C    0.247682
    20  C   -0.104112
    21  N   -0.529859
    22  C    0.363139
 Electronic spatial extent (au):  <R**2>=          13285.6406
 Charge=             -0.0000 electrons
 Dipole moment (field-independent basis, Debye):
    X=             -3.3401    Y=              4.4567    Z=              0.0013  Tot=              5.5694
 Quadrupole moment (field-independent basis, Debye-Ang):
   XX=           -161.1448   YY=           -152.2444   ZZ=           -151.9865
   XY=             30.8977   XZ=              0.0077   YZ=             -0.0023
 Traceless Quadrupole moment (field-independent basis, Debye-Ang):
   XX=             -6.0196   YY=              2.8808   ZZ=              3.1388
   XY=             30.8977   XZ=              0.0077   YZ=             -0.0023
 Octapole moment (field-independent basis, Debye-Ang**2):
  XXX=           -218.1314  YYY=            150.4834  ZZZ=             -0.5342  XYY=           -145.3187
  XXY=            168.0900  XXZ=              0.1105  XZZ=             -5.5061  YZZ=              0.9340
  YYZ=              0.4741  XYZ=             -0.1985
 Hexadecapole moment (field-independent basis, Debye-Ang**3):
 XXXX=         -11734.4178 YYYY=          -7508.8371 ZZZZ=           -728.7327 XXXY=           1432.3870
 XXXZ=             -0.6772 YYYX=            654.5412 YYYZ=             -3.2519 ZZZX=              2.5884
 ZZZY=              1.2640 XXYY=          -3896.5308 XXZZ=          -2026.5012 YYZZ=          -1358.6863
 XXYZ=              1.4568 YYXZ=             -1.2761 ZZXY=             32.9554
 N-N= 1.734061576045D+03 E-N=-6.678440168626D+03  KE= 1.361417604675D+03
 Unable to Open any file for archive entry.
 1\1\GINC-N2\SP\RB3LYP TD-FC\6-31+G(d,p)\C19H23N1Si2\HPCMGAC13\25-Aug-2
 025\0\\# td=(50-50,nstates=3) b3lyp/6-31+g(d,p) geom=connectivity\\Tit
 le Card Required\\0,1\C,0,5.213098,-1.562291,-1.597188\Si,0,4.364127,-
 2.107051,-0.000026\C,0,4.271654,-3.991178,0.093445\C,0,5.272497,-1.410
 987,1.502847\C,0,2.641742,-1.438898,0.000558\C,0,1.501729,-0.99663,0.0
 00408\C,0,0.176086,-0.451702,0.000236\C,0,0.113322,0.976746,0.00014\C,
 0,0.143564,2.199645,0.000086\Si,0,0.217256,4.047667,0.000117\C,0,-1.55
 0413,4.715222,-0.001708\C,0,1.134052,4.600247,1.555186\C,0,1.137244,4.
 600334,-1.55303\C,0,-0.893796,-1.307386,0.000212\C,0,-2.33005,-1.05064
 6,-0.000041\C,0,-2.929427,0.228612,-0.000637\C,0,-4.316502,0.367989,-0
 .00089\C,0,-5.15034,-0.749704,-0.000565\C,0,-4.572656,-2.031365,0.0000
 22\C,0,-5.410364,-3.197988,0.000345\N,0,-6.091375,-4.141736,0.000599\C
 ,0,-3.179458,-2.175429,0.00028\H,0,5.247714,-0.470182,-1.673596\H,0,6.
 243088,-1.936634,-1.635035\H,0,4.682898,-1.943003,-2.476751\H,0,3.7603
 87,-4.317668,1.005522\H,0,5.277089,-4.428624,0.095761\H,0,3.727121,-4.
 403724,-0.762817\H,0,6.303955,-1.781574,1.537419\H,0,5.307824,-0.31668
 1,1.471224\H,0,4.777161,-1.703381,2.434951\H,0,-1.547986,5.811643,-0.0
 0178\H,0,-2.100468,4.38269,-0.888898\H,0,-2.102208,4.382802,0.884443\H
 ,0,1.204712,5.693798,1.593737\H,0,2.151203,4.194848,1.578386\H,0,0.618
 228,4.262853,2.460529\H,0,2.154527,4.195143,-1.574021\H,0,0.623462,4.2
 62898,-2.459512\H,0,1.207784,5.693905,-1.591352\H,0,-0.628685,-2.36141
 1,0.000402\H,0,-2.305011,1.111938,-0.000919\H,0,-4.753397,1.361869,-0.
 001357\H,0,-6.229644,-0.642541,-0.000769\H,0,-2.751392,-3.172995,0.000
 733\\Version=ES64L-G16RevC.02\State=1-A\HF=-1371.6450797\RMSD=3.250e-0
 9\PG=C01 [X(C19H23N1Si2)]\\@
 The archive entry for this job was punched.


 ... THIS SEEMS PLAINLY ABSURD; BUT WHOEVER WISHES TO BECOME A 
 PHILOSOPHER MUST LEARN NOT TO BE FRIGHTENED BY ABSURDITIES.

                          -- BERTRAND RUSSELL
 Job cpu time:       0 days  1 hours 57 minutes 22.8 seconds.
 Elapsed time:       0 days  0 hours  7 minutes 33.9 seconds.
 File lengths (MBytes):  RWF=   1453 Int=      0 D2E=      0 Chk=     74 Scr=      2
 Normal termination of Gaussian 16 at Mon Aug 25 14:33:06 2025.
