 Entering Gaussian System, Link 0=g16
 Input=M857E.gjf
 Output=M857E.log
 Initial command:
 /hpc/softwares/Gaussian/g16/l1.exe "/hpc/home/hpcmgac13/pbs.13412.admin1.x8z/Gau-3283986.inp" -scrdir="/hpc/home/hpcmgac13/pbs.13412.admin1.x8z/"
 Default linda workers: n2
 Default is to use  16 SMP processors on each worker.
 Entering Link 1 = /hpc/softwares/Gaussian/g16/l1.exe PID=   3283987.
  
 Copyright (c) 1988-2021, Gaussian, Inc.  All Rights Reserved.
  
 This is part of the Gaussian(R) 16 program.  It is based on
 the Gaussian(R) 09 system (copyright 2009, Gaussian, Inc.),
 the Gaussian(R) 03 system (copyright 2003, Gaussian, Inc.),
 the Gaussian(R) 98 system (copyright 1998, Gaussian, Inc.),
 the Gaussian(R) 94 system (copyright 1995, Gaussian, Inc.),
 the Gaussian 92(TM) system (copyright 1992, Gaussian, Inc.),
 the Gaussian 90(TM) system (copyright 1990, Gaussian, Inc.),
 the Gaussian 88(TM) system (copyright 1988, Gaussian, Inc.),
 the Gaussian 86(TM) system (copyright 1986, Carnegie Mellon
 University), and the Gaussian 82(TM) system (copyright 1983,
 Carnegie Mellon University). Gaussian is a federally registered
 trademark of Gaussian, Inc.
  
 This software contains proprietary and confidential information,
 including trade secrets, belonging to Gaussian, Inc.
  
 This software is provided under written license and may be
 used, copied, transmitted, or stored only in accord with that
 written license.
  
 The following legend is applicable only to US Government
 contracts under FAR:
  
                    RESTRICTED RIGHTS LEGEND
  
 Use, reproduction and disclosure by the US Government is
 subject to restrictions as set forth in subparagraphs (a)
 and (c) of the Commercial Computer Software - Restricted
 Rights clause in FAR 52.227-19.
  
 Gaussian, Inc.
 340 Quinnipiac St., Bldg. 40, Wallingford CT 06492
  
  
 ---------------------------------------------------------------
 Warning -- This program may not be used in any manner that
 competes with the business of Gaussian, Inc. or will provide
 assistance to any competitor of Gaussian, Inc.  The licensee
 of this program is prohibited from giving any competitor of
 Gaussian, Inc. access to this program.  By using this program,
 the user acknowledges that Gaussian, Inc. is engaged in the
 business of creating and licensing software in the field of
 computational chemistry and represents and warrants to the
 licensee that it is not a competitor of Gaussian, Inc. and that
 it will not use this program in any manner prohibited above.
 ---------------------------------------------------------------
  

 Cite this work as:
 Gaussian 16, Revision C.02,
 M. J. Frisch, G. W. Trucks, H. B. Schlegel, G. E. Scuseria, 
 M. A. Robb, J. R. Cheeseman, G. Scalmani, V. Barone, 
 G. A. Petersson, H. Nakatsuji, X. Li, M. Caricato, A. V. Marenich, 
 J. Bloino, B. G. Janesko, R. Gomperts, B. Mennucci, H. P. Hratchian, 
 J. V. Ortiz, A. F. Izmaylov, J. L. Sonnenberg, D. Williams-Young, 
 F. Ding, F. Lipparini, F. Egidi, J. Goings, B. Peng, A. Petrone, 
 T. Henderson, D. Ranasinghe, V. G. Zakrzewski, J. Gao, N. Rega, 
 G. Zheng, W. Liang, M. Hada, M. Ehara, K. Toyota, R. Fukuda, 
 J. Hasegawa, M. Ishida, T. Nakajima, Y. Honda, O. Kitao, H. Nakai, 
 T. Vreven, K. Throssell, J. A. Montgomery, Jr., J. E. Peralta, 
 F. Ogliaro, M. J. Bearpark, J. J. Heyd, E. N. Brothers, K. N. Kudin, 
 V. N. Staroverov, T. A. Keith, R. Kobayashi, J. Normand, 
 K. Raghavachari, A. P. Rendell, J. C. Burant, S. S. Iyengar, 
 J. Tomasi, M. Cossi, J. M. Millam, M. Klene, C. Adamo, R. Cammi, 
 J. W. Ochterski, R. L. Martin, K. Morokuma, O. Farkas, 
 J. B. Foresman, and D. J. Fox, Gaussian, Inc., Wallingford CT, 2019.
 
 ******************************************
 Gaussian 16:  ES64L-G16RevC.02  7-Dec-2021
                25-Aug-2025 
 ******************************************
 SetLPE:    new flags="-opt 'Tsnet.Node.lindarsharg: ssh'  -nodelist 'n2.head.cm.mguif.local' -env GAUSS_MDEF=4294967296 -env GAUSS_EXEDIR="/hpc/softwares/Gaussian/g16/bsd:/hpc/softwares/Gaussian/g16""
 Will use up to    1 processors via Linda.
 ----------------------------------------------------------
 # td=(50-50,nstates=3) b3lyp/6-31+g(d,p) geom=connectivity
 ----------------------------------------------------------
 1/38=1,57=2,172=1/1;
 2/12=2,17=6,18=5,40=1/2;
 3/5=1,6=6,7=111,11=9,25=1,30=1,74=-5/1,2,3,8;
 4//1;
 5/5=2,38=5/2;
 8/6=1,10=2,108=3/1;
 9/41=3,42=1,48=2,70=2/14;
 6/7=2,8=2,9=2,10=2/1;
 99/5=1,9=1/99;
 -------------------
 Title Card Required
 -------------------
 Symbolic Z-matrix:
 Charge =  0 Multiplicity = 1
 C                     4.19622   1.88934  -1.15079 
 C                     3.12127   0.89123  -0.79475 
 C                     3.2318   -0.45531  -1.15887 
 C                     2.24917  -1.37428  -0.79105 
 C                     1.14424  -0.95345  -0.05088 
 S                    -0.02864  -2.23517   0.44433 
 O                     0.35308  -3.4859   -0.23067 
 O                    -0.21092  -2.18274   1.90641 
 C                     0.99517   0.39737   0.32437 
 C                    -0.26363   0.88977   1.05652 
 C                     0.00304   2.08614   1.87061 
 N                     0.18863   3.04948   2.49202 
 C                    -1.38685   1.19049   0.06877 
 N                    -2.3189    0.31646  -0.0716 
 N                    -3.29647   0.44974  -0.9993 
 C                    -4.50155  -0.3027   -0.65952 
 C                    -3.49426   1.73205  -1.66007 
 C                     1.99327   1.29479  -0.06262 
 H                     4.80398   1.53934  -1.98969 
 H                     3.7688    2.86078  -1.41744 
 H                     4.86836   2.05252  -0.29942 
 H                     4.09119  -0.79272  -1.73134 
 H                     2.32942  -2.4201   -1.06773 
 H                    -1.19332  -1.78231  -0.11016 
 H                    -0.61233   0.10725   1.73904 
 H                    -1.30793   2.11375  -0.50616 
 H                    -4.20301  -1.25614  -0.2222 
 H                    -5.13524   0.23257   0.0644 
 H                    -5.07924  -0.48937  -1.56855 
 H                    -2.61307   1.99822  -2.25249 
 H                    -4.34403   1.6442   -2.33868 
 H                    -3.69357   2.54295  -0.93966 
 H                     1.90089   2.33831   0.22675 
 
                          Input orientation:                          
 ---------------------------------------------------------------------
 Center     Atomic      Atomic             Coordinates (Angstroms)
 Number     Number       Type             X           Y           Z
 ---------------------------------------------------------------------
      1          6           0        4.196220    1.889339   -1.150787
      2          6           0        3.121267    0.891234   -0.794752
      3          6           0        3.231796   -0.455306   -1.158870
      4          6           0        2.249165   -1.374279   -0.791049
      5          6           0        1.144235   -0.953447   -0.050882
      6         16           0       -0.028635   -2.235165    0.444328
      7          8           0        0.353078   -3.485904   -0.230673
      8          8           0       -0.210915   -2.182740    1.906414
      9          6           0        0.995165    0.397370    0.324367
     10          6           0       -0.263634    0.889773    1.056524
     11          6           0        0.003041    2.086141    1.870614
     12          7           0        0.188628    3.049481    2.492017
     13          6           0       -1.386845    1.190492    0.068768
     14          7           0       -2.318904    0.316463   -0.071600
     15          7           0       -3.296474    0.449735   -0.999302
     16          6           0       -4.501550   -0.302695   -0.659520
     17          6           0       -3.494264    1.732052   -1.660072
     18          6           0        1.993273    1.294791   -0.062616
     19          1           0        4.803978    1.539338   -1.989691
     20          1           0        3.768798    2.860777   -1.417442
     21          1           0        4.868363    2.052515   -0.299415
     22          1           0        4.091193   -0.792717   -1.731335
     23          1           0        2.329424   -2.420103   -1.067729
     24          1           0       -1.193322   -1.782309   -0.110155
     25          1           0       -0.612332    0.107246    1.739038
     26          1           0       -1.307927    2.113748   -0.506163
     27          1           0       -4.203006   -1.256142   -0.222201
     28          1           0       -5.135237    0.232565    0.064401
     29          1           0       -5.079242   -0.489367   -1.568546
     30          1           0       -2.613071    1.998215   -2.252488
     31          1           0       -4.344031    1.644202   -2.338679
     32          1           0       -3.693570    2.542949   -0.939662
     33          1           0        1.900886    2.338314    0.226751
 ---------------------------------------------------------------------
                    Distance matrix (angstroms):
                    1          2          3          4          5
     1  C    0.000000
     2  C    1.509470   0.000000
     3  C    2.535259   1.399274   0.000000
     4  C    3.817281   2.427576   1.394764   0.000000
     5  C    4.313448   2.804433   2.415304   1.394925   0.000000
     6  S    6.115989   4.607773   4.045807   2.730504   1.806560
     7  O    6.671551   5.209644   4.281716   2.892772   2.659247
     8  O    6.734326   5.277220   4.922627   3.739239   2.679291
     9  C    3.827376   2.452884   2.815949   2.440371   1.409872
    10  C    5.075594   3.858080   4.351464   3.854039   2.570195
    11  C    5.172074   4.272624   5.105055   4.909585   3.772740
    12  N    5.538659   4.905227   5.905369   5.881665   4.837660
    13  C    5.757284   4.599815   5.054462   4.531876   3.319210
    14  N    6.788625   5.518041   5.708595   4.923766   3.688690
    15  N    7.631243   6.436160   6.592638   5.841619   4.752717
    16  C    8.983182   7.716935   7.750954   6.836501   5.715663
    17  C    7.708933   6.724656   7.090530   6.587220   5.596166
    18  C    2.527959   1.404013   2.408018   2.778494   2.403243
    19  H    1.093449   2.163200   2.672195   4.056227   4.833909
    20  H    1.094297   2.164749   3.369219   4.542835   4.827434
    21  H    1.096922   2.155522   3.115474   4.341062   4.792359
    22  H    2.746178   2.157229   1.086336   2.148353   3.396221
    23  H    4.697139   3.415624   2.164026   1.084777   2.142366
    24  H    6.603868   5.121736   4.737342   3.532821   2.480866
    25  H    5.886350   4.579792   4.846819   4.096879   2.722942
    26  H    5.546308   4.603866   5.256914   4.990030   3.953235
    27  H    9.016835   7.654019   7.536244   6.478276   5.358541
    28  H    9.554982   8.327175   8.483914   7.605467   6.391532
    29  H    9.584725   8.351836   8.321199   7.422474   6.422643
    30  H    6.898699   6.019388   6.432592   6.095150   5.260867
    31  H    8.625953   7.660375   7.949405   7.414622   6.488672
    32  H    7.919632   7.013641   7.549720   7.119190   6.034822
    33  H    2.714360   2.151009   3.390513   3.865302   3.388996
                    6          7          8          9         10
     6  S    0.000000
     7  O    1.471625   0.000000
     8  O    1.474337   2.565826   0.000000
     9  C    2.827154   3.974942   3.257985   0.000000
    10  C    3.193000   4.602582   3.188327   1.537234   0.000000
    11  C    4.550712   5.965368   4.274389   2.495423   1.471446
    12  N    5.671659   7.081761   5.280029   3.518935   2.632398
    13  C    3.704174   4.998567   4.017269   2.523558   1.525679
    14  N    3.467322   4.650031   3.821279   3.338621   2.413604
    15  N    4.468951   5.422110   4.989367   4.491437   3.690281
    16  C    4.995987   5.821009   5.341174   5.627788   4.725116
    17  C    5.672556   6.638696   6.231035   5.086683   4.304219
    18  C    4.099475   5.057028   4.563852   1.396904   2.551498
    19  H    6.597384   6.939576   7.360887   4.600653   5.948281
    20  H    6.622334   7.304514   7.233478   4.098208   5.125024
    21  H    6.551179   7.146090   6.971523   4.257966   5.433961
    22  H    4.877207   4.845487   5.802889   3.902257   5.437596
    23  H    2.807305   2.396359   3.918570   3.414137   4.710805
    24  H    1.367123   2.303934   2.278600   3.119180   3.060307
    25  H    2.739318   4.209811   2.330920   2.160905   1.095337
    26  H    4.631745   5.847302   5.048145   2.989978   2.242912
    27  H    4.339138   5.072456   4.618049   5.482136   4.664627
    28  H    5.684313   6.635939   5.785815   6.138124   5.014853
    29  H    5.710351   6.346593   6.216387   6.424005   5.655360
    30  H    5.645674   6.554490   6.367669   4.714049   4.206906
    31  H    6.435624   7.268047   7.053293   6.095360   5.361549
    32  H    6.178798   7.295553   6.523892   5.309003   4.299094
    33  H    4.968612   6.043713   5.265064   2.144090   2.733485
                   11         12         13         14         15
    11  C    0.000000
    12  N    1.161296   0.000000
    13  C    2.445530   3.436581   0.000000
    14  N    3.506477   4.508795   1.285443   0.000000
    15  N    4.669159   5.576193   2.310017   1.354266   0.000000
    16  C    5.692052   6.570163   3.530071   2.343704   1.460757
    17  C    4.982195   5.704310   2.779099   2.430763   1.456048
    18  C    2.885245   3.586339   3.384278   4.421773   5.438099
    19  H    6.184654   6.608154   6.533394   7.477295   8.233191
    20  H    5.058883   5.304441   5.619549   6.733865   7.477034
    21  H    5.327430   5.539490   6.325051   7.397471   8.350048
    22  H    6.162373   6.915866   6.097736   6.713743   7.527097
    23  H    5.861071   6.868126   5.304590   5.485255   6.315962
    24  H    4.507731   5.659265   2.984461   2.381862   3.193094
    25  H    2.076541   3.140901   2.136140   2.496912   3.849730
    26  H    2.714492   3.479132   1.090493   2.107404   2.639402
    27  H    5.765550   6.722486   3.741850   2.458782   2.082235
    28  H    5.753264   6.493988   3.868861   2.820863   2.135340
    29  H    6.655123   7.534061   4.374531   3.241863   2.093851
    30  H    4.883825   5.609368   2.746685   2.769674   2.106016
    31  H    6.067165   6.771664   3.840131   3.317179   2.077994
    32  H    4.665968   5.206194   2.857805   2.756896   2.131381
    33  H    2.523429   2.927288   3.485919   4.688659   5.664140
                   16         17         18         19         20
    16  C    0.000000
    17  C    2.481114   0.000000
    18  C    6.714982   5.732026   0.000000
    19  H    9.578898   8.307022   3.416648   0.000000
    20  H    8.887106   7.354248   2.727701   1.773490   0.000000
    21  H    9.668090   8.478656   2.982677   1.767634   1.764175
    22  H    8.673185   7.994917   3.397585   2.452201   3.681098
    23  H    7.163257   7.176810   3.863119   4.759265   5.484687
    24  H    3.665437   4.477422   4.430033   7.108699   6.920252
    25  H    4.587717   4.743361   3.383105   6.729838   6.061320
    26  H    4.007735   2.501453   3.430065   6.315551   5.211681
    27  H    1.090613   3.391031   6.702731   9.595024   9.051369
    28  H    1.100965   2.813372   7.208336  10.233032   9.401340
    29  H    1.093116   2.730428   7.447920  10.098071   9.462247
    30  H    3.376105   1.094669   5.148665   7.435876   6.493810
    31  H    2.575810   1.091022   6.742698   9.155264   8.255103
    32  H    2.971363   1.102845   5.887894   8.620796   7.484399
    33  H    6.982234   5.747634   1.086834   3.738840   2.542722
                   21         22         23         24         25
    21  H    0.000000
    22  H    3.278679   0.000000
    23  H    5.200080   2.488491   0.000000
    24  H    7.175355   5.615480   3.705869   0.000000
    25  H    6.162579   5.914099   4.787417   2.706932   0.000000
    26  H    6.180053   6.252926   5.839648   3.917808   3.090442
    27  H    9.656237   8.443103   6.688973   3.057385   4.312566
    28  H   10.174310   9.455310   8.002470   4.430449   4.824602
    29  H   10.345371   9.176895   7.672476   4.347295   5.590111
    30  H    7.732354   7.280663   6.734497   4.571394   4.848814
    31  H    9.444232   8.801162   7.916369   5.160839   5.737211
    32  H    8.599834   8.506230   7.805430   5.064304   4.754168
    33  H    3.027285   4.293588   4.949935   5.164026   3.685233
                   26         27         28         29         30
    26  H    0.000000
    27  H    4.451772   0.000000
    28  H    4.302638   1.779731   0.000000
    29  H    4.704007   1.779994   1.786291   0.000000
    30  H    2.183209   4.152204   3.853157   3.569011   0.000000
    31  H    3.577222   3.593238   2.897157   2.384482   1.768891
    32  H    2.462403   3.899663   2.902485   3.392716   1.785420
    33  H    3.299102   7.097828   7.346262   7.742161   5.161211
                   31         32         33
    31  H    0.000000
    32  H    1.785524   0.000000
    33  H    6.786915   5.718420   0.000000
 Stoichiometry    C12H15N3O2S
 Framework group  C1[X(C12H15N3O2S)]
 Deg. of freedom    93
 Full point group                 C1      NOp   1
 Largest Abelian subgroup         C1      NOp   1
 Largest concise Abelian subgroup C1      NOp   1
                         Standard orientation:                         
 ---------------------------------------------------------------------
 Center     Atomic      Atomic             Coordinates (Angstroms)
 Number     Number       Type             X           Y           Z
 ---------------------------------------------------------------------
      1          6           0       -4.196220   -1.889339   -1.150787
      2          6           0       -3.121267   -0.891234   -0.794752
      3          6           0       -3.231796    0.455306   -1.158870
      4          6           0       -2.249165    1.374279   -0.791049
      5          6           0       -1.144235    0.953447   -0.050882
      6         16           0        0.028635    2.235165    0.444328
      7          8           0       -0.353078    3.485904   -0.230673
      8          8           0        0.210915    2.182740    1.906414
      9          6           0       -0.995165   -0.397370    0.324367
     10          6           0        0.263634   -0.889773    1.056524
     11          6           0       -0.003041   -2.086141    1.870614
     12          7           0       -0.188628   -3.049481    2.492017
     13          6           0        1.386845   -1.190492    0.068768
     14          7           0        2.318904   -0.316463   -0.071600
     15          7           0        3.296474   -0.449735   -0.999302
     16          6           0        4.501550    0.302695   -0.659520
     17          6           0        3.494264   -1.732052   -1.660072
     18          6           0       -1.993273   -1.294791   -0.062616
     19          1           0       -4.803978   -1.539338   -1.989691
     20          1           0       -3.768798   -2.860777   -1.417442
     21          1           0       -4.868363   -2.052515   -0.299415
     22          1           0       -4.091193    0.792717   -1.731335
     23          1           0       -2.329424    2.420103   -1.067729
     24          1           0        1.193322    1.782309   -0.110155
     25          1           0        0.612332   -0.107246    1.739038
     26          1           0        1.307927   -2.113748   -0.506163
     27          1           0        4.203006    1.256142   -0.222201
     28          1           0        5.135237   -0.232565    0.064401
     29          1           0        5.079242    0.489367   -1.568546
     30          1           0        2.613071   -1.998215   -2.252488
     31          1           0        4.344031   -1.644202   -2.338679
     32          1           0        3.693570   -2.542949   -0.939662
     33          1           0       -1.900886   -2.338314    0.226751
 ---------------------------------------------------------------------
 Rotational constants (GHZ):           0.4297785           0.2855280           0.2220987
 Standard basis: 6-31+G(d,p) (6D, 7F)
 There are   421 symmetry adapted cartesian basis functions of A   symmetry.
 There are   421 symmetry adapted basis functions of A   symmetry.
   421 basis functions,   705 primitive gaussians,   421 cartesian basis functions
    70 alpha electrons       70 beta electrons
       nuclear repulsion energy      1449.7241740226 Hartrees.
 NAtoms=   33 NActive=   33 NUniq=   33 SFac= 1.00D+00 NAtFMM=   60 NAOKFM=F Big=F
 Integral buffers will be    131072 words long.
 Regular integral format.
 Two-electron integral symmetry is turned on.
 One-electron integrals computed using PRISM.
 NBasis=   421 RedAO= T EigKep=  1.04D-06  NBF=   421
 NBsUse=   420 1.00D-06 EigRej=  7.49D-07 NBFU=   420
 ExpMin= 4.05D-02 ExpMax= 2.19D+04 ExpMxC= 3.30D+03 IAcc=3 IRadAn=         5 AccDes= 0.00D+00
 Harris functional with IExCor=  402 and IRadAn=       5 diagonalized for initial guess.
 HarFok:  IExCor=  402 AccDes= 0.00D+00 IRadAn=         5 IDoV= 1 UseB2=F ITyADJ=14
 ICtDFT=  3500011 ScaDFX=  1.000000  1.000000  1.000000  1.000000
 FoFCou: FMM=F IPFlag=           0 FMFlag=      100000 FMFlg1=           0
         NFxFlg=           0 DoJE=T BraDBF=F KetDBF=T FulRan=T
         wScrn=  0.000000 ICntrl=       500 IOpCl=  0 I1Cent=   200000004 NGrid=           0
         NMat0=    1 NMatS0=      1 NMatT0=    0 NMatD0=    1 NMtDS0=    0 NMtDT0=    0
 Petite list used in FoFCou.
 Requested convergence on RMS density matrix=1.00D-08 within 128 cycles.
 Requested convergence on MAX density matrix=1.00D-06.
 Requested convergence on             energy=1.00D-06.
 No special actions if energy rises.
 SCF Done:  E(RB3LYP) =  -1179.11107529     A.U. after   17 cycles
            NFock= 17  Conv=0.34D-08     -V/T= 2.0077
 DoSCS=F DFT=T ScalE2(SS,OS)=  1.000000  1.000000
 ExpMin= 4.05D-02 ExpMax= 2.19D+04 ExpMxC= 3.30D+03 IAcc=3 IRadAn=         5 AccDes= 0.00D+00
 HarFok:  IExCor=  205 AccDes= 0.00D+00 IRadAn=         5 IDoV=-2 UseB2=F ITyADJ=14
 ICtDFT= 12500011 ScaDFX=  1.000000  1.000000  1.000000  1.000000
 GSVD:  LWork=        -660 too small for GESVD, short by        2750 words or        2750 for optimal perf.
 Range of M.O.s used for correlation:    23   420
 NBasis=   421 NAE=    70 NBE=    70 NFC=    22 NFV=     0
 NROrb=    398 NOA=    48 NOB=    48 NVA=   350 NVB=   350

 **** Warning!!: The largest alpha MO coefficient is  0.23282819D+03

 Orbital symmetries:
       Occupied  (A) (A) (A) (A) (A) (A) (A) (A) (A) (A) (A) (A)
                 (A) (A) (A) (A) (A) (A) (A) (A) (A) (A) (A) (A)
                 (A) (A) (A) (A) (A) (A) (A) (A) (A) (A) (A) (A)
                 (A) (A) (A) (A) (A) (A) (A) (A) (A) (A) (A) (A)
                 (A) (A) (A) (A) (A) (A) (A) (A) (A) (A) (A) (A)
                 (A) (A) (A) (A) (A) (A) (A) (A) (A) (A)
       Virtual   (A) (A) (A) (A) (A) (A) (A) (A) (A) (A) (A) (A)
                 (A) (A) (A) (A) (A) (A) (A) (A) (A) (A) (A) (A)
                 (A) (A) (A) (A) (A) (A) (A) (A) (A) (A) (A) (A)
                 (A) (A) (A) (A) (A) (A) (A) (A) (A) (A) (A) (A)
                 (A) (A) (A) (A) (A) (A) (A) (A) (A) (A) (A) (A)
                 (A) (A) (A) (A) (A) (A) (A) (A) (A) (A) (A) (A)
                 (A) (A) (A) (A) (A) (A) (A) (A) (A) (A) (A) (A)
                 (A) (A) (A) (A) (A) (A) (A) (A) (A) (A) (A) (A)
                 (A) (A) (A) (A) (A) (A) (A) (A) (A) (A) (A) (A)
                 (A) (A) (A) (A) (A) (A) (A) (A) (A) (A) (A) (A)
                 (A) (A) (A) (A) (A) (A) (A) (A) (A) (A) (A) (A)
                 (A) (A) (A) (A) (A) (A) (A) (A) (A) (A) (A) (A)
                 (A) (A) (A) (A) (A) (A) (A) (A) (A) (A) (A) (A)
                 (A) (A) (A) (A) (A) (A) (A) (A) (A) (A) (A) (A)
                 (A) (A) (A) (A) (A) (A) (A) (A) (A) (A) (A) (A)
                 (A) (A) (A) (A) (A) (A) (A) (A) (A) (A) (A) (A)
                 (A) (A) (A) (A) (A) (A) (A) (A) (A) (A) (A) (A)
                 (A) (A) (A) (A) (A) (A) (A) (A) (A) (A) (A) (A)
                 (A) (A) (A) (A) (A) (A) (A) (A) (A) (A) (A) (A)
                 (A) (A) (A) (A) (A) (A) (A) (A) (A) (A) (A) (A)
                 (A) (A) (A) (A) (A) (A) (A) (A) (A) (A) (A) (A)
                 (A) (A) (A) (A) (A) (A) (A) (A) (A) (A) (A) (A)
                 (A) (A) (A) (A) (A) (A) (A) (A) (A) (A) (A) (A)
                 (A) (A) (A) (A) (A) (A) (A) (A) (A) (A) (A) (A)
                 (A) (A) (A) (A) (A) (A) (A) (A) (A) (A) (A) (A)
                 (A) (A) (A) (A) (A) (A) (A) (A) (A) (A) (A) (A)
                 (A) (A) (A) (A) (A) (A) (A) (A) (A) (A) (A) (A)
                 (A) (A) (A) (A) (A) (A) (A) (A) (A) (A) (A) (A)
                 (A) (A) (A) (A) (A) (A) (A) (A) (A) (A) (A) (A)
                 (A) (A)
    24 initial guesses have been made.
 Convergence on wavefunction:    0.001000000000000
 Iteration     1 Dimension    24 NMult     0 NNew     24
 CISAX will form    24 AO SS matrices at one time.
 New state      1 was old state      6
 New state      2 was old state      8
 New state      3 was old state      1
 New state      4 was old state      2
 New state      5 was old state     10
 New state      6 was old state     16
 New state      7 was old state      3
 New state      8 was old state     14
 New state      9 was old state      4
 New state     10 was old state      9
 New state     11 was old state     12
 New state     12 was old state     11
 Vector   5 SDiff=4.71D+00 TDiff=8.28D+00 assumed to be singlet.
 Vector   6 SDiff=7.57D+00 TDiff=8.78D-02 assumed to be triplet.
 Vector  11 SDiff=4.76D+00 TDiff=7.58D+00 assumed to be singlet.
 Vector  12 SDiff=7.22D+00 TDiff=3.29D-01 assumed to be triplet.
 Iteration     2 Dimension    36 NMult    24 NNew     12
 New state      3 was old state      4
 New state      4 was old state      3
 New state      5 was old state      7
 New state      6 was old state     10
 Iteration     3 Dimension    48 NMult    36 NNew     12
 Iteration     4 Dimension    60 NMult    48 NNew     12
 Iteration     5 Dimension    72 NMult    60 NNew     12
 Iteration     6 Dimension    80 NMult    72 NNew      8
 Iteration     7 Dimension    82 NMult    80 NNew      2
 Iteration     8 Dimension    84 NMult    82 NNew      2
 ***********************************************************************
 Excited states from <AA,BB:AA,BB> singles matrix:
 ***********************************************************************
 
 Ground to excited state transition densities written to RWF  633
 Ground to excited state transition electric dipole moments (Au):
       state          X           Y           Z        Dip. S.      Osc.
         1         0.0000     -0.0000      0.0000      0.0000      0.0000
         2         0.0000      0.0000     -0.0000      0.0000      0.0000
         3        -0.0000      0.0000     -0.0000      0.0000      0.0000
         4         0.6317     -0.2144     -0.0804      0.4515      0.0475
         5         0.8092     -0.0089     -0.1462      0.6762      0.0785
         6        -0.7134      0.0116     -0.0198      0.5094      0.0634
 Ground to excited state transition velocity dipole moments (Au):
       state          X           Y           Z        Dip. S.      Osc.
         1        -0.0000     -0.0000      0.0000      0.0000      0.0000
         2        -0.0000     -0.0000      0.0000      0.0000      0.0000
         3        -0.0000      0.0000     -0.0000      0.0000      0.0000
         4        -0.0998      0.0345      0.0135      0.0113      0.0478
         5        -0.1369      0.0011      0.0244      0.0193      0.0741
         6         0.1287     -0.0024      0.0032      0.0166      0.0592
 Ground to excited state transition magnetic dipole moments (Au):
       state          X           Y           Z
         1         0.0000     -0.0000     -0.0000
         2         0.0000      0.0000     -0.0000
         3        -0.0000      0.0000      0.0000
         4         0.0217     -0.2026     -0.4895
         5        -0.0087     -0.1973     -0.0664
         6        -0.1422      0.2879      0.4882
 Ground to excited state transition velocity quadrupole moments (Au):
       state          XX          YY          ZZ          XY          XZ          YZ
         1         0.0000     -0.0000      0.0000      0.0000      0.0000     -0.0000
         2        -0.0000     -0.0000      0.0000     -0.0000     -0.0000      0.0000
         3         0.0000      0.0000     -0.0000      0.0000      0.0000      0.0000
         4        -0.4306      0.0929     -0.0089      0.0256      0.1958     -0.0366
         5        -0.5350      0.0667      0.0031      0.1751      0.2212     -0.0874
         6         0.2644      0.0062     -0.0073     -0.0206     -0.2508      0.1083
 <0|del|b> * <b|rxdel|0> + <0|del|b> * <b|delr+rdel|0>
 Rotatory Strengths (R) in cgs (10**-40 erg-esu-cm/Gauss)
       state          XX          YY          ZZ    R(velocity)    E-M Angle
         1         0.0000     -0.0000     -0.0000     -0.0000       90.00
         2        -0.0000     -0.0000      0.0000     -0.0000       90.00
         3        -0.0000     -0.0000      0.0000     -0.0000       90.00
         4       -44.8566    -12.2977    -13.5493    -23.5678      106.25
         5         4.4343     14.7568    -21.8510     -0.8866       91.30
         6         0.4280     -5.1596    -61.1999    -21.9772      103.38
 1/2[<0|r|b>*<b|rxdel|0> + (<0|rxdel|b>*<b|r|0>)*]
 Rotatory Strengths (R) in cgs (10**-40 erg-esu-cm/Gauss)
       state          XX          YY          ZZ     R(length)
         1        -0.0000     -0.0000      0.0000     -0.0000
         2        -0.0000     -0.0000     -0.0000     -0.0000
         3        -0.0000     -0.0000      0.0000     -0.0000
         4        -9.6982    -30.7245    -27.8458    -22.7561
         5         4.9575     -1.2404     -6.8689     -1.0506
         6       -71.7492     -2.3673      6.8469    -22.4232
  1/2[<0|del|b>*<b|r|0> + (<0|r|b>*<b|del|0>)*] (Au)
       state          X           Y           Z        Dip. S.   Osc.(frdel)
         1        -0.0000      0.0000      0.0000      0.0000      0.0000
         2        -0.0000     -0.0000     -0.0000      0.0000      0.0000
         3         0.0000      0.0000      0.0000     -0.0000     -0.0000
         4        -0.0630     -0.0074     -0.0011      0.0715      0.0477
         5        -0.1108     -0.0000     -0.0036      0.1144      0.0762
         6        -0.0918     -0.0000     -0.0001      0.0919      0.0613

 Excitation energies and oscillator strengths:
 
 Excited State   1:      Triplet-A      3.2048 eV  386.87 nm  f=0.0000  <S**2>=2.000
      70 -> 71         0.34915
      70 -> 72         0.37576
      70 -> 73         0.43971
 This state for optimization and/or second-order correction.
 Total Energy, E(TD-HF/TD-DFT) =  -1178.99330153    
 Copying the excited state density for this state as the 1-particle RhoCI density.
 
 Excited State   2:      Triplet-A      3.5797 eV  346.36 nm  f=0.0000  <S**2>=2.000
      68 -> 72        -0.32138
      68 -> 73         0.14580
      69 -> 71         0.52722
      69 -> 72        -0.10120
      70 -> 71         0.12802
      70 -> 73        -0.17727
 
 Excited State   3:      Triplet-A      4.2348 eV  292.77 nm  f=0.0000  <S**2>=2.000
      68 -> 71        -0.28866
      68 -> 72         0.22440
      69 -> 72         0.11412
      70 -> 71         0.50541
      70 -> 72        -0.22236
      70 -> 73        -0.16656
 
 Excited State   4:      Singlet-A      4.2985 eV  288.44 nm  f=0.0475  <S**2>=0.000
      70 -> 71         0.69801
 
 Excited State   5:      Singlet-A      4.7378 eV  261.69 nm  f=0.0785  <S**2>=0.000
      68 -> 71         0.10388
      70 -> 72         0.66633
      70 -> 73        -0.17241
 
 Excited State   6:      Singlet-A      5.0832 eV  243.91 nm  f=0.0634  <S**2>=0.000
      68 -> 71         0.53917
      69 -> 72         0.36874
      69 -> 73        -0.11869
      70 -> 72        -0.16275
      70 -> 73        -0.14115
 SavETr:  write IOETrn=   770 NScale= 10 NData=  16 NLR=1 NState=    6 LETran=     118.

 **********************************************************************

            Population analysis using the SCF Density.

 **********************************************************************

 Orbital symmetries:
       Occupied  (A) (A) (A) (A) (A) (A) (A) (A) (A) (A) (A) (A)
                 (A) (A) (A) (A) (A) (A) (A) (A) (A) (A) (A) (A)
                 (A) (A) (A) (A) (A) (A) (A) (A) (A) (A) (A) (A)
                 (A) (A) (A) (A) (A) (A) (A) (A) (A) (A) (A) (A)
                 (A) (A) (A) (A) (A) (A) (A) (A) (A) (A) (A) (A)
                 (A) (A) (A) (A) (A) (A) (A) (A) (A) (A)
       Virtual   (A) (A) (A) (A) (A) (A) (A) (A) (A) (A) (A) (A)
                 (A) (A) (A) (A) (A) (A) (A) (A) (A) (A) (A) (A)
                 (A) (A) (A) (A) (A) (A) (A) (A) (A) (A) (A) (A)
                 (A) (A) (A) (A) (A) (A) (A) (A) (A) (A) (A) (A)
                 (A) (A) (A) (A) (A) (A) (A) (A) (A) (A) (A) (A)
                 (A) (A) (A) (A) (A) (A) (A) (A) (A) (A) (A) (A)
                 (A) (A) (A) (A) (A) (A) (A) (A) (A) (A) (A) (A)
                 (A) (A) (A) (A) (A) (A) (A) (A) (A) (A) (A) (A)
                 (A) (A) (A) (A) (A) (A) (A) (A) (A) (A) (A) (A)
                 (A) (A) (A) (A) (A) (A) (A) (A) (A) (A) (A) (A)
                 (A) (A) (A) (A) (A) (A) (A) (A) (A) (A) (A) (A)
                 (A) (A) (A) (A) (A) (A) (A) (A) (A) (A) (A) (A)
                 (A) (A) (A) (A) (A) (A) (A) (A) (A) (A) (A) (A)
                 (A) (A) (A) (A) (A) (A) (A) (A) (A) (A) (A) (A)
                 (A) (A) (A) (A) (A) (A) (A) (A) (A) (A) (A) (A)
                 (A) (A) (A) (A) (A) (A) (A) (A) (A) (A) (A) (A)
                 (A) (A) (A) (A) (A) (A) (A) (A) (A) (A) (A) (A)
                 (A) (A) (A) (A) (A) (A) (A) (A) (A) (A) (A) (A)
                 (A) (A) (A) (A) (A) (A) (A) (A) (A) (A) (A) (A)
                 (A) (A) (A) (A) (A) (A) (A) (A) (A) (A) (A) (A)
                 (A) (A) (A) (A) (A) (A) (A) (A) (A) (A) (A) (A)
                 (A) (A) (A) (A) (A) (A) (A) (A) (A) (A) (A) (A)
                 (A) (A) (A) (A) (A) (A) (A) (A) (A) (A) (A) (A)
                 (A) (A) (A) (A) (A) (A) (A) (A) (A) (A) (A) (A)
                 (A) (A) (A) (A) (A) (A) (A) (A) (A) (A) (A) (A)
                 (A) (A) (A) (A) (A) (A) (A) (A) (A) (A) (A) (A)
                 (A) (A) (A) (A) (A) (A) (A) (A) (A) (A) (A) (A)
                 (A) (A) (A) (A) (A) (A) (A) (A) (A) (A) (A) (A)
                 (A) (A) (A) (A) (A) (A) (A) (A) (A) (A) (A) (A)
                 (A) (A)
 The electronic state is 1-A.
 Alpha  occ. eigenvalues --  -89.11059 -19.16086 -19.15926 -14.41072 -14.40194
 Alpha  occ. eigenvalues --  -14.35467 -10.26575 -10.25366 -10.25160 -10.24686
 Alpha  occ. eigenvalues --  -10.24655 -10.24385 -10.23656 -10.23623 -10.22907
 Alpha  occ. eigenvalues --  -10.22250 -10.22109 -10.20868  -8.13958  -6.10395
 Alpha  occ. eigenvalues --   -6.10326  -6.10272  -1.11301  -1.04312  -1.01239
 Alpha  occ. eigenvalues --   -0.92692  -0.90251  -0.88136  -0.82862  -0.80882
 Alpha  occ. eigenvalues --   -0.76134  -0.75218  -0.73967  -0.69227  -0.68178
 Alpha  occ. eigenvalues --   -0.64300  -0.61010  -0.59037  -0.56449  -0.55850
 Alpha  occ. eigenvalues --   -0.53639  -0.51220  -0.50470  -0.49995  -0.49412
 Alpha  occ. eigenvalues --   -0.47416  -0.46510  -0.46070  -0.45693  -0.45202
 Alpha  occ. eigenvalues --   -0.44329  -0.43199  -0.42787  -0.41215  -0.40827
 Alpha  occ. eigenvalues --   -0.39616  -0.38754  -0.38501  -0.38002  -0.37070
 Alpha  occ. eigenvalues --   -0.34905  -0.34709  -0.33987  -0.33418  -0.31973
 Alpha  occ. eigenvalues --   -0.31523  -0.30052  -0.28407  -0.27979  -0.24315
 Alpha virt. eigenvalues --   -0.06300  -0.04850  -0.03361  -0.01366  -0.00449
 Alpha virt. eigenvalues --    0.00037   0.00935   0.01362   0.01611   0.01903
 Alpha virt. eigenvalues --    0.02505   0.02852   0.03126   0.03271   0.03789
 Alpha virt. eigenvalues --    0.04279   0.04768   0.05075   0.05474   0.05721
 Alpha virt. eigenvalues --    0.06287   0.06954   0.07110   0.07527   0.08105
 Alpha virt. eigenvalues --    0.08285   0.08755   0.08917   0.09299   0.09609
 Alpha virt. eigenvalues --    0.10216   0.10484   0.11066   0.11804   0.11833
 Alpha virt. eigenvalues --    0.12181   0.12735   0.13104   0.13368   0.14061
 Alpha virt. eigenvalues --    0.14398   0.14652   0.14896   0.15863   0.16109
 Alpha virt. eigenvalues --    0.16470   0.16704   0.17263   0.17738   0.18128
 Alpha virt. eigenvalues --    0.18870   0.19103   0.19516   0.19718   0.20072
 Alpha virt. eigenvalues --    0.20399   0.20830   0.21192   0.21823   0.21972
 Alpha virt. eigenvalues --    0.22241   0.22629   0.23014   0.23764   0.24040
 Alpha virt. eigenvalues --    0.24530   0.24802   0.24914   0.25177   0.25954
 Alpha virt. eigenvalues --    0.26192   0.26475   0.26713   0.27204   0.27478
 Alpha virt. eigenvalues --    0.28456   0.28808   0.28960   0.29312   0.29515
 Alpha virt. eigenvalues --    0.29944   0.30240   0.30519   0.30626   0.31754
 Alpha virt. eigenvalues --    0.31972   0.32283   0.32797   0.33031   0.33472
 Alpha virt. eigenvalues --    0.33761   0.34379   0.35475   0.35873   0.36467
 Alpha virt. eigenvalues --    0.36893   0.36956   0.38162   0.38539   0.39605
 Alpha virt. eigenvalues --    0.40451   0.41591   0.42692   0.43616   0.44339
 Alpha virt. eigenvalues --    0.46013   0.46694   0.51720   0.53006   0.58317
 Alpha virt. eigenvalues --    0.60542   0.61111   0.61922   0.62564   0.64479
 Alpha virt. eigenvalues --    0.65324   0.65905   0.66370   0.66969   0.67444
 Alpha virt. eigenvalues --    0.68537   0.69370   0.69762   0.70890   0.71291
 Alpha virt. eigenvalues --    0.72097   0.73231   0.74859   0.75118   0.75682
 Alpha virt. eigenvalues --    0.76176   0.76257   0.76974   0.77924   0.78085
 Alpha virt. eigenvalues --    0.79998   0.82891   0.83202   0.84915   0.85087
 Alpha virt. eigenvalues --    0.86525   0.87231   0.88273   0.89072   0.90358
 Alpha virt. eigenvalues --    0.90611   0.91458   0.92806   0.93308   0.93682
 Alpha virt. eigenvalues --    0.94893   0.95890   0.96304   0.96827   0.98311
 Alpha virt. eigenvalues --    0.99257   0.99883   1.00666   1.01057   1.02181
 Alpha virt. eigenvalues --    1.03525   1.03691   1.04461   1.04916   1.07225
 Alpha virt. eigenvalues --    1.07765   1.09077   1.09681   1.09970   1.10262
 Alpha virt. eigenvalues --    1.11460   1.12380   1.13904   1.15754   1.16508
 Alpha virt. eigenvalues --    1.18806   1.20240   1.20748   1.22003   1.24149
 Alpha virt. eigenvalues --    1.24600   1.25662   1.26208   1.27438   1.29229
 Alpha virt. eigenvalues --    1.30262   1.30412   1.31477   1.32682   1.33225
 Alpha virt. eigenvalues --    1.34126   1.34838   1.35358   1.37044   1.38091
 Alpha virt. eigenvalues --    1.38993   1.42100   1.42134   1.44035   1.45047
 Alpha virt. eigenvalues --    1.46361   1.48213   1.49266   1.50850   1.51671
 Alpha virt. eigenvalues --    1.54487   1.55014   1.57512   1.59913   1.62833
 Alpha virt. eigenvalues --    1.65608   1.67115   1.67781   1.71026   1.72699
 Alpha virt. eigenvalues --    1.74690   1.76314   1.78065   1.78810   1.80362
 Alpha virt. eigenvalues --    1.81181   1.81647   1.83009   1.83491   1.83884
 Alpha virt. eigenvalues --    1.84607   1.85633   1.86871   1.87971   1.88972
 Alpha virt. eigenvalues --    1.89936   1.90691   1.91378   1.92876   1.94046
 Alpha virt. eigenvalues --    1.95538   1.96647   1.97633   1.98723   1.98952
 Alpha virt. eigenvalues --    2.00366   2.00598   2.01390   2.03328   2.03592
 Alpha virt. eigenvalues --    2.04469   2.05021   2.05729   2.06549   2.07436
 Alpha virt. eigenvalues --    2.07989   2.10076   2.10920   2.12176   2.13255
 Alpha virt. eigenvalues --    2.14149   2.15399   2.17765   2.18886   2.20862
 Alpha virt. eigenvalues --    2.22347   2.24445   2.24545   2.25567   2.26010
 Alpha virt. eigenvalues --    2.27445   2.29616   2.31818   2.34657   2.35890
 Alpha virt. eigenvalues --    2.38065   2.39389   2.39787   2.42368   2.43609
 Alpha virt. eigenvalues --    2.44789   2.46403   2.47854   2.49546   2.52155
 Alpha virt. eigenvalues --    2.53562   2.54211   2.55483   2.57951   2.58939
 Alpha virt. eigenvalues --    2.60352   2.61268   2.63885   2.64946   2.65481
 Alpha virt. eigenvalues --    2.66148   2.67556   2.69734   2.71056   2.72967
 Alpha virt. eigenvalues --    2.74245   2.75716   2.77287   2.79628   2.80258
 Alpha virt. eigenvalues --    2.83835   2.83982   2.84527   2.85775   2.87371
 Alpha virt. eigenvalues --    2.88239   2.89365   2.91506   2.92950   2.95958
 Alpha virt. eigenvalues --    2.98919   3.02973   3.05017   3.08035   3.11370
 Alpha virt. eigenvalues --    3.18467   3.22307   3.22729   3.23927   3.24364
 Alpha virt. eigenvalues --    3.28544   3.30872   3.40533   3.41286   3.42665
 Alpha virt. eigenvalues --    3.44596   3.45600   3.46857   3.47096   3.48385
 Alpha virt. eigenvalues --    3.55229   3.72771   4.00654   4.09895   4.20270
 Alpha virt. eigenvalues --    4.22130   4.27677   4.29221   4.31131   4.34041
 Alpha virt. eigenvalues --    4.36820   4.43045   4.45280   4.49007   4.50778
 Alpha virt. eigenvalues --    4.53190   4.55959   4.61039   4.78340   4.89452
          Condensed to atoms (all electrons):
               1          2          3          4          5          6
     1  C    8.347706  -1.088893  -1.119403   1.091216  -1.354943  -0.210118
     2  C   -1.088893  11.627326  -1.002043   0.420898  -1.452944  -0.423156
     3  C   -1.119403  -1.002043  12.430976  -5.147630  -0.351825   0.442681
     4  C    1.091216   0.420898  -5.147630  21.199902  -6.230743   0.447491
     5  C   -1.354943  -1.452944  -0.351825  -6.230743  34.976955  -0.537116
     6  S   -0.210118  -0.423156   0.442681   0.447491  -0.537116  16.025164
     7  O   -0.009347  -0.076180   0.214042  -0.465444   0.456999   0.114305
     8  O   -0.010322  -0.056647   0.077821  -0.284577   0.032202   0.358305
     9  C   -0.821467  -1.569078   3.748980 -10.948237  -5.421290  -0.491546
    10  C   -0.163881  -0.323631   0.706079  -0.446984  -4.988789  -0.917246
    11  C    0.348246  -0.014038  -0.827307   1.560502  -0.476096  -0.442080
    12  N    0.000708   0.035453   0.017196  -0.033906   0.032532  -0.000258
    13  C    0.004762   0.434379   0.411418  -0.917514  -1.368567  -0.153894
    14  N   -0.011388  -0.061260   0.030267  -0.144939   0.369898   0.060189
    15  N    0.001121   0.047996  -0.004971  -0.037257  -0.278180   0.036324
    16  C    0.000209   0.002190  -0.000120  -0.001810  -0.007298  -0.008943
    17  C    0.000566  -0.000710  -0.000691  -0.003154   0.017551  -0.001918
    18  C    0.078100  -0.238776  -3.547540   5.121063  -6.257821  -0.301415
    19  H    0.494040  -0.102862  -0.031901   0.016320  -0.026272  -0.000384
    20  H    0.488208  -0.092847   0.036786  -0.009503  -0.009251  -0.000475
    21  H    0.463848  -0.152365  -0.009416  -0.004261   0.007356   0.000176
    22  H   -0.063841   0.047032   0.214526   0.014511   0.045328   0.002581
    23  H    0.002787   0.011577  -0.005861   0.322210  -0.092048   0.002852
    24  H    0.000723   0.009253  -0.001674   0.172465  -0.222128   0.392275
    25  H   -0.002084  -0.013798   0.009940   0.002758   0.173205   0.055095
    26  H   -0.001828  -0.007974   0.003807  -0.003215   0.026338  -0.000432
    27  H    0.000004   0.000042  -0.000013   0.000927   0.007223  -0.004166
    28  H   -0.000002  -0.000108   0.000016   0.000147   0.000203   0.001433
    29  H    0.000001   0.000053  -0.000011  -0.000144  -0.000489  -0.000157
    30  H    0.000162   0.002761   0.000115  -0.001702  -0.008203  -0.001205
    31  H    0.000001   0.000015   0.000007  -0.000001  -0.000023  -0.000095
    32  H   -0.000043  -0.001007  -0.000017   0.000546   0.002892   0.000881
    33  H    0.017533   0.030052   0.053076  -0.034709   0.058611   0.001455
               7          8          9         10         11         12
     1  C   -0.009347  -0.010322  -0.821467  -0.163881   0.348246   0.000708
     2  C   -0.076180  -0.056647  -1.569078  -0.323631  -0.014038   0.035453
     3  C    0.214042   0.077821   3.748980   0.706079  -0.827307   0.017196
     4  C   -0.465444  -0.284577 -10.948237  -0.446984   1.560502  -0.033906
     5  C    0.456999   0.032202  -5.421290  -4.988789  -0.476096   0.032532
     6  S    0.114305   0.358305  -0.491546  -0.917246  -0.442080  -0.000258
     7  O    8.709249  -0.108816  -0.182728   0.008086  -0.024098   0.000104
     8  O   -0.108816   8.699338   0.369969  -0.289037  -0.203777   0.002725
     9  C   -0.182728   0.369969  31.366014  -1.944924  -3.427960   0.135159
    10  C    0.008086  -0.289037  -1.944924  15.853532  -3.580661   0.148563
    11  C   -0.024098  -0.203777  -3.427960  -3.580661  13.312055   0.193238
    12  N    0.000104   0.002725   0.135159   0.148563   0.193238   7.022093
    13  C    0.051617   0.030022  -0.579878   0.659788  -1.147304   0.004819
    14  N    0.017327   0.063758   0.167430  -0.127788  -0.403460   0.002138
    15  N   -0.007584  -0.000862   0.207754  -0.164102   0.099403   0.003310
    16  C   -0.001176  -0.000540   0.011183  -0.024931   0.006818   0.000057
    17  C    0.000043   0.000239   0.005200  -0.031643  -0.022035   0.000479
    18  C   -0.080373  -0.091231  -4.984028   1.335167   1.145000  -0.113774
    19  H    0.000000   0.000000  -0.009662   0.002326  -0.000379   0.000008
    20  H   -0.000001   0.000000   0.001428   0.003472  -0.001153   0.000143
    21  H   -0.000001  -0.000001   0.026475  -0.008016   0.002456  -0.000170
    22  H    0.000372   0.000028  -0.003297   0.003654   0.000382  -0.000003
    23  H   -0.005554  -0.000248   0.089821  -0.003426   0.001890  -0.000000
    24  H   -0.086430  -0.110957  -0.131877   0.100213   0.102817  -0.000753
    25  H    0.002834   0.007431  -0.182739   0.415499  -0.193739   0.001482
    26  H    0.000054   0.000011   0.045593  -0.055588  -0.054862   0.001091
    27  H    0.000032  -0.000220  -0.004949   0.000533   0.002713  -0.000010
    28  H   -0.000000   0.000035  -0.001255  -0.002205  -0.003986  -0.000003
    29  H    0.000003  -0.000006   0.001007   0.000837   0.000142   0.000001
    30  H   -0.000000  -0.000007   0.006643   0.001113   0.000932   0.000127
    31  H   -0.000000  -0.000000  -0.001398  -0.003729   0.001173  -0.000012
    32  H   -0.000000   0.000005  -0.002319   0.016909  -0.006338  -0.000051
    33  H    0.000017   0.000013   0.038124  -0.120067   0.034807   0.003633
              13         14         15         16         17         18
     1  C    0.004762  -0.011388   0.001121   0.000209   0.000566   0.078100
     2  C    0.434379  -0.061260   0.047996   0.002190  -0.000710  -0.238776
     3  C    0.411418   0.030267  -0.004971  -0.000120  -0.000691  -3.547540
     4  C   -0.917514  -0.144939  -0.037257  -0.001810  -0.003154   5.121063
     5  C   -1.368567   0.369898  -0.278180  -0.007298   0.017551  -6.257821
     6  S   -0.153894   0.060189   0.036324  -0.008943  -0.001918  -0.301415
     7  O    0.051617   0.017327  -0.007584  -0.001176   0.000043  -0.080373
     8  O    0.030022   0.063758  -0.000862  -0.000540   0.000239  -0.091231
     9  C   -0.579878   0.167430   0.207754   0.011183   0.005200  -4.984028
    10  C    0.659788  -0.127788  -0.164102  -0.024931  -0.031643   1.335167
    11  C   -1.147304  -0.403460   0.099403   0.006818  -0.022035   1.145000
    12  N    0.004819   0.002138   0.003310   0.000057   0.000479  -0.113774
    13  C    8.348966   0.129754   0.322204  -0.000996  -0.083865   0.177919
    14  N    0.129754   8.194432  -1.146592  -0.118747   0.184823  -0.103590
    15  N    0.322204  -1.146592   7.999353   0.240663  -0.074159   0.006724
    16  C   -0.000996  -0.118747   0.240663   5.124856  -0.126223   0.000482
    17  C   -0.083865   0.184823  -0.074159  -0.126223   5.221679  -0.005771
    18  C    0.177919  -0.103590   0.006724   0.000482  -0.005771  13.682736
    19  H    0.000228  -0.000002  -0.000000   0.000000   0.000001   0.013019
    20  H    0.001952   0.000004  -0.000000   0.000000   0.000012  -0.066112
    21  H   -0.000598   0.000001   0.000001   0.000000  -0.000001   0.023443
    22  H   -0.000445   0.000015   0.000007   0.000001  -0.000006   0.037771
    23  H   -0.000205  -0.000330  -0.000027   0.000004   0.000009  -0.010059
    24  H   -0.054208  -0.151634   0.077444   0.006757  -0.004088  -0.007667
    25  H    0.049041   0.004411  -0.016827  -0.000823   0.001398  -0.022694
    26  H    0.364609   0.024189  -0.061196   0.000101   0.019959  -0.012490
    27  H   -0.004179  -0.043132  -0.009896   0.413725   0.005859  -0.000709
    28  H   -0.005613   0.031986  -0.101209   0.403508   0.015409  -0.000136
    29  H    0.001620   0.002689  -0.044486   0.404138  -0.013741   0.000049
    30  H    0.011459  -0.024107  -0.028905   0.007942   0.386168   0.002814
    31  H   -0.002951   0.010489  -0.057484  -0.005960   0.416564  -0.000002
    32  H   -0.013770   0.037199  -0.102042  -0.006576   0.423014  -0.001433
    33  H    0.019333  -0.001777   0.000012  -0.000000   0.000303   0.194835
              19         20         21         22         23         24
     1  C    0.494040   0.488208   0.463848  -0.063841   0.002787   0.000723
     2  C   -0.102862  -0.092847  -0.152365   0.047032   0.011577   0.009253
     3  C   -0.031901   0.036786  -0.009416   0.214526  -0.005861  -0.001674
     4  C    0.016320  -0.009503  -0.004261   0.014511   0.322210   0.172465
     5  C   -0.026272  -0.009251   0.007356   0.045328  -0.092048  -0.222128
     6  S   -0.000384  -0.000475   0.000176   0.002581   0.002852   0.392275
     7  O    0.000000  -0.000001  -0.000001   0.000372  -0.005554  -0.086430
     8  O    0.000000   0.000000  -0.000001   0.000028  -0.000248  -0.110957
     9  C   -0.009662   0.001428   0.026475  -0.003297   0.089821  -0.131877
    10  C    0.002326   0.003472  -0.008016   0.003654  -0.003426   0.100213
    11  C   -0.000379  -0.001153   0.002456   0.000382   0.001890   0.102817
    12  N    0.000008   0.000143  -0.000170  -0.000003  -0.000000  -0.000753
    13  C    0.000228   0.001952  -0.000598  -0.000445  -0.000205  -0.054208
    14  N   -0.000002   0.000004   0.000001   0.000015  -0.000330  -0.151634
    15  N   -0.000000  -0.000000   0.000001   0.000007  -0.000027   0.077444
    16  C    0.000000   0.000000   0.000000   0.000001   0.000004   0.006757
    17  C    0.000001   0.000012  -0.000001  -0.000006   0.000009  -0.004088
    18  C    0.013019  -0.066112   0.023443   0.037771  -0.010059  -0.007667
    19  H    0.538065  -0.025845  -0.026353   0.002754  -0.000003  -0.000000
    20  H   -0.025845   0.535089  -0.027182   0.000103   0.000002  -0.000000
    21  H   -0.026353  -0.027182   0.524329   0.000259   0.000002   0.000000
    22  H    0.002754   0.000103   0.000259   0.570171  -0.005112   0.000002
    23  H   -0.000003   0.000002   0.000002  -0.005112   0.511520   0.000233
    24  H   -0.000000  -0.000000   0.000000   0.000002   0.000233   0.872698
    25  H   -0.000000   0.000000   0.000000   0.000000  -0.000006  -0.004433
    26  H   -0.000000  -0.000000   0.000000  -0.000000  -0.000000   0.000049
    27  H   -0.000000  -0.000000   0.000000   0.000000   0.000000   0.001518
    28  H   -0.000000  -0.000000   0.000000   0.000000  -0.000000  -0.000018
    29  H   -0.000000  -0.000000   0.000000   0.000000  -0.000000   0.000018
    30  H   -0.000000  -0.000000   0.000000  -0.000000   0.000000  -0.000006
    31  H    0.000000  -0.000000   0.000000   0.000000   0.000000   0.000003
    32  H   -0.000000   0.000000  -0.000000  -0.000000  -0.000000  -0.000002
    33  H    0.000118   0.001964   0.000524  -0.000162   0.000015   0.000006
              25         26         27         28         29         30
     1  C   -0.002084  -0.001828   0.000004  -0.000002   0.000001   0.000162
     2  C   -0.013798  -0.007974   0.000042  -0.000108   0.000053   0.002761
     3  C    0.009940   0.003807  -0.000013   0.000016  -0.000011   0.000115
     4  C    0.002758  -0.003215   0.000927   0.000147  -0.000144  -0.001702
     5  C    0.173205   0.026338   0.007223   0.000203  -0.000489  -0.008203
     6  S    0.055095  -0.000432  -0.004166   0.001433  -0.000157  -0.001205
     7  O    0.002834   0.000054   0.000032  -0.000000   0.000003  -0.000000
     8  O    0.007431   0.000011  -0.000220   0.000035  -0.000006  -0.000007
     9  C   -0.182739   0.045593  -0.004949  -0.001255   0.001007   0.006643
    10  C    0.415499  -0.055588   0.000533  -0.002205   0.000837   0.001113
    11  C   -0.193739  -0.054862   0.002713  -0.003986   0.000142   0.000932
    12  N    0.001482   0.001091  -0.000010  -0.000003   0.000001   0.000127
    13  C    0.049041   0.364609  -0.004179  -0.005613   0.001620   0.011459
    14  N    0.004411   0.024189  -0.043132   0.031986   0.002689  -0.024107
    15  N   -0.016827  -0.061196  -0.009896  -0.101209  -0.044486  -0.028905
    16  C   -0.000823   0.000101   0.413725   0.403508   0.404138   0.007942
    17  C    0.001398   0.019959   0.005859   0.015409  -0.013741   0.386168
    18  C   -0.022694  -0.012490  -0.000709  -0.000136   0.000049   0.002814
    19  H   -0.000000  -0.000000  -0.000000  -0.000000  -0.000000  -0.000000
    20  H    0.000000  -0.000000  -0.000000  -0.000000  -0.000000  -0.000000
    21  H    0.000000   0.000000   0.000000   0.000000   0.000000   0.000000
    22  H    0.000000  -0.000000   0.000000   0.000000   0.000000  -0.000000
    23  H   -0.000006  -0.000000   0.000000  -0.000000  -0.000000   0.000000
    24  H   -0.004433   0.000049   0.001518  -0.000018   0.000018  -0.000006
    25  H    0.482788   0.003312  -0.000004  -0.000000   0.000000  -0.000001
    26  H    0.003312   0.581279   0.000001  -0.000019   0.000012  -0.000154
    27  H   -0.000004   0.000001   0.519518  -0.030102  -0.018525  -0.000143
    28  H   -0.000000  -0.000019  -0.030102   0.582456  -0.041559  -0.000362
    29  H    0.000000   0.000012  -0.018525  -0.041559   0.555817   0.000406
    30  H   -0.000001  -0.000154  -0.000143  -0.000362   0.000406   0.555340
    31  H    0.000000  -0.000063   0.000363  -0.001219   0.002169  -0.020650
    32  H   -0.000005  -0.001169  -0.000226   0.004365  -0.000743  -0.041581
    33  H    0.000084  -0.000306  -0.000000  -0.000000   0.000000   0.000001
              31         32         33
     1  C    0.000001  -0.000043   0.017533
     2  C    0.000015  -0.001007   0.030052
     3  C    0.000007  -0.000017   0.053076
     4  C   -0.000001   0.000546  -0.034709
     5  C   -0.000023   0.002892   0.058611
     6  S   -0.000095   0.000881   0.001455
     7  O   -0.000000  -0.000000   0.000017
     8  O   -0.000000   0.000005   0.000013
     9  C   -0.001398  -0.002319   0.038124
    10  C   -0.003729   0.016909  -0.120067
    11  C    0.001173  -0.006338   0.034807
    12  N   -0.000012  -0.000051   0.003633
    13  C   -0.002951  -0.013770   0.019333
    14  N    0.010489   0.037199  -0.001777
    15  N   -0.057484  -0.102042   0.000012
    16  C   -0.005960  -0.006576  -0.000000
    17  C    0.416564   0.423014   0.000303
    18  C   -0.000002  -0.001433   0.194835
    19  H    0.000000  -0.000000   0.000118
    20  H   -0.000000   0.000000   0.001964
    21  H    0.000000  -0.000000   0.000524
    22  H    0.000000  -0.000000  -0.000162
    23  H    0.000000  -0.000000   0.000015
    24  H    0.000003  -0.000002   0.000006
    25  H    0.000000  -0.000005   0.000084
    26  H   -0.000063  -0.001169  -0.000306
    27  H    0.000363  -0.000226  -0.000000
    28  H   -0.001219   0.004365  -0.000000
    29  H    0.002169  -0.000743   0.000000
    30  H   -0.020650  -0.041581   0.000001
    31  H    0.535195  -0.029410   0.000000
    32  H   -0.029410   0.561456  -0.000000
    33  H    0.000000  -0.000000   0.561840
 Mulliken charges:
               1
     1  C   -0.482381
     2  C    0.009291
     3  C   -0.347312
     4  C    0.344774
     5  C   -1.123268
     6  S    1.553400
     7  O   -0.527352
     8  O   -0.484652
     9  C    0.487852
    10  C   -0.059119
    11  C    0.016700
    12  N   -0.456118
    13  C   -0.689901
    14  N    0.007747
    15  N    0.093464
    16  C   -0.318488
    17  C   -0.331268
    18  C    0.026499
    19  H    0.156784
    20  H    0.163207
    21  H    0.179494
    22  H    0.133368
    23  H    0.179955
    24  H    0.039405
    25  H    0.227873
    26  H    0.128891
    27  H    0.163818
    28  H    0.148240
    29  H    0.150900
    30  H    0.151043
    31  H    0.157020
    32  H    0.159466
    33  H    0.140668
 Sum of Mulliken charges =  -0.00000
 Mulliken charges with hydrogens summed into heavy atoms:
               1
     1  C    0.017104
     2  C    0.009291
     3  C   -0.213944
     4  C    0.524729
     5  C   -1.123268
     6  S    1.592805
     7  O   -0.527352
     8  O   -0.484652
     9  C    0.487852
    10  C    0.168755
    11  C    0.016700
    12  N   -0.456118
    13  C   -0.561010
    14  N    0.007747
    15  N    0.093464
    16  C    0.144470
    17  C    0.136260
    18  C    0.167167
 Electronic spatial extent (au):  <R**2>=           5412.4346
 Charge=             -0.0000 electrons
 Dipole moment (field-independent basis, Debye):
    X=              1.2876    Y=             -3.0219    Z=             -6.1326  Tot=              6.9569
 Quadrupole moment (field-independent basis, Debye-Ang):
   XX=            -86.0436   YY=           -136.5381   ZZ=           -125.9707
   XY=             -0.1296   XZ=             -0.6097   YZ=              8.0569
 Traceless Quadrupole moment (field-independent basis, Debye-Ang):
   XX=             30.1405   YY=            -20.3540   ZZ=             -9.7865
   XY=             -0.1296   XZ=             -0.6097   YZ=              8.0569
 Octapole moment (field-independent basis, Debye-Ang**2):
  XXX=             40.4330  YYY=             -3.6977  ZZZ=            -36.6323  XYY=             11.7627
  XXY=             -6.4026  XXZ=            -43.2276  XZZ=             10.1297  YZZ=             20.4487
  YYZ=            -53.1079  XYZ=              4.3658
 Hexadecapole moment (field-independent basis, Debye-Ang**3):
 XXXX=          -3575.5468 YYYY=          -2618.7780 ZZZZ=          -1098.5945 XXXY=             14.8896
 XXXZ=            -30.9898 YYYX=             10.7829 YYYZ=            157.9217 ZZZX=            -15.2358
 ZZZY=             83.8923 XXYY=           -979.2100 XXZZ=           -794.2506 YYZZ=           -670.2679
 XXYZ=             25.8741 YYXZ=              2.8889 ZZXY=            -31.9059
 N-N= 1.449724174023D+03 E-N=-5.657911648044D+03  KE= 1.170123334071D+03
 Unable to Open any file for archive entry.
 1\1\GINC-N2\SP\RB3LYP TD-FC\6-31+G(d,p)\C12H15N3O2S1\HPCMGAC13\25-Aug-
 2025\0\\# td=(50-50,nstates=3) b3lyp/6-31+g(d,p) geom=connectivity\\Ti
 tle Card Required\\0,1\C,0,4.19622,1.889339,-1.150787\C,0,3.121267,0.8
 91234,-0.794752\C,0,3.231796,-0.455306,-1.15887\C,0,2.249165,-1.374279
 ,-0.791049\C,0,1.144235,-0.953447,-0.050882\S,0,-0.028635,-2.235165,0.
 444328\O,0,0.353078,-3.485904,-0.230673\O,0,-0.210915,-2.18274,1.90641
 4\C,0,0.995165,0.39737,0.324367\C,0,-0.263634,0.889773,1.056524\C,0,0.
 003041,2.086141,1.870614\N,0,0.188628,3.049481,2.492017\C,0,-1.386845,
 1.190492,0.068768\N,0,-2.318904,0.316463,-0.0716\N,0,-3.296474,0.44973
 5,-0.999302\C,0,-4.50155,-0.302695,-0.65952\C,0,-3.494264,1.732052,-1.
 660072\C,0,1.993273,1.294791,-0.062616\H,0,4.803978,1.539338,-1.989691
 \H,0,3.768798,2.860777,-1.417442\H,0,4.868363,2.052515,-0.299415\H,0,4
 .091193,-0.792717,-1.731335\H,0,2.329424,-2.420103,-1.067729\H,0,-1.19
 3322,-1.782309,-0.110155\H,0,-0.612332,0.107246,1.739038\H,0,-1.307927
 ,2.113748,-0.506163\H,0,-4.203006,-1.256142,-0.222201\H,0,-5.135237,0.
 232565,0.064401\H,0,-5.079242,-0.489367,-1.568546\H,0,-2.613071,1.9982
 15,-2.252488\H,0,-4.344031,1.644202,-2.338679\H,0,-3.69357,2.542949,-0
 .939662\H,0,1.900886,2.338314,0.226751\\Version=ES64L-G16RevC.02\State
 =1-A\HF=-1179.1110753\RMSD=3.404e-09\PG=C01 [X(C12H15N3O2S1)]\\@
 The archive entry for this job was punched.


 THE UNDERLYING PHYSICAL LAWS NECESSARY FOR THE 
 MATHEMATICAL THEORY OF A LARGE PART OF PHYSICS AND THE
 WHOLE OF CHEMISTRY ARE THUS COMPLETELY KNOWN, AND THE
 DIFFICULTY IS ONLY THAT THE EXACT APPLICATION OF THESE
 LAWS LEADS TO EQUATIONS MUCH TOO COMPLICATED 
 TO BE SOLUBLE.

                                        -- P. A. M. DIRAC, 1929
 Job cpu time:       0 days  1 hours 26 minutes  7.8 seconds.
 Elapsed time:       0 days  0 hours  5 minutes 32.4 seconds.
 File lengths (MBytes):  RWF=   1042 Int=      0 D2E=      0 Chk=     47 Scr=      2
 Normal termination of Gaussian 16 at Mon Aug 25 14:27:50 2025.
