 Entering Gaussian System, Link 0=g16
 Input=M877E.gjf
 Output=M877E.log
 Initial command:
 /hpc/softwares/Gaussian/g16/l1.exe "/hpc/home/hpcmgac13/pbs.13411.admin1.x8z/Gau-374048.inp" -scrdir="/hpc/home/hpcmgac13/pbs.13411.admin1.x8z/"
 Default linda workers: n1
 Default is to use  16 SMP processors on each worker.
 Entering Link 1 = /hpc/softwares/Gaussian/g16/l1.exe PID=    374049.
  
 Copyright (c) 1988-2021, Gaussian, Inc.  All Rights Reserved.
  
 This is part of the Gaussian(R) 16 program.  It is based on
 the Gaussian(R) 09 system (copyright 2009, Gaussian, Inc.),
 the Gaussian(R) 03 system (copyright 2003, Gaussian, Inc.),
 the Gaussian(R) 98 system (copyright 1998, Gaussian, Inc.),
 the Gaussian(R) 94 system (copyright 1995, Gaussian, Inc.),
 the Gaussian 92(TM) system (copyright 1992, Gaussian, Inc.),
 the Gaussian 90(TM) system (copyright 1990, Gaussian, Inc.),
 the Gaussian 88(TM) system (copyright 1988, Gaussian, Inc.),
 the Gaussian 86(TM) system (copyright 1986, Carnegie Mellon
 University), and the Gaussian 82(TM) system (copyright 1983,
 Carnegie Mellon University). Gaussian is a federally registered
 trademark of Gaussian, Inc.
  
 This software contains proprietary and confidential information,
 including trade secrets, belonging to Gaussian, Inc.
  
 This software is provided under written license and may be
 used, copied, transmitted, or stored only in accord with that
 written license.
  
 The following legend is applicable only to US Government
 contracts under FAR:
  
                    RESTRICTED RIGHTS LEGEND
  
 Use, reproduction and disclosure by the US Government is
 subject to restrictions as set forth in subparagraphs (a)
 and (c) of the Commercial Computer Software - Restricted
 Rights clause in FAR 52.227-19.
  
 Gaussian, Inc.
 340 Quinnipiac St., Bldg. 40, Wallingford CT 06492
  
  
 ---------------------------------------------------------------
 Warning -- This program may not be used in any manner that
 competes with the business of Gaussian, Inc. or will provide
 assistance to any competitor of Gaussian, Inc.  The licensee
 of this program is prohibited from giving any competitor of
 Gaussian, Inc. access to this program.  By using this program,
 the user acknowledges that Gaussian, Inc. is engaged in the
 business of creating and licensing software in the field of
 computational chemistry and represents and warrants to the
 licensee that it is not a competitor of Gaussian, Inc. and that
 it will not use this program in any manner prohibited above.
 ---------------------------------------------------------------
  

 Cite this work as:
 Gaussian 16, Revision C.02,
 M. J. Frisch, G. W. Trucks, H. B. Schlegel, G. E. Scuseria, 
 M. A. Robb, J. R. Cheeseman, G. Scalmani, V. Barone, 
 G. A. Petersson, H. Nakatsuji, X. Li, M. Caricato, A. V. Marenich, 
 J. Bloino, B. G. Janesko, R. Gomperts, B. Mennucci, H. P. Hratchian, 
 J. V. Ortiz, A. F. Izmaylov, J. L. Sonnenberg, D. Williams-Young, 
 F. Ding, F. Lipparini, F. Egidi, J. Goings, B. Peng, A. Petrone, 
 T. Henderson, D. Ranasinghe, V. G. Zakrzewski, J. Gao, N. Rega, 
 G. Zheng, W. Liang, M. Hada, M. Ehara, K. Toyota, R. Fukuda, 
 J. Hasegawa, M. Ishida, T. Nakajima, Y. Honda, O. Kitao, H. Nakai, 
 T. Vreven, K. Throssell, J. A. Montgomery, Jr., J. E. Peralta, 
 F. Ogliaro, M. J. Bearpark, J. J. Heyd, E. N. Brothers, K. N. Kudin, 
 V. N. Staroverov, T. A. Keith, R. Kobayashi, J. Normand, 
 K. Raghavachari, A. P. Rendell, J. C. Burant, S. S. Iyengar, 
 J. Tomasi, M. Cossi, J. M. Millam, M. Klene, C. Adamo, R. Cammi, 
 J. W. Ochterski, R. L. Martin, K. Morokuma, O. Farkas, 
 J. B. Foresman, and D. J. Fox, Gaussian, Inc., Wallingford CT, 2019.
 
 ******************************************
 Gaussian 16:  ES64L-G16RevC.02  7-Dec-2021
                25-Aug-2025 
 ******************************************
 SetLPE:    new flags="-opt 'Tsnet.Node.lindarsharg: ssh'  -nodelist 'n1' -env GAUSS_MDEF=4294967296 -env GAUSS_EXEDIR="/hpc/softwares/Gaussian/g16/bsd:/hpc/softwares/Gaussian/g16""
 Will use up to    1 processors via Linda.
 ----------------------------------------------------------
 # td=(50-50,nstates=3) b3lyp/6-31+g(d,p) geom=connectivity
 ----------------------------------------------------------
 1/38=1,57=2,172=1/1;
 2/12=2,17=6,18=5,40=1/2;
 3/5=1,6=6,7=111,11=9,25=1,30=1,74=-5/1,2,3,8;
 4//1;
 5/5=2,38=5/2;
 8/6=1,10=2,108=3/1;
 9/41=3,42=1,48=2,70=2/14;
 6/7=2,8=2,9=2,10=2/1;
 99/5=1,9=1/99;
 -------------------
 Title Card Required
 -------------------
 Symbolic Z-matrix:
 Charge =  0 Multiplicity = 1
 C                     4.42418   0.53243  -0.36873 
 C                     3.37266  -0.22243   0.01526 
 C                     3.64388  -1.50956   0.60012 
 N                     3.90815  -2.52726   1.09877 
 C                     1.97888   0.29277  -0.02903 
 C                     0.80794  -0.39841  -0.18277 
 C                     0.83827  -1.87575  -0.5888 
 C                     0.31613  -2.86808   0.46817 
 C                     0.18825  -2.12223  -1.96802 
 C                    -0.43157   0.37905  -0.04505 
 C                    -1.78082  -0.27007   0.04544 
 C                    -2.22971  -0.77101   1.27559 
 C                    -3.50907  -1.31888   1.393 
 C                    -4.35497  -1.37096   0.2824 
 C                    -3.91858  -0.86274  -0.94402 
 C                    -2.64189  -0.30951  -1.06016 
 C                    -0.35337   1.73948   0.04364 
 Cl                   -1.77472   2.74356   0.22107 
 C                     0.91406   2.46849   0.00662 
 N                     1.1637    3.71247  -0.06782 
 O                     2.01913   1.6468    0.11985 
 H                     4.2738    1.52947  -0.76524 
 H                     5.43774   0.16015  -0.27367 
 H                     1.89193  -2.11956  -0.73164 
 H                     0.57828  -3.88693   0.16351 
 H                     0.77553  -2.68877   1.4447 
 H                    -0.76886  -2.82091   0.57812 
 H                     0.42253  -3.14     -2.29843 
 H                     0.57544  -1.42741  -2.72106 
 H                    -0.89893  -2.02774  -1.93617 
 H                    -1.57804  -0.72681   2.14324 
 H                    -3.8431   -1.70191   2.35275 
 H                    -5.34939  -1.79774   0.37342 
 H                    -4.57318  -0.88939  -1.81019 
 H                    -2.3146    0.1011   -2.01073 
 H                     0.29943   4.24952  -0.1043 
 
                          Input orientation:                          
 ---------------------------------------------------------------------
 Center     Atomic      Atomic             Coordinates (Angstroms)
 Number     Number       Type             X           Y           Z
 ---------------------------------------------------------------------
      1          6           0        4.424180    0.532434   -0.368731
      2          6           0        3.372661   -0.222428    0.015259
      3          6           0        3.643881   -1.509558    0.600123
      4          7           0        3.908153   -2.527264    1.098767
      5          6           0        1.978875    0.292769   -0.029025
      6          6           0        0.807935   -0.398413   -0.182769
      7          6           0        0.838270   -1.875747   -0.588798
      8          6           0        0.316128   -2.868076    0.468166
      9          6           0        0.188253   -2.122233   -1.968021
     10          6           0       -0.431569    0.379046   -0.045051
     11          6           0       -1.780821   -0.270072    0.045443
     12          6           0       -2.229710   -0.771007    1.275593
     13          6           0       -3.509067   -1.318877    1.392995
     14          6           0       -4.354969   -1.370962    0.282400
     15          6           0       -3.918576   -0.862735   -0.944015
     16          6           0       -2.641894   -0.309505   -1.060156
     17          6           0       -0.353371    1.739483    0.043638
     18         17           0       -1.774716    2.743560    0.221073
     19          6           0        0.914059    2.468485    0.006619
     20          7           0        1.163697    3.712466   -0.067822
     21          8           0        2.019130    1.646795    0.119852
     22          1           0        4.273798    1.529474   -0.765236
     23          1           0        5.437740    0.160147   -0.273669
     24          1           0        1.891930   -2.119563   -0.731642
     25          1           0        0.578281   -3.886926    0.163512
     26          1           0        0.775525   -2.688766    1.444699
     27          1           0       -0.768855   -2.820905    0.578119
     28          1           0        0.422534   -3.140004   -2.298426
     29          1           0        0.575440   -1.427414   -2.721057
     30          1           0       -0.898928   -2.027737   -1.936170
     31          1           0       -1.578043   -0.726807    2.143242
     32          1           0       -3.843100   -1.701905    2.352747
     33          1           0       -5.349389   -1.797736    0.373423
     34          1           0       -4.573178   -0.889386   -1.810190
     35          1           0       -2.314599    0.101104   -2.010730
     36          1           0        0.299430    4.249517   -0.104303
 ---------------------------------------------------------------------
                    Distance matrix (angstroms):
                    1          2          3          4          5
     1  C    0.000000
     2  C    1.350169   0.000000
     3  C    2.391083   1.439559   0.000000
     4  N    3.432432   2.602501   1.163706   0.000000
     5  C    2.480394   1.486616   2.533072   3.598140   0.000000
     6  C    3.738755   2.578373   3.144861   3.973121   1.368382
     7  C    4.325103   3.085691   3.069052   3.563219   2.513322
     8  C    5.398144   4.067797   3.596794   3.662848   3.605949
     9  C    5.248625   4.205129   4.348804   4.838067   3.577467
    10  C    4.868942   3.851957   4.537881   5.346788   2.412041
    11  C    6.270374   5.153791   5.592083   6.210381   3.802322
    12  C    6.976891   5.768530   5.958254   6.386632   4.532751
    13  C    8.334713   7.103417   7.199283   7.520766   5.893815
    14  C    9.006683   7.817081   8.006357   8.383476   6.556109
    15  C    8.478150   7.381892   7.745547   8.258408   6.078842
    16  C    7.149569   6.110562   6.611174   7.244482   4.772575
    17  C    4.944897   4.211082   5.181116   6.122011   2.745475
    18  Cl   6.607818   5.944319   6.898832   7.800444   4.489807
    19  C    4.026181   3.644971   4.860967   5.925782   2.422570
    20  N    4.564417   4.513293   5.819536   6.915721   3.515729
    21  O    2.695325   2.310191   3.582323   4.685024   1.362781
    22  H    1.083476   2.119052   3.390681   4.479434   2.708896
    23  H    1.083946   2.119999   2.601799   3.383104   3.470041
    24  H    3.684709   2.519831   2.283645   2.753502   2.514076
    25  H    5.882598   4.610757   3.903897   3.716373   4.412322
    26  H    5.193972   3.856324   3.214235   3.155806   3.536872
    27  H    6.253720   4.921488   4.603515   4.715051   4.196857
    28  H    5.764000   4.750646   4.630013   4.905702   4.399581
    29  H    4.918053   4.094370   4.522424   5.187263   3.489369
    30  H    6.111204   5.031271   5.228614   5.706873   4.159772
    31  H    6.627396   5.412225   5.501128   5.867787   4.290681
    32  H    8.985913   7.727866   7.691786   7.895290   6.599012
    33  H   10.074876   8.870402   9.000741   9.314527   7.631227
    34  H    9.222355   8.180064   8.585702   9.114694   6.891984
    35  H    6.949342   6.046009   6.701811   7.436392   4.732632
    36  H    5.558794   5.427461   6.696903   7.771423   4.299076
                    6          7          8          9         10
     6  C    0.000000
     7  C    1.532415   0.000000
     8  C    2.600928   1.540948   0.000000
     9  C    2.557867   1.544517   2.551008   0.000000
    10  C    1.469619   2.644285   3.371386   3.215337   0.000000
    11  C    2.601963   3.136892   3.365340   3.370725   1.500008
    12  C    3.390123   3.756182   3.395722   4.265371   2.509987
    13  C    4.686874   4.810088   4.229355   5.060828   3.797619
    14  C    5.274259   5.289946   4.908666   5.125395   4.308459
    15  C    4.809885   4.876470   4.893707   4.415990   3.809117
    16  C    3.560763   3.845365   4.199041   3.481370   2.527860
    17  C    2.443459   3.858740   4.675260   4.387822   1.365566
    18  Cl   4.087196   5.368574   5.993592   5.685184   2.732360
    19  C    2.875106   4.385501   5.389752   5.049821   2.485788
    20  N    4.127845   5.621872   6.656515   6.213369   3.695549
    21  O    2.396132   3.782184   4.837933   4.681548   2.764110
    22  H    4.008519   4.840404   6.043416   5.610110   4.897206
    23  H    4.664263   5.039771   5.995946   5.969690   5.877837
    24  H    2.106814   1.090894   2.117301   2.105031   3.480388
    25  H    3.513172   2.162962   1.095260   2.794583   4.388828
    26  H    2.809879   2.190901   1.093990   3.508918   3.617720
    27  H    2.988927   2.199516   1.091560   2.808385   3.277467
    28  H    3.484374   2.166566   2.781959   1.095405   4.265080
    29  H    2.748782   2.194678   3.509116   1.095331   3.382066
    30  H    2.939812   2.203717   2.821943   1.091745   3.096346
    31  H    3.348292   3.823961   3.313427   4.687163   2.706647
    32  H    5.455278   5.531558   4.712831   5.924316   4.660294
    33  H    6.338777   6.262514   5.766514   6.021058   5.394298
    34  H    5.643220   5.634579   5.745558   4.920980   4.677345
    35  H    3.652558   3.983769   4.677786   3.348032   2.736229
    36  H    4.676322   6.167977   7.140597   6.639654   3.939342
                   11         12         13         14         15
    11  C    0.000000
    12  C    1.402036   0.000000
    13  C    2.429552   1.396674   0.000000
    14  C    2.809688   2.421385   1.397027   0.000000
    15  C    2.429048   2.790581   2.416067   1.397436   0.000000
    16  C    1.401910   2.416320   2.790837   2.421523   1.396234
    17  C    2.464940   3.367628   4.597037   5.073920   4.523017
    18  Cl   3.018752   3.697460   4.569986   4.857032   4.354185
    19  C    3.842340   4.689124   5.985833   6.525340   5.946015
    20  N    4.954152   5.781134   7.020194   7.511296   6.894177
    21  O    4.256706   5.023360   6.401333   7.054248   6.533445
    22  H    6.368200   7.193943   8.564114   9.163279   8.536370
    23  H    7.238408   7.877630   9.220121   9.927268   9.435905
    24  H    4.184923   4.778652   5.858835   6.372788   5.948672
    25  H    4.319830   4.339411   4.981257   5.539058   5.531191
    26  H    3.787203   3.569010   4.498555   5.423054   5.574489
    27  H    2.795455   2.612020   3.229377   3.879433   4.008998
    28  H    4.311033   5.041841   5.692151   5.710929   5.085825
    29  H    3.813781   4.926758   5.798310   5.773463   4.865483
    30  H    2.791758   3.696725   4.289364   4.159041   3.385244
    31  H    2.156499   1.086019   2.154593   3.404260   3.876561
    32  H    3.409808   2.151711   1.086008   2.158210   3.402726
    33  H    3.895639   3.405948   2.157688   1.085952   2.158030
    34  H    3.409425   3.876585   3.402527   2.158347   1.086036
    35  H    2.156511   3.401133   3.876654   3.404193   2.153975
    36  H    4.977605   5.788465   6.910395   7.307719   6.680704
                   16         17         18         19         20
    16  C    0.000000
    17  C    3.264054   0.000000
    18  Cl   3.422682   1.749250   0.000000
    19  C    4.636813   1.462598   2.711304   0.000000
    20  N    5.625256   2.491301   3.107493   1.270964   0.000000
    21  O    5.190826   2.375534   3.950494   1.381730   2.243654
    22  H    7.162096   4.702029   6.247506   3.572863   3.863233
    23  H    8.131397   6.010986   7.677129   5.086322   5.561366
    24  H    4.892831   4.531520   6.164570   4.748836   5.914689
    25  H    4.966370   5.704281   7.035855   6.366209   7.625417
    26  H    4.859417   4.779829   6.124635   5.355792   6.588943
    27  H    3.535442   4.610362   5.665908   5.580005   6.843751
    28  H    4.351523   5.467786   6.766987   6.083583   7.244395
    29  H    3.789400   4.305283   5.619287   4.767904   5.814127
    30  H    2.599548   4.290597   5.309047   5.222774   6.379269
    31  H    3.401129   3.462765   3.972010   4.581007   5.666841
    32  H    3.876800   5.417873   5.346439   6.747372   7.761610
    33  H    3.405952   6.130324   5.781424   7.587224   8.542676
    34  H    2.151435   5.306072   5.015547   6.684748   7.558083
    35  H    1.085962   3.278891   3.500713   4.483126   5.377301
    36  H    5.509058   2.597750   2.583768   1.887365   1.018191
                   21         22         23         24         25
    21  O    0.000000
    22  H    2.425010   0.000000
    23  H    3.748583   1.863184   0.000000
    24  H    3.863505   4.357740   4.240234   0.000000
    25  H    5.718393   6.622447   6.339106   2.377088   0.000000
    26  H    4.700943   5.908915   5.727595   2.511337   1.765200
    27  H    5.286134   6.794023   6.937870   3.047479   1.767222
    28  H    5.595590   6.243952   6.335845   2.378074   2.577458
    29  H    4.427840   5.123112   5.670275   2.483946   3.790771
    30  H    5.122936   6.386073   6.906816   3.041087   3.169763
    31  H    4.761066   6.913327   7.473243   4.716507   4.307600
    32  H    7.110932   9.276188   9.823405   6.525217   5.395894
    33  H    8.137823  10.245614  10.982449   7.332219   6.288565
    34  H    7.322281   9.231024  10.182382   6.668900   6.278398
    35  H    5.070478   6.855543   7.944786   4.925679   5.385208
    36  H    3.127583   4.861180   6.569160   6.595058   8.145624
                   26         27         28         29         30
    26  H    0.000000
    27  H    1.775818   0.000000
    28  H    3.786714   3.129815   0.000000
    29  H    4.357128   3.825377   1.770582   0.000000
    30  H    3.830278   2.639637   1.764831   1.774879   0.000000
    31  H    3.142694   2.736721   5.436381   5.365608   4.335345
    32  H    4.809381   3.721888   6.472803   6.733671   5.212401
    33  H    6.281412   4.697879   6.500427   6.694516   5.019335
    34  H    6.514652   4.889546   5.500981   5.256179   3.848614
    35  H    5.410382   4.198762   4.251993   3.345633   2.557664
    36  H    7.125015   7.183161   7.709368   6.257086   6.647986
                   31         32         33         34         35
    31  H    0.000000
    32  H    2.474912   0.000000
    33  H    4.301418   2.489139   0.000000
    34  H    4.962549   4.303864   2.489130   0.000000
    35  H    4.299237   4.962569   4.301131   2.474362   0.000000
    36  H    5.774094   7.656179   8.288947   7.284276   5.260888
                   36
    36  H    0.000000
 Stoichiometry    C17H15ClN2O
 Framework group  C1[X(C17H15ClN2O)]
 Deg. of freedom   102
 Full point group                 C1      NOp   1
 Largest Abelian subgroup         C1      NOp   1
 Largest concise Abelian subgroup C1      NOp   1
                         Standard orientation:                         
 ---------------------------------------------------------------------
 Center     Atomic      Atomic             Coordinates (Angstroms)
 Number     Number       Type             X           Y           Z
 ---------------------------------------------------------------------
      1          6           0       -4.424180    0.532434    0.368731
      2          6           0       -3.372661   -0.222428   -0.015259
      3          6           0       -3.643881   -1.509558   -0.600123
      4          7           0       -3.908153   -2.527264   -1.098767
      5          6           0       -1.978875    0.292769    0.029025
      6          6           0       -0.807935   -0.398413    0.182769
      7          6           0       -0.838270   -1.875747    0.588798
      8          6           0       -0.316128   -2.868076   -0.468166
      9          6           0       -0.188253   -2.122233    1.968021
     10          6           0        0.431569    0.379046    0.045051
     11          6           0        1.780821   -0.270072   -0.045443
     12          6           0        2.229710   -0.771007   -1.275593
     13          6           0        3.509067   -1.318877   -1.392995
     14          6           0        4.354969   -1.370962   -0.282400
     15          6           0        3.918576   -0.862735    0.944015
     16          6           0        2.641894   -0.309505    1.060156
     17          6           0        0.353371    1.739483   -0.043638
     18         17           0        1.774716    2.743560   -0.221073
     19          6           0       -0.914059    2.468485   -0.006619
     20          7           0       -1.163697    3.712466    0.067822
     21          8           0       -2.019130    1.646795   -0.119852
     22          1           0       -4.273798    1.529474    0.765236
     23          1           0       -5.437740    0.160147    0.273669
     24          1           0       -1.891930   -2.119563    0.731642
     25          1           0       -0.578281   -3.886926   -0.163512
     26          1           0       -0.775525   -2.688766   -1.444699
     27          1           0        0.768855   -2.820905   -0.578119
     28          1           0       -0.422534   -3.140004    2.298426
     29          1           0       -0.575440   -1.427414    2.721057
     30          1           0        0.898928   -2.027737    1.936170
     31          1           0        1.578043   -0.726807   -2.143242
     32          1           0        3.843100   -1.701905   -2.352747
     33          1           0        5.349389   -1.797736   -0.373423
     34          1           0        4.573178   -0.889386    1.810190
     35          1           0        2.314599    0.101104    2.010730
     36          1           0       -0.299430    4.249517    0.104303
 ---------------------------------------------------------------------
 Rotational constants (GHZ):           0.4035376           0.2439730           0.1710214
 Standard basis: 6-31+G(d,p) (6D, 7F)
 There are   478 symmetry adapted cartesian basis functions of A   symmetry.
 There are   478 symmetry adapted basis functions of A   symmetry.
   478 basis functions,   801 primitive gaussians,   478 cartesian basis functions
    78 alpha electrons       78 beta electrons
       nuclear repulsion energy      1744.2335126522 Hartrees.
 NAtoms=   36 NActive=   36 NUniq=   36 SFac= 1.00D+00 NAtFMM=   60 NAOKFM=F Big=F
 Integral buffers will be    131072 words long.
 Regular integral format.
 Two-electron integral symmetry is turned on.
 One-electron integrals computed using PRISM.
 NBasis=   478 RedAO= T EigKep=  1.27D-06  NBF=   478
 NBsUse=   475 1.00D-06 EigRej=  6.43D-07 NBFU=   475
 ExpMin= 4.38D-02 ExpMax= 2.52D+04 ExpMxC= 3.78D+03 IAcc=3 IRadAn=         5 AccDes= 0.00D+00
 Harris functional with IExCor=  402 and IRadAn=       5 diagonalized for initial guess.
 HarFok:  IExCor=  402 AccDes= 0.00D+00 IRadAn=         5 IDoV= 1 UseB2=F ITyADJ=14
 ICtDFT=  3500011 ScaDFX=  1.000000  1.000000  1.000000  1.000000
 FoFCou: FMM=F IPFlag=           0 FMFlag=      100000 FMFlg1=           0
         NFxFlg=           0 DoJE=T BraDBF=F KetDBF=T FulRan=T
         wScrn=  0.000000 ICntrl=       500 IOpCl=  0 I1Cent=   200000004 NGrid=           0
         NMat0=    1 NMatS0=      1 NMatT0=    0 NMatD0=    1 NMtDS0=    0 NMtDT0=    0
 Petite list used in FoFCou.
 Requested convergence on RMS density matrix=1.00D-08 within 128 cycles.
 Requested convergence on MAX density matrix=1.00D-06.
 Requested convergence on             energy=1.00D-06.
 No special actions if energy rises.
 SCF Done:  E(RB3LYP) =  -1301.74154619     A.U. after   17 cycles
            NFock= 17  Conv=0.59D-08     -V/T= 2.0074
 DoSCS=F DFT=T ScalE2(SS,OS)=  1.000000  1.000000
 ExpMin= 4.38D-02 ExpMax= 2.52D+04 ExpMxC= 3.78D+03 IAcc=3 IRadAn=         5 AccDes= 0.00D+00
 HarFok:  IExCor=  205 AccDes= 0.00D+00 IRadAn=         5 IDoV=-2 UseB2=F ITyADJ=14
 ICtDFT= 12500011 ScaDFX=  1.000000  1.000000  1.000000  1.000000
 GSVD:  LWork=        -825 too small for GESVD, short by        3500 words or        3500 for optimal perf.
 Range of M.O.s used for correlation:    26   475
 NBasis=   478 NAE=    78 NBE=    78 NFC=    25 NFV=     0
 NROrb=    450 NOA=    53 NOB=    53 NVA=   397 NVB=   397

 **** Warning!!: The largest alpha MO coefficient is  0.16025652D+03

 Orbital symmetries:
       Occupied  (A) (A) (A) (A) (A) (A) (A) (A) (A) (A) (A) (A)
                 (A) (A) (A) (A) (A) (A) (A) (A) (A) (A) (A) (A)
                 (A) (A) (A) (A) (A) (A) (A) (A) (A) (A) (A) (A)
                 (A) (A) (A) (A) (A) (A) (A) (A) (A) (A) (A) (A)
                 (A) (A) (A) (A) (A) (A) (A) (A) (A) (A) (A) (A)
                 (A) (A) (A) (A) (A) (A) (A) (A) (A) (A) (A) (A)
                 (A) (A) (A) (A) (A) (A)
       Virtual   (A) (A) (A) (A) (A) (A) (A) (A) (A) (A) (A) (A)
                 (A) (A) (A) (A) (A) (A) (A) (A) (A) (A) (A) (A)
                 (A) (A) (A) (A) (A) (A) (A) (A) (A) (A) (A) (A)
                 (A) (A) (A) (A) (A) (A) (A) (A) (A) (A) (A) (A)
                 (A) (A) (A) (A) (A) (A) (A) (A) (A) (A) (A) (A)
                 (A) (A) (A) (A) (A) (A) (A) (A) (A) (A) (A) (A)
                 (A) (A) (A) (A) (A) (A) (A) (A) (A) (A) (A) (A)
                 (A) (A) (A) (A) (A) (A) (A) (A) (A) (A) (A) (A)
                 (A) (A) (A) (A) (A) (A) (A) (A) (A) (A) (A) (A)
                 (A) (A) (A) (A) (A) (A) (A) (A) (A) (A) (A) (A)
                 (A) (A) (A) (A) (A) (A) (A) (A) (A) (A) (A) (A)
                 (A) (A) (A) (A) (A) (A) (A) (A) (A) (A) (A) (A)
                 (A) (A) (A) (A) (A) (A) (A) (A) (A) (A) (A) (A)
                 (A) (A) (A) (A) (A) (A) (A) (A) (A) (A) (A) (A)
                 (A) (A) (A) (A) (A) (A) (A) (A) (A) (A) (A) (A)
                 (A) (A) (A) (A) (A) (A) (A) (A) (A) (A) (A) (A)
                 (A) (A) (A) (A) (A) (A) (A) (A) (A) (A) (A) (A)
                 (A) (A) (A) (A) (A) (A) (A) (A) (A) (A) (A) (A)
                 (A) (A) (A) (A) (A) (A) (A) (A) (A) (A) (A) (A)
                 (A) (A) (A) (A) (A) (A) (A) (A) (A) (A) (A) (A)
                 (A) (A) (A) (A) (A) (A) (A) (A) (A) (A) (A) (A)
                 (A) (A) (A) (A) (A) (A) (A) (A) (A) (A) (A) (A)
                 (A) (A) (A) (A) (A) (A) (A) (A) (A) (A) (A) (A)
                 (A) (A) (A) (A) (A) (A) (A) (A) (A) (A) (A) (A)
                 (A) (A) (A) (A) (A) (A) (A) (A) (A) (A) (A) (A)
                 (A) (A) (A) (A) (A) (A) (A) (A) (A) (A) (A) (A)
                 (A) (A) (A) (A) (A) (A) (A) (A) (A) (A) (A) (A)
                 (A) (A) (A) (A) (A) (A) (A) (A) (A) (A) (A) (A)
                 (A) (A) (A) (A) (A) (A) (A) (A) (A) (A) (A) (A)
                 (A) (A) (A) (A) (A) (A) (A) (A) (A) (A) (A) (A)
                 (A) (A) (A) (A) (A) (A) (A) (A) (A) (A) (A) (A)
                 (A) (A) (A) (A) (A) (A) (A) (A) (A) (A) (A) (A)
                 (A) (A) (A) (A) (A) (A) (A) (A) (A) (A) (A) (A)
                 (A)
    24 initial guesses have been made.
 Convergence on wavefunction:    0.001000000000000
 Iteration     1 Dimension    24 NMult     0 NNew     24
 CISAX will form    24 AO SS matrices at one time.
 New state      1 was old state      2
 New state      2 was old state      6
 New state      3 was old state      1
 New state      5 was old state      3
 New state      6 was old state     16
 New state      7 was old state      8
 New state      8 was old state      7
 New state      9 was old state     10
 New state     10 was old state      9
 New state     11 was old state      5
 Vector   6 SDiff=1.56D+00 TDiff=9.43D+00 assumed to be singlet.
 Vector  12 SDiff=1.57D+00 TDiff=9.22D+00 assumed to be singlet.
 Iteration     2 Dimension    36 NMult    24 NNew     12
 New state      6 was old state      8
 Iteration     3 Dimension    48 NMult    36 NNew     12
 Iteration     4 Dimension    60 NMult    48 NNew     12
 Iteration     5 Dimension    72 NMult    60 NNew     12
 Iteration     6 Dimension    82 NMult    72 NNew     10
 Iteration     7 Dimension    88 NMult    82 NNew      6
 Iteration     8 Dimension    92 NMult    88 NNew      4
 Iteration     9 Dimension    94 NMult    92 NNew      2
 Iteration    10 Dimension    96 NMult    94 NNew      2
 Iteration    11 Dimension    98 NMult    96 NNew      2
 ***********************************************************************
 Excited states from <AA,BB:AA,BB> singles matrix:
 ***********************************************************************
 
 Ground to excited state transition densities written to RWF  633
 Ground to excited state transition electric dipole moments (Au):
       state          X           Y           Z        Dip. S.      Osc.
         1        -0.0000     -0.0000      0.0000      0.0000      0.0000
         2        -0.0000     -0.0000     -0.0000      0.0000      0.0000
         3         1.3308      0.5299     -0.0201      2.0523      0.1621
         4        -0.0000      0.0000     -0.0000      0.0000      0.0000
         5        -0.1039      0.0627     -0.0207      0.0152      0.0015
         6         0.0501      0.8668     -0.0281      0.7546      0.0768
 Ground to excited state transition velocity dipole moments (Au):
       state          X           Y           Z        Dip. S.      Osc.
         1         0.0000      0.0000     -0.0000      0.0000      0.0000
         2         0.0000      0.0000      0.0000      0.0000      0.0000
         3        -0.1524     -0.0612      0.0031      0.0270      0.1519
         4        -0.0000     -0.0000     -0.0000      0.0000      0.0000
         5         0.0154     -0.0079      0.0056      0.0003      0.0015
         6        -0.0098     -0.1291      0.0012      0.0168      0.0733
 Ground to excited state transition magnetic dipole moments (Au):
       state          X           Y           Z
         1         0.0000      0.0000     -0.0000
         2         0.0000      0.0000     -0.0000
         3         0.0034     -0.0133     -0.4237
         4         0.0000      0.0000      0.0000
         5         0.0097      0.1954      0.0767
         6        -0.0130     -0.0019     -0.2470
 Ground to excited state transition velocity quadrupole moments (Au):
       state          XX          YY          ZZ          XY          XZ          YZ
         1        -0.0000      0.0000      0.0000     -0.0000      0.0000      0.0000
         2        -0.0000      0.0000     -0.0000     -0.0000     -0.0000     -0.0000
         3         1.0506     -0.5487     -0.0140     -0.0902     -0.0336      0.0427
         4         0.0000      0.0000      0.0000      0.0000     -0.0000     -0.0000
         5         0.0100      0.0043      0.0140     -0.0468     -0.0550      0.0555
         6         0.2325     -0.6751      0.0425      0.0802      0.0278      0.0199
 <0|del|b> * <b|rxdel|0> + <0|del|b> * <b|delr+rdel|0>
 Rotatory Strengths (R) in cgs (10**-40 erg-esu-cm/Gauss)
       state          XX          YY          ZZ    R(velocity)    E-M Angle
         1         0.0000      0.0000      0.0000      0.0000       90.00
         2         0.0000     -0.0000      0.0000      0.0000       90.00
         3        -8.5370    -24.0934     26.4369     -2.0645       90.85
         4        -0.0000     -0.0000     -0.0000     -0.0000       90.00
         5        -4.3611      4.0891     -4.3691     -1.5470      104.62
         6         8.4227     -1.0665     -7.0080      0.1161       90.00
 1/2[<0|r|b>*<b|rxdel|0> + (<0|rxdel|b>*<b|r|0>)*]
 Rotatory Strengths (R) in cgs (10**-40 erg-esu-cm/Gauss)
       state          XX          YY          ZZ     R(length)
         1         0.0000      0.0000      0.0000      0.0000
         2         0.0000      0.0000     -0.0000      0.0000
         3        -3.2120      4.9915     -6.0310     -1.4172
         4         0.0000     -0.0000      0.0000      0.0000
         5         0.7111     -8.6660      1.1215     -2.2778
         6         0.4623      1.1553     -4.9037     -1.0954
  1/2[<0|del|b>*<b|r|0> + (<0|r|b>*<b|del|0>)*] (Au)
       state          X           Y           Z        Dip. S.   Osc.(frdel)
         1        -0.0000     -0.0000     -0.0000      0.0000      0.0000
         2        -0.0000     -0.0000     -0.0000      0.0000      0.0000
         3        -0.2028     -0.0325     -0.0001      0.2353      0.1569
         4         0.0000     -0.0000      0.0000      0.0000      0.0000
         5        -0.0016     -0.0005     -0.0001      0.0022      0.0015
         6        -0.0005     -0.1119     -0.0000      0.1125      0.0750

 Excitation energies and oscillator strengths:
 
 Excited State   1:      Triplet-A      1.9065 eV  650.31 nm  f=0.0000  <S**2>=2.000
      78 -> 79         0.67363
      78 -> 80         0.15143
      78 <- 79         0.11056
 This state for optimization and/or second-order correction.
 Total Energy, E(TD-HF/TD-DFT) =  -1301.67148233    
 Copying the excited state density for this state as the 1-particle RhoCI density.
 
 Excited State   2:      Triplet-A      2.9738 eV  416.92 nm  f=0.0000  <S**2>=2.000
      74 -> 79        -0.39592
      74 -> 80         0.11377
      75 -> 79         0.14323
      78 -> 80         0.52005
 
 Excited State   3:      Singlet-A      3.2237 eV  384.60 nm  f=0.1621  <S**2>=0.000
      78 -> 79         0.69927
 
 Excited State   4:      Triplet-A      3.6676 eV  338.05 nm  f=0.0000  <S**2>=2.000
      74 -> 79        -0.23454
      74 -> 80         0.14528
      75 -> 79         0.12016
      76 -> 82        -0.32341
      77 -> 79        -0.12506
      77 -> 80        -0.15015
      77 -> 81         0.36527
      78 -> 80        -0.21631
      78 -> 83        -0.10426
      78 -> 84         0.11233
 
 Excited State   5:      Singlet-A      3.9968 eV  310.21 nm  f=0.0015  <S**2>=0.000
      77 -> 79         0.69149
      77 -> 80         0.11177
 
 Excited State   6:      Singlet-A      4.1520 eV  298.61 nm  f=0.0768  <S**2>=0.000
      74 -> 79         0.11205
      78 -> 80         0.68251
 SavETr:  write IOETrn=   770 NScale= 10 NData=  16 NLR=1 NState=    6 LETran=     118.

 **********************************************************************

            Population analysis using the SCF Density.

 **********************************************************************

 Orbital symmetries:
       Occupied  (A) (A) (A) (A) (A) (A) (A) (A) (A) (A) (A) (A)
                 (A) (A) (A) (A) (A) (A) (A) (A) (A) (A) (A) (A)
                 (A) (A) (A) (A) (A) (A) (A) (A) (A) (A) (A) (A)
                 (A) (A) (A) (A) (A) (A) (A) (A) (A) (A) (A) (A)
                 (A) (A) (A) (A) (A) (A) (A) (A) (A) (A) (A) (A)
                 (A) (A) (A) (A) (A) (A) (A) (A) (A) (A) (A) (A)
                 (A) (A) (A) (A) (A) (A)
       Virtual   (A) (A) (A) (A) (A) (A) (A) (A) (A) (A) (A) (A)
                 (A) (A) (A) (A) (A) (A) (A) (A) (A) (A) (A) (A)
                 (A) (A) (A) (A) (A) (A) (A) (A) (A) (A) (A) (A)
                 (A) (A) (A) (A) (A) (A) (A) (A) (A) (A) (A) (A)
                 (A) (A) (A) (A) (A) (A) (A) (A) (A) (A) (A) (A)
                 (A) (A) (A) (A) (A) (A) (A) (A) (A) (A) (A) (A)
                 (A) (A) (A) (A) (A) (A) (A) (A) (A) (A) (A) (A)
                 (A) (A) (A) (A) (A) (A) (A) (A) (A) (A) (A) (A)
                 (A) (A) (A) (A) (A) (A) (A) (A) (A) (A) (A) (A)
                 (A) (A) (A) (A) (A) (A) (A) (A) (A) (A) (A) (A)
                 (A) (A) (A) (A) (A) (A) (A) (A) (A) (A) (A) (A)
                 (A) (A) (A) (A) (A) (A) (A) (A) (A) (A) (A) (A)
                 (A) (A) (A) (A) (A) (A) (A) (A) (A) (A) (A) (A)
                 (A) (A) (A) (A) (A) (A) (A) (A) (A) (A) (A) (A)
                 (A) (A) (A) (A) (A) (A) (A) (A) (A) (A) (A) (A)
                 (A) (A) (A) (A) (A) (A) (A) (A) (A) (A) (A) (A)
                 (A) (A) (A) (A) (A) (A) (A) (A) (A) (A) (A) (A)
                 (A) (A) (A) (A) (A) (A) (A) (A) (A) (A) (A) (A)
                 (A) (A) (A) (A) (A) (A) (A) (A) (A) (A) (A) (A)
                 (A) (A) (A) (A) (A) (A) (A) (A) (A) (A) (A) (A)
                 (A) (A) (A) (A) (A) (A) (A) (A) (A) (A) (A) (A)
                 (A) (A) (A) (A) (A) (A) (A) (A) (A) (A) (A) (A)
                 (A) (A) (A) (A) (A) (A) (A) (A) (A) (A) (A) (A)
                 (A) (A) (A) (A) (A) (A) (A) (A) (A) (A) (A) (A)
                 (A) (A) (A) (A) (A) (A) (A) (A) (A) (A) (A) (A)
                 (A) (A) (A) (A) (A) (A) (A) (A) (A) (A) (A) (A)
                 (A) (A) (A) (A) (A) (A) (A) (A) (A) (A) (A) (A)
                 (A) (A) (A) (A) (A) (A) (A) (A) (A) (A) (A) (A)
                 (A) (A) (A) (A) (A) (A) (A) (A) (A) (A) (A) (A)
                 (A) (A) (A) (A) (A) (A) (A) (A) (A) (A) (A) (A)
                 (A) (A) (A) (A) (A) (A) (A) (A) (A) (A) (A) (A)
                 (A) (A) (A) (A) (A) (A) (A) (A) (A) (A) (A) (A)
                 (A) (A) (A) (A) (A) (A) (A) (A) (A) (A) (A) (A)
                 (A)
 The electronic state is 1-A.
 Alpha  occ. eigenvalues -- -101.57835 -19.23695 -14.36038 -14.32491 -10.31397
 Alpha  occ. eigenvalues --  -10.30091 -10.28323 -10.27134 -10.25576 -10.25361
 Alpha  occ. eigenvalues --  -10.24105 -10.23813 -10.22925 -10.21971 -10.21606
 Alpha  occ. eigenvalues --  -10.21583 -10.21460 -10.21419 -10.21379 -10.19086
 Alpha  occ. eigenvalues --  -10.18433  -9.49266  -7.25689  -7.24713  -7.24662
 Alpha  occ. eigenvalues --   -1.13293  -0.93610  -0.92858  -0.90573  -0.87585
 Alpha  occ. eigenvalues --   -0.85986  -0.84256  -0.80289  -0.77299  -0.76871
 Alpha  occ. eigenvalues --   -0.75569  -0.69713  -0.68561  -0.67810  -0.66064
 Alpha  occ. eigenvalues --   -0.62827  -0.60814  -0.59611  -0.57237  -0.55017
 Alpha  occ. eigenvalues --   -0.53503  -0.50593  -0.49534  -0.49162  -0.48514
 Alpha  occ. eigenvalues --   -0.48152  -0.47311  -0.45555  -0.44871  -0.44697
 Alpha  occ. eigenvalues --   -0.44245  -0.42900  -0.42419  -0.40745  -0.40047
 Alpha  occ. eigenvalues --   -0.39694  -0.39307  -0.38714  -0.38164  -0.37268
 Alpha  occ. eigenvalues --   -0.36947  -0.36199  -0.35894  -0.35752  -0.33898
 Alpha  occ. eigenvalues --   -0.33643  -0.33259  -0.31229  -0.30139  -0.29431
 Alpha  occ. eigenvalues --   -0.27415  -0.26966  -0.23263
 Alpha virt. eigenvalues --   -0.09880  -0.05934  -0.03538  -0.03242  -0.01691
 Alpha virt. eigenvalues --   -0.00813  -0.00234   0.00346   0.00854   0.01184
 Alpha virt. eigenvalues --    0.01488   0.01722   0.02859   0.02968   0.03307
 Alpha virt. eigenvalues --    0.03912   0.04316   0.04708   0.05197   0.05385
 Alpha virt. eigenvalues --    0.05968   0.06239   0.06812   0.07423   0.07567
 Alpha virt. eigenvalues --    0.07686   0.08266   0.08513   0.08822   0.09555
 Alpha virt. eigenvalues --    0.09934   0.10035   0.10287   0.10670   0.10988
 Alpha virt. eigenvalues --    0.11266   0.11581   0.11765   0.12264   0.12589
 Alpha virt. eigenvalues --    0.12856   0.13178   0.13647   0.14100   0.14826
 Alpha virt. eigenvalues --    0.15244   0.15438   0.15600   0.15951   0.16153
 Alpha virt. eigenvalues --    0.16321   0.17054   0.17240   0.17540   0.18078
 Alpha virt. eigenvalues --    0.18192   0.18509   0.18746   0.19055   0.19407
 Alpha virt. eigenvalues --    0.19462   0.19935   0.20164   0.20368   0.20756
 Alpha virt. eigenvalues --    0.20941   0.21441   0.21700   0.22182   0.22519
 Alpha virt. eigenvalues --    0.22737   0.22976   0.23614   0.23673   0.24236
 Alpha virt. eigenvalues --    0.24387   0.24579   0.24994   0.25236   0.25490
 Alpha virt. eigenvalues --    0.26006   0.26305   0.26443   0.26870   0.27086
 Alpha virt. eigenvalues --    0.27201   0.27312   0.27831   0.27965   0.28268
 Alpha virt. eigenvalues --    0.28652   0.28910   0.29778   0.30046   0.30179
 Alpha virt. eigenvalues --    0.30655   0.30966   0.31477   0.31974   0.32436
 Alpha virt. eigenvalues --    0.32953   0.33508   0.33718   0.34179   0.34432
 Alpha virt. eigenvalues --    0.35226   0.35553   0.35866   0.36932   0.37165
 Alpha virt. eigenvalues --    0.37701   0.38671   0.39418   0.40059   0.40588
 Alpha virt. eigenvalues --    0.41899   0.42920   0.43907   0.44387   0.45612
 Alpha virt. eigenvalues --    0.48201   0.50267   0.52175   0.52957   0.55234
 Alpha virt. eigenvalues --    0.59336   0.60601   0.61466   0.63145   0.64237
 Alpha virt. eigenvalues --    0.65027   0.66073   0.67473   0.68113   0.69563
 Alpha virt. eigenvalues --    0.69983   0.70459   0.71111   0.71922   0.72161
 Alpha virt. eigenvalues --    0.72602   0.72994   0.73340   0.73703   0.74120
 Alpha virt. eigenvalues --    0.74865   0.75659   0.76232   0.77210   0.78175
 Alpha virt. eigenvalues --    0.78306   0.79377   0.80768   0.81055   0.81259
 Alpha virt. eigenvalues --    0.81870   0.82511   0.82844   0.83588   0.84238
 Alpha virt. eigenvalues --    0.84723   0.85525   0.86169   0.86752   0.87246
 Alpha virt. eigenvalues --    0.87587   0.88813   0.89454   0.90428   0.91459
 Alpha virt. eigenvalues --    0.92189   0.92499   0.92810   0.93993   0.94661
 Alpha virt. eigenvalues --    0.95712   0.96582   0.97781   0.98458   0.99602
 Alpha virt. eigenvalues --    0.99992   1.00346   1.01036   1.01670   1.02038
 Alpha virt. eigenvalues --    1.02687   1.03217   1.03962   1.05430   1.06307
 Alpha virt. eigenvalues --    1.06715   1.07675   1.07793   1.08339   1.09979
 Alpha virt. eigenvalues --    1.11244   1.12441   1.13161   1.13989   1.15001
 Alpha virt. eigenvalues --    1.16228   1.17128   1.19136   1.19510   1.21203
 Alpha virt. eigenvalues --    1.21671   1.22103   1.22650   1.23992   1.25288
 Alpha virt. eigenvalues --    1.26005   1.26442   1.27770   1.28783   1.29304
 Alpha virt. eigenvalues --    1.31443   1.31818   1.32689   1.34266   1.37303
 Alpha virt. eigenvalues --    1.37435   1.38523   1.38835   1.39322   1.40177
 Alpha virt. eigenvalues --    1.41556   1.42001   1.42709   1.44210   1.45373
 Alpha virt. eigenvalues --    1.46627   1.48259   1.48635   1.51340   1.51899
 Alpha virt. eigenvalues --    1.54168   1.54890   1.55971   1.57113   1.59189
 Alpha virt. eigenvalues --    1.60008   1.61625   1.64772   1.65946   1.68367
 Alpha virt. eigenvalues --    1.70157   1.71709   1.72274   1.72910   1.74414
 Alpha virt. eigenvalues --    1.77325   1.78413   1.81457   1.82996   1.84527
 Alpha virt. eigenvalues --    1.85476   1.85954   1.86540   1.87570   1.88416
 Alpha virt. eigenvalues --    1.89776   1.90685   1.91612   1.91946   1.94025
 Alpha virt. eigenvalues --    1.94523   1.94841   1.96252   1.96714   1.97759
 Alpha virt. eigenvalues --    1.98583   1.99282   2.00120   2.00276   2.02006
 Alpha virt. eigenvalues --    2.03323   2.03700   2.04293   2.06726   2.07372
 Alpha virt. eigenvalues --    2.07853   2.09276   2.10158   2.11202   2.13184
 Alpha virt. eigenvalues --    2.13929   2.14553   2.15251   2.15358   2.16691
 Alpha virt. eigenvalues --    2.19185   2.19733   2.20964   2.22721   2.25238
 Alpha virt. eigenvalues --    2.28446   2.29136   2.31385   2.32249   2.32973
 Alpha virt. eigenvalues --    2.33645   2.34928   2.36504   2.37259   2.37618
 Alpha virt. eigenvalues --    2.38385   2.38982   2.40333   2.40728   2.42490
 Alpha virt. eigenvalues --    2.43974   2.45586   2.47564   2.48087   2.49212
 Alpha virt. eigenvalues --    2.51193   2.52401   2.53580   2.53952   2.54078
 Alpha virt. eigenvalues --    2.54668   2.57238   2.57491   2.57523   2.58343
 Alpha virt. eigenvalues --    2.59645   2.62724   2.65167   2.65939   2.66109
 Alpha virt. eigenvalues --    2.66934   2.69876   2.71276   2.72234   2.73071
 Alpha virt. eigenvalues --    2.74243   2.74642   2.76815   2.78928   2.79525
 Alpha virt. eigenvalues --    2.79807   2.81165   2.85249   2.86832   2.88376
 Alpha virt. eigenvalues --    2.90077   2.90583   2.91926   2.93292   2.96854
 Alpha virt. eigenvalues --    2.97565   2.99908   3.04405   3.05914   3.09526
 Alpha virt. eigenvalues --    3.11544   3.19462   3.24341   3.25781   3.27305
 Alpha virt. eigenvalues --    3.28804   3.29922   3.30854   3.33064   3.34025
 Alpha virt. eigenvalues --    3.39598   3.42343   3.43558   3.46239   3.49900
 Alpha virt. eigenvalues --    3.51893   3.51945   3.52833   3.59500   3.60485
 Alpha virt. eigenvalues --    3.88062   4.21871   4.27299   4.29119   4.31544
 Alpha virt. eigenvalues --    4.32135   4.33515   4.38394   4.39217   4.41533
 Alpha virt. eigenvalues --    4.47036   4.49604   4.50693   4.51273   4.53520
 Alpha virt. eigenvalues --    4.55883   4.58602   4.68047   4.71200   4.79307
 Alpha virt. eigenvalues --    4.81506   4.88092
          Condensed to atoms (all electrons):
               1          2          3          4          5          6
     1  C    7.633685   0.266391  -1.517873   0.034040  -1.371923   0.662400
     2  C    0.266391  18.685638  -3.050265   0.124166 -12.545720   4.979497
     3  C   -1.517873  -3.050265  11.927583  -0.041215   1.425685  -2.472741
     4  N    0.034040   0.124166  -0.041215   7.169919   0.037401   0.098860
     5  C   -1.371923 -12.545720   1.425685   0.037401  36.197622 -12.273349
     6  C    0.662400   4.979497  -2.472741   0.098860 -12.273349  19.097919
     7  C   -0.637447  -2.902081   0.825858   0.002471   3.383291  -5.237447
     8  C    0.013303   0.061040  -0.090449  -0.008086   0.775277   0.008707
     9  C    0.019420  -0.056620   0.165533  -0.008111   0.035791  -0.113070
    10  C    0.413282   1.269491  -0.893021   0.034218 -11.151440   2.478588
    11  C    0.027825   1.855598  -0.336144   0.014702  -4.740501   0.179724
    12  C    0.022131   0.399789   0.032823  -0.006782  -0.623791  -0.338512
    13  C    0.008667   0.039816  -0.029318   0.000430  -0.130706  -0.053750
    14  C   -0.000604   0.001850  -0.002575  -0.000003  -0.010894  -0.006440
    15  C   -0.002056   0.053705   0.015280  -0.000178  -0.015270  -0.080626
    16  C   -0.035374  -0.448580  -0.014123   0.003777   0.584814   0.273593
    17  C   -0.154011  -1.352533   0.128391  -0.002384   6.153761  -0.092511
    18  Cl   0.006749  -0.093403  -0.015272   0.000080   0.031452  -0.103067
    19  C   -0.242390  -1.752614   0.330598  -0.005072   0.401404  -0.730896
    20  N   -0.022509   0.076346  -0.007104   0.000117  -0.201321   0.125608
    21  O    0.090321   0.037923   0.016279  -0.000645  -0.413467   0.056212
    22  H    0.484541  -0.159611  -0.010973   0.000457   0.063227  -0.016343
    23  H    0.515684  -0.137384  -0.063679   0.001098   0.013586   0.027464
    24  H   -0.006424   0.072587  -0.078150   0.009912   0.187592  -0.108179
    25  H    0.000453  -0.011389  -0.004617   0.000777  -0.043475  -0.020914
    26  H    0.000187  -0.032562   0.009842  -0.001757   0.054942  -0.036167
    27  H    0.001295   0.031163  -0.010363   0.001105   0.039921   0.114528
    28  H    0.000937   0.005508  -0.007973   0.000242  -0.027764   0.000190
    29  H   -0.004271  -0.013722  -0.002745  -0.000184  -0.021138  -0.006129
    30  H   -0.000350   0.004583   0.001026  -0.000030   0.052246   0.066965
    31  H    0.000106   0.005327  -0.000969   0.000015   0.009012   0.030719
    32  H    0.000002  -0.000044  -0.000050   0.000000  -0.000526  -0.002826
    33  H   -0.000000  -0.000013   0.000002  -0.000000  -0.000128  -0.001403
    34  H    0.000000   0.000060  -0.000004   0.000000   0.000075  -0.002600
    35  H    0.000198  -0.004050  -0.000422   0.000001  -0.019420  -0.010010
    36  H    0.002764  -0.002726  -0.000596   0.000000   0.021563  -0.021286
               7          8          9         10         11         12
     1  C   -0.637447   0.013303   0.019420   0.413282   0.027825   0.022131
     2  C   -2.902081   0.061040  -0.056620   1.269491   1.855598   0.399789
     3  C    0.825858  -0.090449   0.165533  -0.893021  -0.336144   0.032823
     4  N    0.002471  -0.008086  -0.008111   0.034218   0.014702  -0.006782
     5  C    3.383291   0.775277   0.035791 -11.151440  -4.740501  -0.623791
     6  C   -5.237447   0.008707  -0.113070   2.478588   0.179724  -0.338512
     7  C   13.724221  -0.771703  -0.610001  -1.078432  -0.952706  -1.043078
     8  C   -0.771703   6.229760  -0.557961  -0.470519  -0.141714  -0.285175
     9  C   -0.610001  -0.557961   6.719351  -0.116663   0.041932   0.338595
    10  C   -1.078432  -0.470519  -0.116663  18.725615   2.062695   1.916383
    11  C   -0.952706  -0.141714   0.041932   2.062695  19.432194  -3.507204
    12  C   -1.043078  -0.285175   0.338595   1.916383  -3.507204  25.588977
    13  C    0.153814  -0.011717  -0.018802  -0.218763   1.242122  -5.343658
    14  C    0.027182  -0.013713  -0.012521  -0.302519  -0.261073   0.229347
    15  C   -0.169295   0.023433  -0.041445   0.176983   0.692745   2.125138
    16  C    1.636970   0.128828  -0.563674  -1.722247  -4.344603 -12.987229
    17  C   -0.641679   0.216773   0.057603  -5.071268  -3.852321  -0.577765
    18  Cl  -0.025608  -0.006661   0.000473  -0.112621  -0.108131  -0.049162
    19  C    0.800150   0.007055  -0.022980  -0.918075  -1.357033   0.052595
    20  N   -0.000234   0.000325  -0.000545  -0.207485   0.010145  -0.010879
    21  O   -0.157948   0.007182   0.007547   0.546823  -0.054905   0.012253
    22  H   -0.002701   0.000773  -0.000992  -0.010526  -0.001220   0.000011
    23  H   -0.007258   0.000337  -0.000261   0.005620   0.000195  -0.000005
    24  H    0.153536   0.083504  -0.022994  -0.055917  -0.015385  -0.002825
    25  H   -0.034384   0.426459  -0.019377   0.060401   0.005585   0.004851
    26  H   -0.056952   0.425982   0.004075  -0.000702  -0.047122   0.047510
    27  H   -0.224390   0.526082  -0.047202  -0.098572   0.040941  -0.076389
    28  H   -0.053494  -0.002986   0.415984   0.018867   0.009175  -0.004159
    29  H   -0.090962  -0.010434   0.484443   0.011191  -0.005067   0.000348
    30  H   -0.229704   0.006055   0.525396  -0.036676   0.001451   0.003997
    31  H   -0.026506   0.014846  -0.000913   0.027721   0.017696   0.263615
    32  H   -0.000376   0.001232   0.000424   0.011769   0.032666  -0.040297
    33  H    0.001230  -0.000341  -0.000178  -0.001541  -0.019579   0.012933
    34  H   -0.001742   0.000717   0.001062   0.008292   0.053643  -0.002613
    35  H   -0.002863  -0.001017   0.008858   0.090497  -0.011409   0.036182
    36  H   -0.003062  -0.000042   0.000169   0.037892   0.008065   0.003193
              13         14         15         16         17         18
     1  C    0.008667  -0.000604  -0.002056  -0.035374  -0.154011   0.006749
     2  C    0.039816   0.001850   0.053705  -0.448580  -1.352533  -0.093403
     3  C   -0.029318  -0.002575   0.015280  -0.014123   0.128391  -0.015272
     4  N    0.000430  -0.000003  -0.000178   0.003777  -0.002384   0.000080
     5  C   -0.130706  -0.010894  -0.015270   0.584814   6.153761   0.031452
     6  C   -0.053750  -0.006440  -0.080626   0.273593  -0.092511  -0.103067
     7  C    0.153814   0.027182  -0.169295   1.636970  -0.641679  -0.025608
     8  C   -0.011717  -0.013713   0.023433   0.128828   0.216773  -0.006661
     9  C   -0.018802  -0.012521  -0.041445  -0.563674   0.057603   0.000473
    10  C   -0.218763  -0.302519   0.176983  -1.722247  -5.071268  -0.112621
    11  C    1.242122  -0.261073   0.692745  -4.344603  -3.852321  -0.108131
    12  C   -5.343658   0.229347   2.125138 -12.987229  -0.577765  -0.049162
    13  C    7.902426   0.449650  -0.639387   2.724903  -0.232566   0.087914
    14  C    0.449650   5.242123   0.490337  -0.044464   0.013794   0.000897
    15  C   -0.639387   0.490337   7.178927  -3.708071  -0.205677   0.057416
    16  C    2.724903  -0.044464  -3.708071  23.636659   0.892102  -0.056202
    17  C   -0.232566   0.013794  -0.205677   0.892102  12.750564  -0.335389
    18  Cl   0.087914   0.000897   0.057416  -0.056202  -0.335389  17.368534
    19  C   -0.077311  -0.000777  -0.039278   0.037289  -1.372065   0.097592
    20  N   -0.001385   0.000220  -0.000854   0.010551   0.432194  -0.090315
    21  O    0.003890  -0.000894   0.000472  -0.015073  -0.462595   0.027477
    22  H    0.000013  -0.000001  -0.000001  -0.000016   0.000003  -0.000126
    23  H    0.000004   0.000000  -0.000001   0.000010  -0.000363   0.000010
    24  H    0.000683   0.000058  -0.000478   0.000371   0.017523  -0.000190
    25  H   -0.003276  -0.000458   0.000150  -0.005428  -0.004463  -0.000001
    26  H   -0.015594   0.001397  -0.001457  -0.002070   0.006751  -0.000316
    27  H    0.026828  -0.001422   0.006526   0.019764   0.001008  -0.000269
    28  H    0.001199  -0.000588  -0.003780   0.005142  -0.001903   0.000029
    29  H   -0.001172   0.001425  -0.003240   0.024734  -0.001361   0.000451
    30  H    0.004482  -0.004683   0.006116  -0.059758   0.009909  -0.000508
    31  H   -0.059898  -0.014374  -0.000985   0.007345   0.026926  -0.005831
    32  H    0.292379   0.004530   0.006613   0.005516  -0.001038   0.000230
    33  H    0.006906   0.301152   0.003660   0.010464  -0.001770   0.000168
    34  H    0.015914  -0.008500   0.306061  -0.055096  -0.004143  -0.000202
    35  H   -0.008008  -0.013514  -0.078130   0.246841   0.032169   0.005653
    36  H    0.000784  -0.000060   0.000206  -0.003504  -0.130678   0.061655
              19         20         21         22         23         24
     1  C   -0.242390  -0.022509   0.090321   0.484541   0.515684  -0.006424
     2  C   -1.752614   0.076346   0.037923  -0.159611  -0.137384   0.072587
     3  C    0.330598  -0.007104   0.016279  -0.010973  -0.063679  -0.078150
     4  N   -0.005072   0.000117  -0.000645   0.000457   0.001098   0.009912
     5  C    0.401404  -0.201321  -0.413467   0.063227   0.013586   0.187592
     6  C   -0.730896   0.125608   0.056212  -0.016343   0.027464  -0.108179
     7  C    0.800150  -0.000234  -0.157948  -0.002701  -0.007258   0.153536
     8  C    0.007055   0.000325   0.007182   0.000773   0.000337   0.083504
     9  C   -0.022980  -0.000545   0.007547  -0.000992  -0.000261  -0.022994
    10  C   -0.918075  -0.207485   0.546823  -0.010526   0.005620  -0.055917
    11  C   -1.357033   0.010145  -0.054905  -0.001220   0.000195  -0.015385
    12  C    0.052595  -0.010879   0.012253   0.000011  -0.000005  -0.002825
    13  C   -0.077311  -0.001385   0.003890   0.000013   0.000004   0.000683
    14  C   -0.000777   0.000220  -0.000894  -0.000001   0.000000   0.000058
    15  C   -0.039278  -0.000854   0.000472  -0.000001  -0.000001  -0.000478
    16  C    0.037289   0.010551  -0.015073  -0.000016   0.000010   0.000371
    17  C   -1.372065   0.432194  -0.462595   0.000003  -0.000363   0.017523
    18  Cl   0.097592  -0.090315   0.027477  -0.000126   0.000010  -0.000190
    19  C   10.239590   0.325892  -0.002753   0.008895  -0.003909   0.003508
    20  N    0.325892   7.085216  -0.201319   0.000585   0.000091  -0.000026
    21  O   -0.002753  -0.201319   8.730704  -0.001168   0.000737   0.002168
    22  H    0.008895   0.000585  -0.001168   0.488770  -0.029546   0.000006
    23  H   -0.003909   0.000091   0.000737  -0.029546   0.507646  -0.000002
    24  H    0.003508  -0.000026   0.002168   0.000006  -0.000002   0.651628
    25  H    0.002464  -0.000001   0.000065   0.000000  -0.000000  -0.006542
    26  H    0.004139  -0.000002  -0.000088   0.000000  -0.000000  -0.003143
    27  H   -0.005900   0.000004   0.000062  -0.000000  -0.000000   0.005968
    28  H    0.000471   0.000003   0.000009   0.000000   0.000000  -0.005810
    29  H   -0.003224   0.000036  -0.000245   0.000000   0.000000  -0.004087
    30  H   -0.001346  -0.000023   0.000158  -0.000000   0.000000   0.005854
    31  H    0.003033   0.000082  -0.000147   0.000000  -0.000000  -0.000003
    32  H    0.000247  -0.000001  -0.000001  -0.000000   0.000000  -0.000000
    33  H   -0.000063  -0.000000   0.000000   0.000000  -0.000000  -0.000000
    34  H   -0.000197  -0.000000  -0.000000   0.000000   0.000000  -0.000000
    35  H    0.024363  -0.000167   0.000023   0.000000  -0.000000  -0.000002
    36  H    0.063039   0.161583   0.035864  -0.000003   0.000000  -0.000000
              25         26         27         28         29         30
     1  C    0.000453   0.000187   0.001295   0.000937  -0.004271  -0.000350
     2  C   -0.011389  -0.032562   0.031163   0.005508  -0.013722   0.004583
     3  C   -0.004617   0.009842  -0.010363  -0.007973  -0.002745   0.001026
     4  N    0.000777  -0.001757   0.001105   0.000242  -0.000184  -0.000030
     5  C   -0.043475   0.054942   0.039921  -0.027764  -0.021138   0.052246
     6  C   -0.020914  -0.036167   0.114528   0.000190  -0.006129   0.066965
     7  C   -0.034384  -0.056952  -0.224390  -0.053494  -0.090962  -0.229704
     8  C    0.426459   0.425982   0.526082  -0.002986  -0.010434   0.006055
     9  C   -0.019377   0.004075  -0.047202   0.415984   0.484443   0.525396
    10  C    0.060401  -0.000702  -0.098572   0.018867   0.011191  -0.036676
    11  C    0.005585  -0.047122   0.040941   0.009175  -0.005067   0.001451
    12  C    0.004851   0.047510  -0.076389  -0.004159   0.000348   0.003997
    13  C   -0.003276  -0.015594   0.026828   0.001199  -0.001172   0.004482
    14  C   -0.000458   0.001397  -0.001422  -0.000588   0.001425  -0.004683
    15  C    0.000150  -0.001457   0.006526  -0.003780  -0.003240   0.006116
    16  C   -0.005428  -0.002070   0.019764   0.005142   0.024734  -0.059758
    17  C   -0.004463   0.006751   0.001008  -0.001903  -0.001361   0.009909
    18  Cl  -0.000001  -0.000316  -0.000269   0.000029   0.000451  -0.000508
    19  C    0.002464   0.004139  -0.005900   0.000471  -0.003224  -0.001346
    20  N   -0.000001  -0.000002   0.000004   0.000003   0.000036  -0.000023
    21  O    0.000065  -0.000088   0.000062   0.000009  -0.000245   0.000158
    22  H    0.000000   0.000000  -0.000000   0.000000   0.000000  -0.000000
    23  H   -0.000000  -0.000000  -0.000000   0.000000   0.000000   0.000000
    24  H   -0.006542  -0.003143   0.005968  -0.005810  -0.004087   0.005854
    25  H    0.553133  -0.024563  -0.027685   0.002948   0.000074  -0.000177
    26  H   -0.024563   0.537921  -0.028590   0.000077  -0.000160   0.000076
    27  H   -0.027685  -0.028590   0.541280  -0.000317   0.000055   0.003323
    28  H    0.002948   0.000077  -0.000317   0.551438  -0.025773  -0.027161
    29  H    0.000074  -0.000160   0.000055  -0.025773   0.557622  -0.030453
    30  H   -0.000177   0.000076   0.003323  -0.027161  -0.030453   0.537019
    31  H    0.000033  -0.000252  -0.001016   0.000000  -0.000000  -0.000004
    32  H    0.000000   0.000001  -0.000003   0.000000   0.000000  -0.000000
    33  H   -0.000000   0.000000  -0.000002  -0.000000   0.000000  -0.000002
    34  H    0.000000  -0.000000  -0.000002   0.000000   0.000000  -0.000003
    35  H    0.000000   0.000001   0.000007   0.000040  -0.000102  -0.000442
    36  H   -0.000000  -0.000000  -0.000000  -0.000000  -0.000000   0.000000
              31         32         33         34         35         36
     1  C    0.000106   0.000002  -0.000000   0.000000   0.000198   0.002764
     2  C    0.005327  -0.000044  -0.000013   0.000060  -0.004050  -0.002726
     3  C   -0.000969  -0.000050   0.000002  -0.000004  -0.000422  -0.000596
     4  N    0.000015   0.000000  -0.000000   0.000000   0.000001   0.000000
     5  C    0.009012  -0.000526  -0.000128   0.000075  -0.019420   0.021563
     6  C    0.030719  -0.002826  -0.001403  -0.002600  -0.010010  -0.021286
     7  C   -0.026506  -0.000376   0.001230  -0.001742  -0.002863  -0.003062
     8  C    0.014846   0.001232  -0.000341   0.000717  -0.001017  -0.000042
     9  C   -0.000913   0.000424  -0.000178   0.001062   0.008858   0.000169
    10  C    0.027721   0.011769  -0.001541   0.008292   0.090497   0.037892
    11  C    0.017696   0.032666  -0.019579   0.053643  -0.011409   0.008065
    12  C    0.263615  -0.040297   0.012933  -0.002613   0.036182   0.003193
    13  C   -0.059898   0.292379   0.006906   0.015914  -0.008008   0.000784
    14  C   -0.014374   0.004530   0.301152  -0.008500  -0.013514  -0.000060
    15  C   -0.000985   0.006613   0.003660   0.306061  -0.078130   0.000206
    16  C    0.007345   0.005516   0.010464  -0.055096   0.246841  -0.003504
    17  C    0.026926  -0.001038  -0.001770  -0.004143   0.032169  -0.130678
    18  Cl  -0.005831   0.000230   0.000168  -0.000202   0.005653   0.061655
    19  C    0.003033   0.000247  -0.000063  -0.000197   0.024363   0.063039
    20  N    0.000082  -0.000001  -0.000000  -0.000000  -0.000167   0.161583
    21  O   -0.000147  -0.000001   0.000000  -0.000000   0.000023   0.035864
    22  H    0.000000  -0.000000   0.000000   0.000000   0.000000  -0.000003
    23  H   -0.000000   0.000000  -0.000000   0.000000  -0.000000   0.000000
    24  H   -0.000003  -0.000000  -0.000000  -0.000000  -0.000002  -0.000000
    25  H    0.000033   0.000000  -0.000000   0.000000   0.000000  -0.000000
    26  H   -0.000252   0.000001   0.000000  -0.000000   0.000001  -0.000000
    27  H   -0.001016  -0.000003  -0.000002  -0.000002   0.000007  -0.000000
    28  H    0.000000   0.000000  -0.000000   0.000000   0.000040  -0.000000
    29  H   -0.000000   0.000000   0.000000   0.000000  -0.000102  -0.000000
    30  H   -0.000004  -0.000000  -0.000002  -0.000003  -0.000442   0.000000
    31  H    0.583233  -0.005635  -0.000163   0.000016  -0.000164  -0.000000
    32  H   -0.005635   0.568791  -0.005524  -0.000168   0.000016   0.000000
    33  H   -0.000163  -0.005524   0.569616  -0.005485  -0.000163  -0.000000
    34  H    0.000016  -0.000168  -0.005485   0.568519  -0.005650   0.000000
    35  H   -0.000164   0.000016  -0.000163  -0.005650   0.582927   0.000001
    36  H   -0.000000   0.000000  -0.000000   0.000000   0.000001   0.500064
 Mulliken charges:
               1
     1  C   -0.209146
     2  C    0.592836
     3  C   -0.228260
     4  N   -0.459342
     5  C    0.122171
     6  C   -0.472711
     7  C    0.253334
     8  C   -0.585151
     9  C   -0.612345
    10  C    0.570658
    11  C    0.027016
    12  C   -0.191148
    13  C   -0.117511
    14  C   -0.063885
    15  C   -0.153557
    16  C   -0.184161
    17  C   -0.240989
    18  Cl   0.256494
    19  C    0.133555
    20  N   -0.484827
    21  O   -0.264920
    22  H    0.185945
    23  H    0.169923
    24  H    0.115259
    25  H    0.149357
    26  H    0.158598
    27  H    0.162261
    28  H    0.149449
    29  H    0.144088
    30  H    0.162663
    31  H    0.127133
    32  H    0.132074
    33  H    0.130223
    34  H    0.132045
    35  H    0.127755
    36  H    0.265115
 Sum of Mulliken charges =  -0.00000
 Mulliken charges with hydrogens summed into heavy atoms:
               1
     1  C    0.146722
     2  C    0.592836
     3  C   -0.228260
     4  N   -0.459342
     5  C    0.122171
     6  C   -0.472711
     7  C    0.368593
     8  C   -0.114936
     9  C   -0.156145
    10  C    0.570658
    11  C    0.027016
    12  C   -0.064015
    13  C    0.014562
    14  C    0.066338
    15  C   -0.021512
    16  C   -0.056406
    17  C   -0.240989
    18  Cl   0.256494
    19  C    0.133555
    20  N   -0.219712
    21  O   -0.264920
 Electronic spatial extent (au):  <R**2>=           6318.8369
 Charge=             -0.0000 electrons
 Dipole moment (field-independent basis, Debye):
    X=              2.9227    Y=             -1.0849    Z=              1.9140  Tot=              3.6582
 Quadrupole moment (field-independent basis, Debye-Ang):
   XX=           -124.7336   YY=           -148.8964   ZZ=           -128.7255
   XY=             -7.8116   XZ=             -7.0234   YZ=             -2.2606
 Traceless Quadrupole moment (field-independent basis, Debye-Ang):
   XX=              9.3849   YY=            -14.7779   ZZ=              5.3930
   XY=             -7.8116   XZ=             -7.0234   YZ=             -2.2606
 Octapole moment (field-independent basis, Debye-Ang**2):
  XXX=             23.1541  YYY=             13.2170  ZZZ=             -1.4875  XYY=             71.3408
  XXY=             25.3382  XXZ=             33.8744  XZZ=             22.2901  YZZ=              6.3955
  YYZ=             14.0940  XYZ=             20.8695
 Hexadecapole moment (field-independent basis, Debye-Ang**3):
 XXXX=          -4714.1589 YYYY=          -3104.2842 ZZZZ=           -679.5219 XXXY=           -325.7713
 XXXZ=           -118.6652 YYYX=             73.4749 YYYZ=            -47.4567 ZZZX=            -14.3390
 ZZZY=              2.3995 XXYY=          -1558.9204 XXZZ=           -978.6543 YYZZ=           -626.2605
 XXYZ=            -39.9396 YYXZ=            -73.3734 ZZXY=            -36.4122
 N-N= 1.744233512652D+03 E-N=-6.532081989330D+03  KE= 1.292242936520D+03
 Unable to Open any file for archive entry.
 1\1\GINC-N1\SP\RB3LYP TD-FC\6-31+G(d,p)\C17H15Cl1N2O1\HPCMGAC13\25-Aug
 -2025\0\\# td=(50-50,nstates=3) b3lyp/6-31+g(d,p) geom=connectivity\\T
 itle Card Required\\0,1\C,0,4.42418,0.532434,-0.368731\C,0,3.372661,-0
 .222428,0.015259\C,0,3.643881,-1.509558,0.600123\N,0,3.908153,-2.52726
 4,1.098767\C,0,1.978875,0.292769,-0.029025\C,0,0.807935,-0.398413,-0.1
 82769\C,0,0.83827,-1.875747,-0.588798\C,0,0.316128,-2.868076,0.468166\
 C,0,0.188253,-2.122233,-1.968021\C,0,-0.431569,0.379046,-0.045051\C,0,
 -1.780821,-0.270072,0.045443\C,0,-2.22971,-0.771007,1.275593\C,0,-3.50
 9067,-1.318877,1.392995\C,0,-4.354969,-1.370962,0.2824\C,0,-3.918576,-
 0.862735,-0.944015\C,0,-2.641894,-0.309505,-1.060156\C,0,-0.353371,1.7
 39483,0.043638\Cl,0,-1.774716,2.74356,0.221073\C,0,0.914059,2.468485,0
 .006619\N,0,1.163697,3.712466,-0.067822\O,0,2.01913,1.646795,0.119852\
 H,0,4.273798,1.529474,-0.765236\H,0,5.43774,0.160147,-0.273669\H,0,1.8
 9193,-2.119563,-0.731642\H,0,0.578281,-3.886926,0.163512\H,0,0.775525,
 -2.688766,1.444699\H,0,-0.768855,-2.820905,0.578119\H,0,0.422534,-3.14
 0004,-2.298426\H,0,0.57544,-1.427414,-2.721057\H,0,-0.898928,-2.027737
 ,-1.93617\H,0,-1.578043,-0.726807,2.143242\H,0,-3.8431,-1.701905,2.352
 747\H,0,-5.349389,-1.797736,0.373423\H,0,-4.573178,-0.889386,-1.81019\
 H,0,-2.314599,0.101104,-2.01073\H,0,0.29943,4.249517,-0.104303\\Versio
 n=ES64L-G16RevC.02\State=1-A\HF=-1301.7415462\RMSD=5.914e-09\PG=C01 [X
 (C17H15Cl1N2O1)]\\@
 The archive entry for this job was punched.


 TIME IS IN FACT THE HERO OF THE PLOT. THE TIME
 WITH WHICH WE HAVE TO DEAL IS OF THE ORDER OF TWO
 BILLION YEARS...GIVEN SO MUCH TIME, THE "IMPOSSIBLE"
 BECOMES POSSIBLE, THE POSSIBLE PROBABLE, THE PROBABLE
 VIRTUALLY CERTAIN.  ONE HAS ONLY TO WAIT, TIME
 ITSELF PERFORMS THE MIRACLES.
 "ORIGIN OF LIFE" LECTURES, GEORGE WALD, 1954
 Job cpu time:       0 days  5 hours  2 minutes 39.3 seconds.
 Elapsed time:       0 days  0 hours 19 minutes 26.5 seconds.
 File lengths (MBytes):  RWF=   1271 Int=      0 D2E=      0 Chk=     59 Scr=      2
 Normal termination of Gaussian 16 at Mon Aug 25 14:39:38 2025.
