 Entering Gaussian System, Link 0=g16
 Input=M880E.gjf
 Output=M880E.log
 Initial command:
 /hpc/softwares/Gaussian/g16/l1.exe "/hpc/home/hpcmgac13/pbs.13410.admin1.x8z/Gau-3283706.inp" -scrdir="/hpc/home/hpcmgac13/pbs.13410.admin1.x8z/"
 Default linda workers: n2
 Default is to use  16 SMP processors on each worker.
 Entering Link 1 = /hpc/softwares/Gaussian/g16/l1.exe PID=   3283707.
  
 Copyright (c) 1988-2021, Gaussian, Inc.  All Rights Reserved.
  
 This is part of the Gaussian(R) 16 program.  It is based on
 the Gaussian(R) 09 system (copyright 2009, Gaussian, Inc.),
 the Gaussian(R) 03 system (copyright 2003, Gaussian, Inc.),
 the Gaussian(R) 98 system (copyright 1998, Gaussian, Inc.),
 the Gaussian(R) 94 system (copyright 1995, Gaussian, Inc.),
 the Gaussian 92(TM) system (copyright 1992, Gaussian, Inc.),
 the Gaussian 90(TM) system (copyright 1990, Gaussian, Inc.),
 the Gaussian 88(TM) system (copyright 1988, Gaussian, Inc.),
 the Gaussian 86(TM) system (copyright 1986, Carnegie Mellon
 University), and the Gaussian 82(TM) system (copyright 1983,
 Carnegie Mellon University). Gaussian is a federally registered
 trademark of Gaussian, Inc.
  
 This software contains proprietary and confidential information,
 including trade secrets, belonging to Gaussian, Inc.
  
 This software is provided under written license and may be
 used, copied, transmitted, or stored only in accord with that
 written license.
  
 The following legend is applicable only to US Government
 contracts under FAR:
  
                    RESTRICTED RIGHTS LEGEND
  
 Use, reproduction and disclosure by the US Government is
 subject to restrictions as set forth in subparagraphs (a)
 and (c) of the Commercial Computer Software - Restricted
 Rights clause in FAR 52.227-19.
  
 Gaussian, Inc.
 340 Quinnipiac St., Bldg. 40, Wallingford CT 06492
  
  
 ---------------------------------------------------------------
 Warning -- This program may not be used in any manner that
 competes with the business of Gaussian, Inc. or will provide
 assistance to any competitor of Gaussian, Inc.  The licensee
 of this program is prohibited from giving any competitor of
 Gaussian, Inc. access to this program.  By using this program,
 the user acknowledges that Gaussian, Inc. is engaged in the
 business of creating and licensing software in the field of
 computational chemistry and represents and warrants to the
 licensee that it is not a competitor of Gaussian, Inc. and that
 it will not use this program in any manner prohibited above.
 ---------------------------------------------------------------
  

 Cite this work as:
 Gaussian 16, Revision C.02,
 M. J. Frisch, G. W. Trucks, H. B. Schlegel, G. E. Scuseria, 
 M. A. Robb, J. R. Cheeseman, G. Scalmani, V. Barone, 
 G. A. Petersson, H. Nakatsuji, X. Li, M. Caricato, A. V. Marenich, 
 J. Bloino, B. G. Janesko, R. Gomperts, B. Mennucci, H. P. Hratchian, 
 J. V. Ortiz, A. F. Izmaylov, J. L. Sonnenberg, D. Williams-Young, 
 F. Ding, F. Lipparini, F. Egidi, J. Goings, B. Peng, A. Petrone, 
 T. Henderson, D. Ranasinghe, V. G. Zakrzewski, J. Gao, N. Rega, 
 G. Zheng, W. Liang, M. Hada, M. Ehara, K. Toyota, R. Fukuda, 
 J. Hasegawa, M. Ishida, T. Nakajima, Y. Honda, O. Kitao, H. Nakai, 
 T. Vreven, K. Throssell, J. A. Montgomery, Jr., J. E. Peralta, 
 F. Ogliaro, M. J. Bearpark, J. J. Heyd, E. N. Brothers, K. N. Kudin, 
 V. N. Staroverov, T. A. Keith, R. Kobayashi, J. Normand, 
 K. Raghavachari, A. P. Rendell, J. C. Burant, S. S. Iyengar, 
 J. Tomasi, M. Cossi, J. M. Millam, M. Klene, C. Adamo, R. Cammi, 
 J. W. Ochterski, R. L. Martin, K. Morokuma, O. Farkas, 
 J. B. Foresman, and D. J. Fox, Gaussian, Inc., Wallingford CT, 2019.
 
 ******************************************
 Gaussian 16:  ES64L-G16RevC.02  7-Dec-2021
                25-Aug-2025 
 ******************************************
 SetLPE:    new flags="-opt 'Tsnet.Node.lindarsharg: ssh'  -nodelist 'n2.head.cm.mguif.local' -env GAUSS_MDEF=4294967296 -env GAUSS_EXEDIR="/hpc/softwares/Gaussian/g16/bsd:/hpc/softwares/Gaussian/g16""
 Will use up to    1 processors via Linda.
 ----------------------------------------------------------
 # td=(50-50,nstates=3) b3lyp/6-31+g(d,p) geom=connectivity
 ----------------------------------------------------------
 1/38=1,57=2,172=1/1;
 2/12=2,17=6,18=5,40=1/2;
 3/5=1,6=6,7=111,11=9,25=1,30=1,74=-5/1,2,3,8;
 4//1;
 5/5=2,38=5/2;
 8/6=1,10=2,108=3/1;
 9/41=3,42=1,48=2,70=2/14;
 6/7=2,8=2,9=2,10=2/1;
 99/5=1,9=1/99;
 -------------------
 Title Card Required
 -------------------
 Symbolic Z-matrix:
 Charge =  0 Multiplicity = 1
 C                    -0.09944   3.1563   -1.86911 
 C                    -0.19767   3.58962  -0.60036 
 N                    -0.73893   2.92168   0.49907 
 C                    -0.27427   3.30811   1.82972 
 C                    -1.27495   1.62498   0.34433 
 O                    -0.16092   0.65012   0.29215 
 C                    -0.45027  -0.64748   0.06665 
 N                     0.57935  -1.48471  -0.06451 
 O                     0.37183  -2.7713   -0.17755 
 C                     1.97297  -1.06888  -0.0397 
 C                     2.42496   0.10448  -0.65179 
 C                     3.79154   0.39207  -0.63903 
 C                     4.69611  -0.47403  -0.01961 
 C                     4.23055  -1.64727   0.58184 
 C                     2.87082  -1.95502   0.56401 
 N                    -1.76641  -0.99196   0.00513 
 C                    -2.2437   -2.17852  -0.14905 
 C                    -3.74026  -2.3799   -0.22624 
 C                    -4.54033  -1.16248  -0.07023 
 N                    -5.19565  -0.21289   0.0548 
 H                     0.2641    3.83296  -2.633 
 H                    -0.38921   2.16078  -2.18627 
 H                     0.13868   4.59362  -0.35152 
 H                    -0.19711   4.39763   1.88402 
 H                    -1.00225   2.98154   2.5774 
 H                     0.70384   2.87401   2.07758 
 H                    -1.90746   1.36372   1.19338 
 H                    -1.84643   1.54497  -0.58061 
 H                     1.73325   0.78682  -1.12773 
 H                     4.14536   1.29845  -1.12113 
 H                     5.75656  -0.24003  -0.01144 
 H                     4.92697  -2.33003   1.05937 
 H                     2.48956  -2.87355   0.99311 
 H                    -1.61609  -3.06303  -0.23165 
 H                    -3.98834  -2.84893  -1.18912 
 H                    -4.04375  -3.10616   0.54085 
 
                          Input orientation:                          
 ---------------------------------------------------------------------
 Center     Atomic      Atomic             Coordinates (Angstroms)
 Number     Number       Type             X           Y           Z
 ---------------------------------------------------------------------
      1          6           0       -0.099436    3.156300   -1.869114
      2          6           0       -0.197667    3.589617   -0.600356
      3          7           0       -0.738926    2.921681    0.499066
      4          6           0       -0.274273    3.308111    1.829715
      5          6           0       -1.274951    1.624982    0.344328
      6          8           0       -0.160917    0.650119    0.292153
      7          6           0       -0.450270   -0.647477    0.066652
      8          7           0        0.579349   -1.484708   -0.064512
      9          8           0        0.371831   -2.771300   -0.177548
     10          6           0        1.972971   -1.068883   -0.039700
     11          6           0        2.424959    0.104476   -0.651789
     12          6           0        3.791541    0.392065   -0.639029
     13          6           0        4.696109   -0.474030   -0.019609
     14          6           0        4.230549   -1.647270    0.581839
     15          6           0        2.870824   -1.955023    0.564007
     16          7           0       -1.766408   -0.991959    0.005126
     17          6           0       -2.243695   -2.178522   -0.149048
     18          6           0       -3.740259   -2.379898   -0.226236
     19          6           0       -4.540327   -1.162481   -0.070234
     20          7           0       -5.195649   -0.212891    0.054799
     21          1           0        0.264096    3.832961   -2.632999
     22          1           0       -0.389208    2.160780   -2.186273
     23          1           0        0.138677    4.593624   -0.351522
     24          1           0       -0.197112    4.397631    1.884023
     25          1           0       -1.002255    2.981539    2.577404
     26          1           0        0.703839    2.874014    2.077579
     27          1           0       -1.907455    1.363718    1.193377
     28          1           0       -1.846425    1.544967   -0.580607
     29          1           0        1.733246    0.786820   -1.127726
     30          1           0        4.145361    1.298448   -1.121128
     31          1           0        5.756563   -0.240032   -0.011436
     32          1           0        4.926968   -2.330034    1.059365
     33          1           0        2.489559   -2.873545    0.993105
     34          1           0       -1.616091   -3.063029   -0.231651
     35          1           0       -3.988337   -2.848925   -1.189120
     36          1           0       -4.043753   -3.106158    0.540854
 ---------------------------------------------------------------------
                    Distance matrix (angstroms):
                    1          2          3          4          5
     1  C    0.000000
     2  C    1.344306   0.000000
     3  N    2.464198   1.395646   0.000000
     4  C    3.706069   2.447521   1.461457   0.000000
     5  C    2.937022   2.431617   1.411628   2.457774   0.000000
     6  O    3.309954   3.072226   2.353062   3.072762   1.481267
     7  C    4.282405   4.296705   3.606826   4.334287   2.433367
     8  N    5.025564   5.161362   4.633760   5.223780   3.643590
     9  O    6.182227   6.400341   5.839659   6.434733   4.723509
    10  C    5.049138   5.169877   4.854818   5.263354   4.237143
    11  C    4.143438   4.361997   4.389907   4.868983   4.122320
    12  C    4.928875   5.112692   5.312189   5.579325   5.306262
    13  C    6.292632   6.387452   6.429579   6.513777   6.339705
    14  C    6.915940   6.959286   6.751137   6.812226   6.408945
    15  C    6.392820   6.443168   6.067681   6.260530   5.481984
    16  N    4.847641   4.880409   4.076306   4.903692   2.684207
    17  C    6.001400   6.136883   5.356907   6.156076   3.955822
    18  C    6.826722   6.951621   6.135210   6.970900   4.737336
    19  C    6.450531   6.459269   5.608487   6.464922   4.313292
    20  N    6.405020   6.314121   5.466744   6.306166   4.339755
    21  H    1.083303   2.098590   3.412670   4.525608   4.013516
    22  H    1.084259   2.143221   2.812884   4.178246   2.734147
    23  H    2.103731   1.087693   2.071010   2.565320   3.360861
    24  H    3.954299   2.612475   2.095256   1.093598   3.349624
    25  H    4.540611   3.333959   2.095809   1.093456   2.627021
    26  H    4.037490   2.914813   2.139053   1.098444   2.912018
    27  H    3.982604   3.330988   2.067553   2.617799   1.090506
    28  H    2.703445   2.626668   2.070649   3.374906   1.090179
    29  H    3.085906   3.444157   3.649071   4.374185   3.452348
    30  H    4.693549   4.937869   5.395940   5.681495   5.624408
    31  H    7.019883   7.103935   7.242128   7.235340   7.283340
    32  H    7.996286   8.003676   7.745760   7.709412   7.390347
    33  H    7.159206   7.178633   6.652205   6.822870   5.901626
    34  H    6.607691   6.812163   6.092628   6.829431   4.735565
    35  H    7.186701   7.494708   6.834364   7.798508   5.452501
    36  H    7.783570   7.805648   6.874480   7.550695   5.485305
                    6          7          8          9         10
     6  O    0.000000
     7  C    1.348455   0.000000
     8  N    2.287507   1.333520   0.000000
     9  O    3.494359   2.290438   1.308113   0.000000
    10  C    2.760176   2.461908   1.454547   2.341127   0.000000
    11  C    2.806333   3.057537   2.505330   3.565155   1.398470
    12  C    4.068859   4.423979   3.764376   4.681267   2.408477
    13  C    4.995158   5.150023   4.239245   4.899161   2.787424
    14  C    4.964563   4.814049   3.711530   4.090210   2.411950
    15  C    4.006510   3.603707   2.422208   2.731516   1.398516
    16  N    2.314391   1.361864   2.397963   2.787739   3.740439
    17  C    3.540315   2.367910   2.908282   2.682009   4.361597
    18  C    4.718201   3.729758   4.414355   4.130962   5.864687
    19  C    4.753533   4.124625   5.129809   5.170020   6.514042
    20  N    5.113673   4.765252   5.914588   6.131580   7.220164
    21  H    4.343689   5.279466   5.913892   7.046780   5.802890
    22  H    2.911496   3.600793   4.327766   5.379551   4.540748
    23  H    4.006907   5.290640   6.101040   7.370667   5.960357
    24  H    4.071757   5.368430   6.245125   7.481132   6.188113
    25  H    3.371311   4.447282   5.424809   6.524801   5.666315
    26  H    2.980144   4.216242   4.858241   6.088136   4.651882
    27  H    2.090891   2.727234   3.984973   4.916600   4.742967
    28  H    2.098428   2.678620   3.915312   4.869628   4.659676
    29  H    2.371202   2.872540   2.760750   3.926386   2.164464
    30  H    4.578398   5.130036   4.645303   5.629629   3.390136
    31  H    5.991753   6.220682   5.324996   5.952331   3.873417
    32  H    5.946133   5.721116   4.569405   4.740669   3.394782
    33  H    4.464590   3.802143   2.587726   2.421911   2.142511
    34  H    4.022359   2.698706   2.709057   2.009942   4.110332
    35  H    5.393202   4.352155   4.897917   4.476647   6.326682
    36  H    5.408131   4.379852   4.936460   4.486158   6.378754
                   11         12         13         14         15
    11  C    0.000000
    12  C    1.396573   0.000000
    13  C    2.427435   1.397156   0.000000
    14  C    2.801894   2.417051   1.398205   0.000000
    15  C    2.432795   2.793535   2.421903   1.394232   0.000000
    16  N    4.381925   5.763788   6.483285   6.060159   4.769042
    17  C    5.221222   6.578151   7.147232   6.536992   5.168820
    18  C    6.660565   8.036304   8.651435   8.045092   6.671688
    19  C    7.103421   8.494714   9.262196   8.808433   7.480344
    20  N    7.659873   9.034210   9.895484   9.549263   8.268150
    21  H    4.743008   5.315877   6.709897   7.490051   7.107506
    22  H    3.808223   4.795934   6.123488   6.595896   5.927199
    23  H    5.046751   5.574870   6.823597   7.520860   7.154551
    24  H    5.633541   6.190291   7.162437   7.605307   7.177108
    25  H    5.518240   6.327029   7.152397   7.265700   6.589701
    26  H    4.252299   4.803533   5.616566   5.925954   5.505118
    27  H    4.874437   6.064683   6.961014   6.864045   5.851675
    28  H    4.508304   5.754933   6.869921   6.962131   5.984355
    29  H    1.081932   2.152030   3.405323   3.883803   3.416687
    30  H    2.146073   1.085881   2.158320   3.403617   3.879330
    31  H    3.410033   2.157483   1.085995   2.158938   3.405851
    32  H    3.887793   3.403463   2.159220   1.085908   2.147962
    33  H    3.402713   3.875981   3.413521   2.168856   1.083130
    34  H    5.151669   6.430094   6.825815   6.070366   4.689686
    35  H    7.081078   8.445894   9.078958   8.492959   7.135867
    36  H    7.319481   8.661496   9.144802   8.402030   7.009781
                   16         17         18         19         20
    16  N    0.000000
    17  C    1.288217   0.000000
    18  C    2.424044   1.512023   0.000000
    19  C    2.780177   2.512582   1.465111   0.000000
    20  N    3.516974   3.552364   2.625464   1.160518   0.000000
    21  H    5.861954   6.971152   7.773480   7.389498   7.307667
    22  H    4.079053   5.139937   5.974031   5.723065   5.810215
    23  H    5.912299   7.181828   7.980717   7.423271   7.191851
    24  H    5.919512   7.181063   7.933598   7.321030   7.041899
    25  H    4.794709   5.966653   6.640939   6.058122   5.844012
    26  H    5.034176   6.258909   7.256801   6.957562   6.958777
    27  H    2.642167   3.802976   4.403309   3.861400   3.820245
    28  H    2.604895   3.769408   4.372271   3.853293   3.835506
    29  H    4.085950   5.056394   6.387491   6.654005   7.099815
    30  H    6.439210   7.338549   8.747232   9.088549   9.535272
    31  H    7.560474   8.232910   9.737289  10.338294  10.952446
    32  H    6.906746   7.273350   8.762196   9.605668  10.390323
    33  H    4.757071   4.918462   6.367190   7.312847   8.186692
    34  H    2.089974   1.087687   2.231320   3.491317   4.584602
    35  H    3.132334   2.138917   1.099397   2.097783   3.154935
    36  H    3.153275   2.139318   1.099086   2.097116   3.151842
                   21         22         23         24         25
    21  H    0.000000
    22  H    1.850016   0.000000
    23  H    2.408210   3.092524   0.000000
    24  H    4.575484   4.648410   2.269103   0.000000
    25  H    5.429260   4.872586   3.532584   1.770409   0.000000
    26  H    4.827266   4.459135   3.029356   1.780614   1.781051
    27  H    5.045191   3.789778   4.123792   3.550619   2.313496
    28  H    3.728475   2.254079   3.645191   4.114891   3.570630
    29  H    3.701787   2.741003   4.199631   5.082801   5.101739
    30  H    4.875831   4.737137   5.244425   6.123148   6.558192
    31  H    7.323186   6.947252   7.418931   7.781191   7.922262
    32  H    8.564954   7.678757   8.535536   8.496925   8.103884
    33  H    7.942200   6.613635   7.943128   7.802688   6.998913
    34  H    7.540309   5.710864   7.856075   7.883592   6.693608
    35  H    8.050812   6.248615   8.551336   8.736714   7.556302
    36  H    8.762550   6.966603   8.807707   8.538595   7.103401
                   26         27         28         29         30
    26  H    0.000000
    27  H    3.143511   0.000000
    28  H    3.916142   1.784263   0.000000
    29  H    3.961065   4.356034   3.699753   0.000000
    30  H    4.955624   6.480569   6.021166   2.465787   0.000000
    31  H    6.292161   7.922169   7.830428   4.299722   2.488837
    32  H    6.778915   7.769884   7.973957   4.969709   4.304804
    33  H    6.115498   6.109684   6.387533   4.297465   4.961571
    34  H    6.779609   4.659580   4.626927   5.180960   7.280658
    35  H    8.089491   5.268085   4.925887   6.779301   9.130299
    36  H    7.788685   4.996934   5.264873   7.163320   9.445863
                   31         32         33         34         35
    31  H    0.000000
    32  H    2.490572   0.000000
    33  H    4.314836   2.498151   0.000000
    34  H    7.897711   6.709368   4.288624   0.000000
    35  H   10.156591   9.209104   6.835631   2.567127   0.000000
    36  H   10.225747   9.019149   6.553076   2.547973   1.749871
                   36
    36  H    0.000000
 Stoichiometry    C14H16N4O2
 Framework group  C1[X(C14H16N4O2)]
 Deg. of freedom   102
 Full point group                 C1      NOp   1
 Largest Abelian subgroup         C1      NOp   1
 Largest concise Abelian subgroup C1      NOp   1
                         Standard orientation:                         
 ---------------------------------------------------------------------
 Center     Atomic      Atomic             Coordinates (Angstroms)
 Number     Number       Type             X           Y           Z
 ---------------------------------------------------------------------
      1          6           0        0.099436    3.156300    1.869114
      2          6           0        0.197667    3.589617    0.600356
      3          7           0        0.738926    2.921681   -0.499066
      4          6           0        0.274273    3.308111   -1.829715
      5          6           0        1.274951    1.624982   -0.344328
      6          8           0        0.160917    0.650119   -0.292153
      7          6           0        0.450270   -0.647477   -0.066652
      8          7           0       -0.579349   -1.484708    0.064512
      9          8           0       -0.371831   -2.771300    0.177548
     10          6           0       -1.972971   -1.068883    0.039700
     11          6           0       -2.424959    0.104476    0.651789
     12          6           0       -3.791541    0.392065    0.639029
     13          6           0       -4.696109   -0.474030    0.019609
     14          6           0       -4.230549   -1.647270   -0.581839
     15          6           0       -2.870824   -1.955023   -0.564007
     16          7           0        1.766408   -0.991959   -0.005126
     17          6           0        2.243695   -2.178522    0.149048
     18          6           0        3.740259   -2.379898    0.226236
     19          6           0        4.540327   -1.162481    0.070234
     20          7           0        5.195649   -0.212891   -0.054799
     21          1           0       -0.264096    3.832961    2.632999
     22          1           0        0.389208    2.160780    2.186273
     23          1           0       -0.138677    4.593624    0.351522
     24          1           0        0.197112    4.397631   -1.884023
     25          1           0        1.002255    2.981539   -2.577404
     26          1           0       -0.703839    2.874014   -2.077579
     27          1           0        1.907455    1.363718   -1.193377
     28          1           0        1.846425    1.544967    0.580607
     29          1           0       -1.733246    0.786820    1.127726
     30          1           0       -4.145361    1.298448    1.121128
     31          1           0       -5.756563   -0.240032    0.011436
     32          1           0       -4.926968   -2.330034   -1.059365
     33          1           0       -2.489559   -2.873545   -0.993105
     34          1           0        1.616091   -3.063029    0.231651
     35          1           0        3.988337   -2.848925    1.189120
     36          1           0        4.043753   -3.106158   -0.540854
 ---------------------------------------------------------------------
 Rotational constants (GHZ):           0.4054913           0.2430494           0.1666965
 Standard basis: 6-31+G(d,p) (6D, 7F)
 There are   460 symmetry adapted cartesian basis functions of A   symmetry.
 There are   460 symmetry adapted basis functions of A   symmetry.
   460 basis functions,   752 primitive gaussians,   460 cartesian basis functions
    72 alpha electrons       72 beta electrons
       nuclear repulsion energy      1491.8122471498 Hartrees.
 NAtoms=   36 NActive=   36 NUniq=   36 SFac= 1.00D+00 NAtFMM=   60 NAOKFM=F Big=F
 Integral buffers will be    131072 words long.
 Regular integral format.
 Two-electron integral symmetry is turned on.
 One-electron integrals computed using PRISM.
 NBasis=   460 RedAO= T EigKep=  1.90D-06  NBF=   460
 NBsUse=   460 1.00D-06 EigRej= -1.00D+00 NBFU=   460
 ExpMin= 4.38D-02 ExpMax= 5.48D+03 ExpMxC= 8.25D+02 IAcc=3 IRadAn=         5 AccDes= 0.00D+00
 Harris functional with IExCor=  402 and IRadAn=       5 diagonalized for initial guess.
 HarFok:  IExCor=  402 AccDes= 0.00D+00 IRadAn=         5 IDoV= 1 UseB2=F ITyADJ=14
 ICtDFT=  3500011 ScaDFX=  1.000000  1.000000  1.000000  1.000000
 FoFCou: FMM=F IPFlag=           0 FMFlag=      100000 FMFlg1=           0
         NFxFlg=           0 DoJE=T BraDBF=F KetDBF=T FulRan=T
         wScrn=  0.000000 ICntrl=       500 IOpCl=  0 I1Cent=   200000004 NGrid=           0
         NMat0=    1 NMatS0=      1 NMatT0=    0 NMatD0=    1 NMtDS0=    0 NMtDT0=    0
 Petite list used in FoFCou.
 Requested convergence on RMS density matrix=1.00D-08 within 128 cycles.
 Requested convergence on MAX density matrix=1.00D-06.
 Requested convergence on             energy=1.00D-06.
 No special actions if energy rises.
 SCF Done:  E(RB3LYP) =  -912.488510839     A.U. after   18 cycles
            NFock= 18  Conv=0.25D-08     -V/T= 2.0095
 DoSCS=F DFT=T ScalE2(SS,OS)=  1.000000  1.000000
 ExpMin= 4.38D-02 ExpMax= 5.48D+03 ExpMxC= 8.25D+02 IAcc=3 IRadAn=         5 AccDes= 0.00D+00
 HarFok:  IExCor=  205 AccDes= 0.00D+00 IRadAn=         5 IDoV=-2 UseB2=F ITyADJ=14
 ICtDFT= 12500011 ScaDFX=  1.000000  1.000000  1.000000  1.000000
 Range of M.O.s used for correlation:    21   460
 NBasis=   460 NAE=    72 NBE=    72 NFC=    20 NFV=     0
 NROrb=    440 NOA=    52 NOB=    52 NVA=   388 NVB=   388

 **** Warning!!: The largest alpha MO coefficient is  0.16673635D+03

 Orbital symmetries:
       Occupied  (A) (A) (A) (A) (A) (A) (A) (A) (A) (A) (A) (A)
                 (A) (A) (A) (A) (A) (A) (A) (A) (A) (A) (A) (A)
                 (A) (A) (A) (A) (A) (A) (A) (A) (A) (A) (A) (A)
                 (A) (A) (A) (A) (A) (A) (A) (A) (A) (A) (A) (A)
                 (A) (A) (A) (A) (A) (A) (A) (A) (A) (A) (A) (A)
                 (A) (A) (A) (A) (A) (A) (A) (A) (A) (A) (A) (A)
       Virtual   (A) (A) (A) (A) (A) (A) (A) (A) (A) (A) (A) (A)
                 (A) (A) (A) (A) (A) (A) (A) (A) (A) (A) (A) (A)
                 (A) (A) (A) (A) (A) (A) (A) (A) (A) (A) (A) (A)
                 (A) (A) (A) (A) (A) (A) (A) (A) (A) (A) (A) (A)
                 (A) (A) (A) (A) (A) (A) (A) (A) (A) (A) (A) (A)
                 (A) (A) (A) (A) (A) (A) (A) (A) (A) (A) (A) (A)
                 (A) (A) (A) (A) (A) (A) (A) (A) (A) (A) (A) (A)
                 (A) (A) (A) (A) (A) (A) (A) (A) (A) (A) (A) (A)
                 (A) (A) (A) (A) (A) (A) (A) (A) (A) (A) (A) (A)
                 (A) (A) (A) (A) (A) (A) (A) (A) (A) (A) (A) (A)
                 (A) (A) (A) (A) (A) (A) (A) (A) (A) (A) (A) (A)
                 (A) (A) (A) (A) (A) (A) (A) (A) (A) (A) (A) (A)
                 (A) (A) (A) (A) (A) (A) (A) (A) (A) (A) (A) (A)
                 (A) (A) (A) (A) (A) (A) (A) (A) (A) (A) (A) (A)
                 (A) (A) (A) (A) (A) (A) (A) (A) (A) (A) (A) (A)
                 (A) (A) (A) (A) (A) (A) (A) (A) (A) (A) (A) (A)
                 (A) (A) (A) (A) (A) (A) (A) (A) (A) (A) (A) (A)
                 (A) (A) (A) (A) (A) (A) (A) (A) (A) (A) (A) (A)
                 (A) (A) (A) (A) (A) (A) (A) (A) (A) (A) (A) (A)
                 (A) (A) (A) (A) (A) (A) (A) (A) (A) (A) (A) (A)
                 (A) (A) (A) (A) (A) (A) (A) (A) (A) (A) (A) (A)
                 (A) (A) (A) (A) (A) (A) (A) (A) (A) (A) (A) (A)
                 (A) (A) (A) (A) (A) (A) (A) (A) (A) (A) (A) (A)
                 (A) (A) (A) (A) (A) (A) (A) (A) (A) (A) (A) (A)
                 (A) (A) (A) (A) (A) (A) (A) (A) (A) (A) (A) (A)
                 (A) (A) (A) (A) (A) (A) (A) (A) (A) (A) (A) (A)
                 (A) (A) (A) (A) (A) (A) (A) (A) (A) (A) (A) (A)
                 (A) (A) (A) (A) (A) (A) (A) (A) (A) (A) (A) (A)
                 (A) (A) (A) (A) (A) (A) (A) (A) (A) (A) (A) (A)
                 (A) (A) (A) (A) (A) (A) (A) (A) (A) (A) (A) (A)
                 (A) (A) (A) (A) (A) (A) (A) (A) (A) (A) (A) (A)
                 (A) (A) (A) (A) (A) (A) (A) (A) (A) (A) (A) (A)
                 (A) (A) (A) (A)
    24 initial guesses have been made.
 Convergence on wavefunction:    0.001000000000000
 Iteration     1 Dimension    24 NMult     0 NNew     24
 CISAX will form    24 AO SS matrices at one time.
 New state      1 was old state      2
 New state      2 was old state      4
 New state      4 was old state      6
 New state      6 was old state     10
 New state      7 was old state      8
 New state      8 was old state      1
 New state      9 was old state     14
 New state     10 was old state     11
 New state     11 was old state     12
 New state     12 was old state     13
 Vector   6 SDiff=1.30D+00 TDiff=1.25D+01 assumed to be singlet.
 Vector  12 SDiff=9.93D-01 TDiff=6.97D+00 assumed to be singlet.
 Iteration     2 Dimension    36 NMult    24 NNew     12
 New state      6 was old state      8
 Iteration     3 Dimension    48 NMult    36 NNew     12
 Iteration     4 Dimension    60 NMult    48 NNew     12
 Iteration     5 Dimension    72 NMult    60 NNew     12
 Iteration     6 Dimension    80 NMult    72 NNew      8
 Iteration     7 Dimension    84 NMult    80 NNew      4
 ***********************************************************************
 Excited states from <AA,BB:AA,BB> singles matrix:
 ***********************************************************************
 
 Ground to excited state transition densities written to RWF  633
 Ground to excited state transition electric dipole moments (Au):
       state          X           Y           Z        Dip. S.      Osc.
         1        -0.0000     -0.0000     -0.0000      0.0000      0.0000
         2         0.0000      0.0000      0.0000      0.0000      0.0000
         3        -0.2369     -0.0879     -0.0214      0.0643      0.0048
         4         0.0000      0.0000     -0.0000      0.0000      0.0000
         5        -1.7506     -0.1671      0.0131      3.0928      0.2522
         6        -0.8686     -0.1916      0.0341      0.7923      0.0652
 Ground to excited state transition velocity dipole moments (Au):
       state          X           Y           Z        Dip. S.      Osc.
         1         0.0000     -0.0000      0.0000      0.0000      0.0000
         2        -0.0000     -0.0000     -0.0000      0.0000      0.0000
         3         0.0273      0.0093      0.0015      0.0008      0.0049
         4        -0.0000     -0.0000     -0.0000      0.0000      0.0000
         5         0.2084      0.0199      0.0001      0.0438      0.2389
         6         0.1036      0.0214     -0.0069      0.0112      0.0607
 Ground to excited state transition magnetic dipole moments (Au):
       state          X           Y           Z
         1        -0.0000      0.0000     -0.0000
         2        -0.0000     -0.0000      0.0000
         3         0.0118      0.1656     -0.0000
         4        -0.0000      0.0000     -0.0000
         5         0.1335      0.1424      0.5028
         6        -0.0768     -0.3741      0.3591
 Ground to excited state transition velocity quadrupole moments (Au):
       state          XX          YY          ZZ          XY          XZ          YZ
         1        -0.0000     -0.0000      0.0000     -0.0000     -0.0000     -0.0000
         2         0.0000      0.0000     -0.0000      0.0000      0.0000     -0.0000
         3        -0.1016      0.0452      0.0208     -0.0560     -0.0110      0.0045
         4         0.0000      0.0000      0.0000      0.0000      0.0000     -0.0000
         5        -0.1090     -0.0031      0.0226     -0.5760      0.0322     -0.0234
         6         0.0830     -0.0243      0.0261     -0.2816      0.0433      0.0071
 <0|del|b> * <b|rxdel|0> + <0|del|b> * <b|delr+rdel|0>
 Rotatory Strengths (R) in cgs (10**-40 erg-esu-cm/Gauss)
       state          XX          YY          ZZ    R(velocity)    E-M Angle
         1        -0.0000     -0.0000      0.0000     -0.0000       90.00
         2         0.0000      0.0000      0.0000      0.0000       90.00
         3         4.8999      1.6551      5.1394      3.8982       67.11
         4        -0.0000      0.0000     -0.0000     -0.0000       90.00
         5         6.3027     66.7035    104.5553     59.1872       74.22
         6       -27.0963    -33.2673    -45.1828    -35.1821      109.35
 1/2[<0|r|b>*<b|rxdel|0> + (<0|rxdel|b>*<b|r|0>)*]
 Rotatory Strengths (R) in cgs (10**-40 erg-esu-cm/Gauss)
       state          XX          YY          ZZ     R(length)
         1        -0.0000      0.0000     -0.0000     -0.0000
         2         0.0000      0.0000     -0.0000      0.0000
         3         1.9803     10.2917     -0.0001      4.0906
         4         0.0000     -0.0000     -0.0000      0.0000
         5       165.2623     16.8339     -4.6523     59.1480
         6       -47.1660    -50.6926     -8.6510    -35.5032
  1/2[<0|del|b>*<b|r|0> + (<0|r|b>*<b|del|0>)*] (Au)
       state          X           Y           Z        Dip. S.   Osc.(frdel)
         1        -0.0000      0.0000     -0.0000      0.0000      0.0000
         2        -0.0000     -0.0000     -0.0000      0.0000      0.0000
         3        -0.0065     -0.0008     -0.0000      0.0073      0.0049
         4        -0.0000     -0.0000      0.0000      0.0000      0.0000
         5        -0.3649     -0.0033      0.0000      0.3682      0.2455
         6        -0.0900     -0.0041     -0.0002      0.0943      0.0629

 Excitation energies and oscillator strengths:
 
 Excited State   1:      Triplet-A      1.2008 eV 1032.55 nm  f=0.0000  <S**2>=2.000
      72 -> 73         0.72872
      72 <- 73         0.23568
 This state for optimization and/or second-order correction.
 Total Energy, E(TD-HF/TD-DFT) =  -912.444383907    
 Copying the excited state density for this state as the 1-particle RhoCI density.
 
 Excited State   2:      Triplet-A      2.9115 eV  425.84 nm  f=0.0000  <S**2>=2.000
      68 -> 73         0.15152
      70 -> 73         0.54834
      71 -> 73        -0.39920
 
 Excited State   3:      Singlet-A      3.0714 eV  403.67 nm  f=0.0048  <S**2>=0.000
      70 -> 73        -0.22926
      71 -> 73         0.65334
      72 -> 73         0.10257
 
 Excited State   4:      Triplet-A      3.1773 eV  390.22 nm  f=0.0000  <S**2>=2.000
      70 -> 73         0.39019
      71 -> 73         0.57855
 
 Excited State   5:      Singlet-A      3.3287 eV  372.47 nm  f=0.2522  <S**2>=0.000
      70 -> 73        -0.31164
      71 -> 73        -0.21446
      72 -> 73         0.58889
 
 Excited State   6:      Singlet-A      3.3579 eV  369.23 nm  f=0.0652  <S**2>=0.000
      68 -> 73         0.18999
      70 -> 73         0.54098
      71 -> 73         0.16146
      72 -> 73         0.37220
 SavETr:  write IOETrn=   770 NScale= 10 NData=  16 NLR=1 NState=    6 LETran=     118.

 **********************************************************************

            Population analysis using the SCF Density.

 **********************************************************************

 Orbital symmetries:
       Occupied  (A) (A) (A) (A) (A) (A) (A) (A) (A) (A) (A) (A)
                 (A) (A) (A) (A) (A) (A) (A) (A) (A) (A) (A) (A)
                 (A) (A) (A) (A) (A) (A) (A) (A) (A) (A) (A) (A)
                 (A) (A) (A) (A) (A) (A) (A) (A) (A) (A) (A) (A)
                 (A) (A) (A) (A) (A) (A) (A) (A) (A) (A) (A) (A)
                 (A) (A) (A) (A) (A) (A) (A) (A) (A) (A) (A) (A)
       Virtual   (A) (A) (A) (A) (A) (A) (A) (A) (A) (A) (A) (A)
                 (A) (A) (A) (A) (A) (A) (A) (A) (A) (A) (A) (A)
                 (A) (A) (A) (A) (A) (A) (A) (A) (A) (A) (A) (A)
                 (A) (A) (A) (A) (A) (A) (A) (A) (A) (A) (A) (A)
                 (A) (A) (A) (A) (A) (A) (A) (A) (A) (A) (A) (A)
                 (A) (A) (A) (A) (A) (A) (A) (A) (A) (A) (A) (A)
                 (A) (A) (A) (A) (A) (A) (A) (A) (A) (A) (A) (A)
                 (A) (A) (A) (A) (A) (A) (A) (A) (A) (A) (A) (A)
                 (A) (A) (A) (A) (A) (A) (A) (A) (A) (A) (A) (A)
                 (A) (A) (A) (A) (A) (A) (A) (A) (A) (A) (A) (A)
                 (A) (A) (A) (A) (A) (A) (A) (A) (A) (A) (A) (A)
                 (A) (A) (A) (A) (A) (A) (A) (A) (A) (A) (A) (A)
                 (A) (A) (A) (A) (A) (A) (A) (A) (A) (A) (A) (A)
                 (A) (A) (A) (A) (A) (A) (A) (A) (A) (A) (A) (A)
                 (A) (A) (A) (A) (A) (A) (A) (A) (A) (A) (A) (A)
                 (A) (A) (A) (A) (A) (A) (A) (A) (A) (A) (A) (A)
                 (A) (A) (A) (A) (A) (A) (A) (A) (A) (A) (A) (A)
                 (A) (A) (A) (A) (A) (A) (A) (A) (A) (A) (A) (A)
                 (A) (A) (A) (A) (A) (A) (A) (A) (A) (A) (A) (A)
                 (A) (A) (A) (A) (A) (A) (A) (A) (A) (A) (A) (A)
                 (A) (A) (A) (A) (A) (A) (A) (A) (A) (A) (A) (A)
                 (A) (A) (A) (A) (A) (A) (A) (A) (A) (A) (A) (A)
                 (A) (A) (A) (A) (A) (A) (A) (A) (A) (A) (A) (A)
                 (A) (A) (A) (A) (A) (A) (A) (A) (A) (A) (A) (A)
                 (A) (A) (A) (A) (A) (A) (A) (A) (A) (A) (A) (A)
                 (A) (A) (A) (A) (A) (A) (A) (A) (A) (A) (A) (A)
                 (A) (A) (A) (A) (A) (A) (A) (A) (A) (A) (A) (A)
                 (A) (A) (A) (A) (A) (A) (A) (A) (A) (A) (A) (A)
                 (A) (A) (A) (A) (A) (A) (A) (A) (A) (A) (A) (A)
                 (A) (A) (A) (A) (A) (A) (A) (A) (A) (A) (A) (A)
                 (A) (A) (A) (A) (A) (A) (A) (A) (A) (A) (A) (A)
                 (A) (A) (A) (A) (A) (A) (A) (A) (A) (A) (A) (A)
                 (A) (A) (A) (A)
 The electronic state is 1-A.
 Alpha  occ. eigenvalues --  -19.20436 -19.13583 -14.47347 -14.37622 -14.37185
 Alpha  occ. eigenvalues --  -14.34933 -10.33270 -10.28737 -10.27067 -10.25891
 Alpha  occ. eigenvalues --  -10.24710 -10.24407 -10.23493 -10.23139 -10.20851
 Alpha  occ. eigenvalues --  -10.20702 -10.20640 -10.20617 -10.20557 -10.17991
 Alpha  occ. eigenvalues --   -1.12156  -1.08007  -0.97126  -0.95590  -0.91600
 Alpha  occ. eigenvalues --   -0.88179  -0.84782  -0.81169  -0.77271  -0.76654
 Alpha  occ. eigenvalues --   -0.76049  -0.73882  -0.68701  -0.67062  -0.64692
 Alpha  occ. eigenvalues --   -0.61896  -0.59129  -0.58170  -0.56673  -0.55597
 Alpha  occ. eigenvalues --   -0.53290  -0.51451  -0.49920  -0.49502  -0.48819
 Alpha  occ. eigenvalues --   -0.48524  -0.48028  -0.46945  -0.45446  -0.45131
 Alpha  occ. eigenvalues --   -0.44482  -0.43798  -0.43498  -0.42239  -0.40871
 Alpha  occ. eigenvalues --   -0.39736  -0.38495  -0.37724  -0.37290  -0.37184
 Alpha  occ. eigenvalues --   -0.36483  -0.35751  -0.34428  -0.34124  -0.33624
 Alpha  occ. eigenvalues --   -0.32873  -0.30617  -0.27253  -0.26707  -0.25281
 Alpha  occ. eigenvalues --   -0.22202  -0.21160
 Alpha virt. eigenvalues --   -0.08618  -0.02219  -0.02183  -0.00770  -0.00110
 Alpha virt. eigenvalues --   -0.00028   0.00856   0.01319   0.01495   0.01712
 Alpha virt. eigenvalues --    0.01993   0.02786   0.03170   0.03311   0.03979
 Alpha virt. eigenvalues --    0.04391   0.04683   0.04737   0.05186   0.05911
 Alpha virt. eigenvalues --    0.06012   0.06297   0.06890   0.07518   0.07892
 Alpha virt. eigenvalues --    0.08564   0.08794   0.08913   0.09272   0.09756
 Alpha virt. eigenvalues --    0.10130   0.10455   0.11151   0.11472   0.11598
 Alpha virt. eigenvalues --    0.12208   0.12568   0.12606   0.13155   0.13350
 Alpha virt. eigenvalues --    0.13782   0.14240   0.14472   0.14811   0.15404
 Alpha virt. eigenvalues --    0.15745   0.15823   0.16392   0.16812   0.17205
 Alpha virt. eigenvalues --    0.17445   0.17884   0.18459   0.18858   0.19016
 Alpha virt. eigenvalues --    0.19372   0.19518   0.19999   0.20516   0.20651
 Alpha virt. eigenvalues --    0.20918   0.21144   0.21477   0.21844   0.22527
 Alpha virt. eigenvalues --    0.22726   0.23027   0.23256   0.23665   0.23771
 Alpha virt. eigenvalues --    0.24004   0.24233   0.24746   0.25052   0.25159
 Alpha virt. eigenvalues --    0.25392   0.25684   0.26076   0.26146   0.26892
 Alpha virt. eigenvalues --    0.27315   0.27429   0.27836   0.28244   0.28350
 Alpha virt. eigenvalues --    0.28845   0.29541   0.29733   0.29950   0.30064
 Alpha virt. eigenvalues --    0.31200   0.31441   0.31692   0.32233   0.32494
 Alpha virt. eigenvalues --    0.33207   0.33927   0.34341   0.35018   0.35875
 Alpha virt. eigenvalues --    0.36166   0.36345   0.36550   0.36820   0.37446
 Alpha virt. eigenvalues --    0.38553   0.38769   0.39625   0.40042   0.41192
 Alpha virt. eigenvalues --    0.42182   0.43163   0.43579   0.44184   0.45626
 Alpha virt. eigenvalues --    0.46689   0.46834   0.47448   0.49247   0.51163
 Alpha virt. eigenvalues --    0.56027   0.57708   0.58735   0.60628   0.63836
 Alpha virt. eigenvalues --    0.64639   0.66051   0.66571   0.67235   0.68893
 Alpha virt. eigenvalues --    0.68956   0.69718   0.70549   0.70929   0.71873
 Alpha virt. eigenvalues --    0.72994   0.73667   0.74554   0.74906   0.75253
 Alpha virt. eigenvalues --    0.76175   0.77540   0.77604   0.78563   0.79190
 Alpha virt. eigenvalues --    0.80117   0.80875   0.81632   0.81883   0.82853
 Alpha virt. eigenvalues --    0.84324   0.85195   0.86247   0.86763   0.88199
 Alpha virt. eigenvalues --    0.88707   0.89589   0.91068   0.91389   0.91800
 Alpha virt. eigenvalues --    0.92329   0.92739   0.93625   0.94135   0.95314
 Alpha virt. eigenvalues --    0.96411   0.96691   0.97206   0.98588   0.98696
 Alpha virt. eigenvalues --    0.99143   0.99994   1.00930   1.01839   1.02357
 Alpha virt. eigenvalues --    1.03416   1.04308   1.06159   1.07606   1.09134
 Alpha virt. eigenvalues --    1.09506   1.09911   1.10483   1.10879   1.12017
 Alpha virt. eigenvalues --    1.13644   1.13715   1.14608   1.15026   1.17125
 Alpha virt. eigenvalues --    1.17267   1.18530   1.19713   1.21556   1.22605
 Alpha virt. eigenvalues --    1.24072   1.25508   1.26160   1.26655   1.27885
 Alpha virt. eigenvalues --    1.28089   1.28461   1.29589   1.31103   1.32922
 Alpha virt. eigenvalues --    1.34198   1.35582   1.36279   1.36775   1.37941
 Alpha virt. eigenvalues --    1.38956   1.40174   1.40715   1.42015   1.42557
 Alpha virt. eigenvalues --    1.43335   1.44167   1.44707   1.46001   1.48390
 Alpha virt. eigenvalues --    1.48820   1.50445   1.51118   1.52220   1.52881
 Alpha virt. eigenvalues --    1.53631   1.55973   1.57469   1.58363   1.61618
 Alpha virt. eigenvalues --    1.61940   1.66196   1.70810   1.71451   1.73441
 Alpha virt. eigenvalues --    1.75536   1.76582   1.76841   1.80180   1.81058
 Alpha virt. eigenvalues --    1.81971   1.82863   1.83066   1.83646   1.84748
 Alpha virt. eigenvalues --    1.85641   1.87538   1.89507   1.90644   1.91445
 Alpha virt. eigenvalues --    1.92041   1.93054   1.93563   1.94115   1.94255
 Alpha virt. eigenvalues --    1.94859   1.96663   1.97379   1.97684   1.98681
 Alpha virt. eigenvalues --    1.99252   2.01090   2.01410   2.02210   2.03562
 Alpha virt. eigenvalues --    2.03814   2.05457   2.05586   2.06642   2.07429
 Alpha virt. eigenvalues --    2.08448   2.09003   2.09764   2.10480   2.10591
 Alpha virt. eigenvalues --    2.11474   2.12384   2.13649   2.14895   2.16051
 Alpha virt. eigenvalues --    2.18500   2.20959   2.22538   2.22785   2.24712
 Alpha virt. eigenvalues --    2.25860   2.28633   2.29256   2.30879   2.31293
 Alpha virt. eigenvalues --    2.35009   2.35526   2.37860   2.38021   2.38288
 Alpha virt. eigenvalues --    2.39740   2.41317   2.42017   2.42902   2.45311
 Alpha virt. eigenvalues --    2.45798   2.46543   2.46943   2.47939   2.50084
 Alpha virt. eigenvalues --    2.50939   2.52958   2.53647   2.54484   2.55467
 Alpha virt. eigenvalues --    2.55897   2.58598   2.59486   2.60901   2.61356
 Alpha virt. eigenvalues --    2.62497   2.62885   2.64236   2.64722   2.65877
 Alpha virt. eigenvalues --    2.67170   2.69446   2.71049   2.72179   2.73084
 Alpha virt. eigenvalues --    2.73750   2.75810   2.77388   2.78985   2.79761
 Alpha virt. eigenvalues --    2.80735   2.83214   2.84821   2.86965   2.89238
 Alpha virt. eigenvalues --    2.91325   2.91343   2.92785   2.97176   2.99600
 Alpha virt. eigenvalues --    3.00982   3.04276   3.06229   3.07079   3.07319
 Alpha virt. eigenvalues --    3.13242   3.16611   3.18836   3.20819   3.23685
 Alpha virt. eigenvalues --    3.25651   3.26367   3.29170   3.31889   3.33338
 Alpha virt. eigenvalues --    3.35712   3.36254   3.39652   3.42113   3.43159
 Alpha virt. eigenvalues --    3.44551   3.45165   3.47697   3.51497   3.54449
 Alpha virt. eigenvalues --    3.57888   3.70973   3.89558   4.17238   4.25512
 Alpha virt. eigenvalues --    4.28203   4.29827   4.32228   4.35843   4.40477
 Alpha virt. eigenvalues --    4.42048   4.46215   4.48931   4.49998   4.51381
 Alpha virt. eigenvalues --    4.52672   4.57748   4.63930   4.69943   4.78771
 Alpha virt. eigenvalues --    4.80856   4.82873   4.89744
          Condensed to atoms (all electrons):
               1          2          3          4          5          6
     1  C    5.180773   0.369296  -0.079754  -0.012511  -0.065330   0.005577
     2  C    0.369296   5.802952   0.200103  -0.093960  -0.566121   0.038619
     3  N   -0.079754   0.200103   7.029252   0.141144   0.107991  -0.270838
     4  C   -0.012511  -0.093960   0.141144   5.231906  -0.291970  -0.048222
     5  C   -0.065330  -0.566121   0.107991  -0.291970   7.024193   0.124711
     6  O    0.005577   0.038619  -0.270838  -0.048222   0.124711   8.850305
     7  C    0.002749   0.154500   0.156673   0.025700  -0.561128   0.214070
     8  N    0.007349  -0.026344  -0.014574   0.011211  -0.074561  -0.196803
     9  O    0.001322  -0.004197  -0.001377   0.001184   0.017726  -0.012646
    10  C    0.061875   0.249630  -0.005195  -0.038554  -0.349614   0.091945
    11  C    0.026436  -0.188810  -0.041545   0.038818   0.256505  -0.178595
    12  C   -0.061826  -0.063317  -0.020712  -0.005142   0.164170  -0.026935
    13  C   -0.036026  -0.056045   0.020133   0.005288   0.047626  -0.009114
    14  C    0.002853   0.010155  -0.004535   0.000881  -0.035865  -0.015182
    15  C    0.004690   0.028063   0.047120  -0.003576  -0.128846   0.062132
    16  N   -0.007089  -0.008279  -0.019685  -0.006493   0.047539  -0.170032
    17  C    0.003566   0.005311   0.003978  -0.003479  -0.103684   0.068612
    18  C   -0.001377   0.008602   0.024805   0.010304  -0.167627  -0.036791
    19  C   -0.000500   0.001499  -0.004636  -0.003137   0.039474   0.012604
    20  N   -0.000120  -0.000461  -0.000735   0.000031   0.002339  -0.000431
    21  H    0.367222  -0.017215   0.011424  -0.003073   0.012176  -0.000376
    22  H    0.458057  -0.110556  -0.016684  -0.002540   0.022035   0.000602
    23  H   -0.002240   0.379184  -0.080769  -0.015662   0.019418  -0.000904
    24  H   -0.005352  -0.007981  -0.065254   0.440805  -0.009976   0.000456
    25  H   -0.004598   0.005153  -0.046821   0.395814   0.005500  -0.004918
    26  H    0.010682  -0.002765  -0.065939   0.407494  -0.001982   0.009698
    27  H   -0.004746   0.017587  -0.048203  -0.023449   0.471194  -0.065702
    28  H    0.014661  -0.044713  -0.031667   0.013256   0.441064  -0.062706
    29  H   -0.004719   0.005524   0.002977   0.001525  -0.010287  -0.014222
    30  H   -0.000763   0.001593  -0.000333   0.000072   0.000636   0.000234
    31  H    0.000052  -0.000031   0.000000  -0.000012  -0.000040  -0.000005
    32  H   -0.000004   0.000003  -0.000000   0.000000  -0.000012  -0.000023
    33  H    0.000033  -0.000035  -0.000022  -0.000008   0.000265  -0.000474
    34  H   -0.000030   0.000076   0.000027   0.000033  -0.000484  -0.003936
    35  H    0.000001  -0.000013  -0.000010   0.000001  -0.000435   0.000034
    36  H    0.000003   0.000001   0.000004  -0.000006  -0.000469   0.000041
               7          8          9         10         11         12
     1  C    0.002749   0.007349   0.001322   0.061875   0.026436  -0.061826
     2  C    0.154500  -0.026344  -0.004197   0.249630  -0.188810  -0.063317
     3  N    0.156673  -0.014574  -0.001377  -0.005195  -0.041545  -0.020712
     4  C    0.025700   0.011211   0.001184  -0.038554   0.038818  -0.005142
     5  C   -0.561128  -0.074561   0.017726  -0.349614   0.256505   0.164170
     6  O    0.214070  -0.196803  -0.012646   0.091945  -0.178595  -0.026935
     7  C    7.499709  -0.167022  -0.121299  -0.852350   0.003719  -0.453586
     8  N   -0.167022   7.980291   0.184952  -0.111333   0.194364   0.039145
     9  O   -0.121299   0.184952   7.973919  -0.037595   0.011159  -0.002075
    10  C   -0.852350  -0.111333  -0.037595  13.601235  -3.533704   1.455427
    11  C    0.003719   0.194364   0.011159  -3.533704  16.195948  -2.559592
    12  C   -0.453586   0.039145  -0.002075   1.455427  -2.559592   9.012233
    13  C    0.034349  -0.003216  -0.004621  -1.559230   0.917761  -0.728045
    14  C   -0.109211  -0.031931   0.036356   0.302223  -0.774840   0.537090
    15  C    0.307099  -0.302010  -0.029954  -2.625441  -4.938518  -1.161499
    16  N    0.446488  -0.149669  -0.048729  -0.047711  -0.098328  -0.009597
    17  C   -0.395799  -0.062217   0.052661  -0.194586  -0.093852  -0.037897
    18  C   -0.339240   0.223474   0.047043   0.027498  -0.021263  -0.005533
    19  C   -0.281868  -0.008694  -0.003223  -0.035768  -0.003850  -0.001318
    20  N   -0.007391   0.001876  -0.000312   0.000156   0.000797   0.000085
    21  H   -0.000537  -0.000064  -0.000000  -0.002207  -0.002205   0.004239
    22  H   -0.005384   0.001239   0.000080   0.022086  -0.012418  -0.011324
    23  H   -0.002008   0.000037   0.000000   0.000409   0.001049  -0.001544
    24  H   -0.000138   0.000049   0.000000  -0.002204   0.001964   0.000320
    25  H    0.002723  -0.000345  -0.000006   0.002795  -0.004183  -0.000784
    26  H   -0.008403   0.000988   0.000014   0.000864   0.006946   0.003254
    27  H   -0.016590  -0.006001  -0.000261  -0.004959  -0.000957   0.001658
    28  H   -0.008939  -0.001540   0.000059  -0.003518  -0.000692  -0.002242
    29  H   -0.004979  -0.009339  -0.000388   0.123013   0.084986   0.085647
    30  H   -0.002423  -0.000491   0.000033  -0.001843   0.017924   0.299137
    31  H    0.000701   0.000047  -0.000008   0.008288   0.009325   0.027426
    32  H    0.000575  -0.000136   0.000152  -0.009038  -0.005646  -0.003610
    33  H   -0.007767  -0.039105   0.002757   0.205036   0.111093  -0.003844
    34  H   -0.073751   0.032626  -0.013746   0.013413   0.003566   0.000903
    35  H   -0.006240   0.000077  -0.000232   0.000584  -0.000053  -0.000004
    36  H   -0.001233   0.000457  -0.000151  -0.000348   0.000222   0.000010
              13         14         15         16         17         18
     1  C   -0.036026   0.002853   0.004690  -0.007089   0.003566  -0.001377
     2  C   -0.056045   0.010155   0.028063  -0.008279   0.005311   0.008602
     3  N    0.020133  -0.004535   0.047120  -0.019685   0.003978   0.024805
     4  C    0.005288   0.000881  -0.003576  -0.006493  -0.003479   0.010304
     5  C    0.047626  -0.035865  -0.128846   0.047539  -0.103684  -0.167627
     6  O   -0.009114  -0.015182   0.062132  -0.170032   0.068612  -0.036791
     7  C    0.034349  -0.109211   0.307099   0.446488  -0.395799  -0.339240
     8  N   -0.003216  -0.031931  -0.302010  -0.149669  -0.062217   0.223474
     9  O   -0.004621   0.036356  -0.029954  -0.048729   0.052661   0.047043
    10  C   -1.559230   0.302223  -2.625441  -0.047711  -0.194586   0.027498
    11  C    0.917761  -0.774840  -4.938518  -0.098328  -0.093852  -0.021263
    12  C   -0.728045   0.537090  -1.161499  -0.009597  -0.037897  -0.005533
    13  C    6.326274   0.136574   0.562029  -0.000101   0.003889   0.000899
    14  C    0.136574   6.357882  -0.510225   0.011337   0.011083   0.002050
    15  C    0.562029  -0.510225  13.909813   0.063213   0.190744   0.051174
    16  N   -0.000101   0.011337   0.063213   6.962067   0.267825  -0.037831
    17  C    0.003889   0.011083   0.190744   0.267825   7.256664  -1.084774
    18  C    0.000899   0.002050   0.051174  -0.037831  -1.084774   6.914481
    19  C    0.000176  -0.000959   0.007398  -0.012574  -0.144181  -0.000860
    20  N    0.000001   0.000010  -0.000452   0.021450  -0.010438  -0.023364
    21  H    0.000528   0.000001  -0.000085   0.000160   0.000040  -0.000017
    22  H   -0.000018  -0.000178   0.003433  -0.000052  -0.000733  -0.000626
    23  H    0.000211  -0.000060   0.000253   0.000107  -0.000071  -0.000018
    24  H    0.000198  -0.000032  -0.000236   0.000060  -0.000023   0.000008
    25  H    0.000091  -0.000040   0.001622   0.000026   0.000738   0.000002
    26  H   -0.003636   0.001189  -0.005797  -0.000659  -0.000709  -0.000016
    27  H    0.000107  -0.000198   0.000331   0.004469   0.001669  -0.005374
    28  H    0.000553  -0.000239   0.001917   0.009522   0.006385  -0.001176
    29  H   -0.004737   0.005170   0.035213  -0.000355   0.000361   0.000092
    30  H    0.007771   0.002827  -0.014529   0.000000  -0.000074  -0.000002
    31  H    0.251910   0.009706   0.002407  -0.000000   0.000012   0.000000
    32  H    0.028037   0.265075   0.035256   0.000003   0.000050   0.000002
    33  H   -0.002357  -0.031230   0.074674  -0.000235  -0.001363  -0.000180
    34  H   -0.000226   0.000178  -0.012605  -0.040930   0.389146  -0.028103
    35  H    0.000001  -0.000011  -0.000029  -0.002543  -0.058832   0.422635
    36  H   -0.000001   0.000006  -0.000160  -0.003111  -0.044579   0.414478
              19         20         21         22         23         24
     1  C   -0.000500  -0.000120   0.367222   0.458057  -0.002240  -0.005352
     2  C    0.001499  -0.000461  -0.017215  -0.110556   0.379184  -0.007981
     3  N   -0.004636  -0.000735   0.011424  -0.016684  -0.080769  -0.065254
     4  C   -0.003137   0.000031  -0.003073  -0.002540  -0.015662   0.440805
     5  C    0.039474   0.002339   0.012176   0.022035   0.019418  -0.009976
     6  O    0.012604  -0.000431  -0.000376   0.000602  -0.000904   0.000456
     7  C   -0.281868  -0.007391  -0.000537  -0.005384  -0.002008  -0.000138
     8  N   -0.008694   0.001876  -0.000064   0.001239   0.000037   0.000049
     9  O   -0.003223  -0.000312  -0.000000   0.000080   0.000000   0.000000
    10  C   -0.035768   0.000156  -0.002207   0.022086   0.000409  -0.002204
    11  C   -0.003850   0.000797  -0.002205  -0.012418   0.001049   0.001964
    12  C   -0.001318   0.000085   0.004239  -0.011324  -0.001544   0.000320
    13  C    0.000176   0.000001   0.000528  -0.000018   0.000211   0.000198
    14  C   -0.000959   0.000010   0.000001  -0.000178  -0.000060  -0.000032
    15  C    0.007398  -0.000452  -0.000085   0.003433   0.000253  -0.000236
    16  N   -0.012574   0.021450   0.000160  -0.000052   0.000107   0.000060
    17  C   -0.144181  -0.010438   0.000040  -0.000733  -0.000071  -0.000023
    18  C   -0.000860  -0.023364  -0.000017  -0.000626  -0.000018   0.000008
    19  C    5.874139   0.420789   0.000003   0.000339   0.000012  -0.000011
    20  N    0.420789   7.099417  -0.000000  -0.000017  -0.000001  -0.000001
    21  H    0.000003  -0.000000   0.538951  -0.033390  -0.007255  -0.000005
    22  H    0.000339  -0.000017  -0.033390   0.562879   0.004867   0.000005
    23  H    0.000012  -0.000001  -0.007255   0.004867   0.582672   0.004760
    24  H   -0.000011  -0.000001  -0.000005   0.000005   0.004760   0.553349
    25  H    0.000049   0.000001   0.000003   0.000003   0.000327  -0.019338
    26  H   -0.000000  -0.000001  -0.000011  -0.000006  -0.000740  -0.035616
    27  H    0.001355  -0.000210  -0.000001   0.000071  -0.000153   0.000284
    28  H   -0.001105   0.000606   0.000090   0.000446   0.000186  -0.000140
    29  H   -0.000015  -0.000001  -0.000006   0.000772   0.000013  -0.000001
    30  H   -0.000000   0.000000  -0.000001  -0.000000  -0.000000  -0.000000
    31  H    0.000000  -0.000000   0.000000  -0.000000  -0.000000  -0.000000
    32  H    0.000000  -0.000000  -0.000000   0.000000   0.000000   0.000000
    33  H   -0.000022   0.000000  -0.000000  -0.000000   0.000000   0.000000
    34  H    0.022548  -0.000289  -0.000000   0.000000   0.000000   0.000000
    35  H   -0.038439  -0.000641  -0.000000  -0.000000   0.000000   0.000000
    36  H   -0.048860  -0.000608  -0.000000   0.000000   0.000000  -0.000000
              25         26         27         28         29         30
     1  C   -0.004598   0.010682  -0.004746   0.014661  -0.004719  -0.000763
     2  C    0.005153  -0.002765   0.017587  -0.044713   0.005524   0.001593
     3  N   -0.046821  -0.065939  -0.048203  -0.031667   0.002977  -0.000333
     4  C    0.395814   0.407494  -0.023449   0.013256   0.001525   0.000072
     5  C    0.005500  -0.001982   0.471194   0.441064  -0.010287   0.000636
     6  O   -0.004918   0.009698  -0.065702  -0.062706  -0.014222   0.000234
     7  C    0.002723  -0.008403  -0.016590  -0.008939  -0.004979  -0.002423
     8  N   -0.000345   0.000988  -0.006001  -0.001540  -0.009339  -0.000491
     9  O   -0.000006   0.000014  -0.000261   0.000059  -0.000388   0.000033
    10  C    0.002795   0.000864  -0.004959  -0.003518   0.123013  -0.001843
    11  C   -0.004183   0.006946  -0.000957  -0.000692   0.084986   0.017924
    12  C   -0.000784   0.003254   0.001658  -0.002242   0.085647   0.299137
    13  C    0.000091  -0.003636   0.000107   0.000553  -0.004737   0.007771
    14  C   -0.000040   0.001189  -0.000198  -0.000239   0.005170   0.002827
    15  C    0.001622  -0.005797   0.000331   0.001917   0.035213  -0.014529
    16  N    0.000026  -0.000659   0.004469   0.009522  -0.000355   0.000000
    17  C    0.000738  -0.000709   0.001669   0.006385   0.000361  -0.000074
    18  C    0.000002  -0.000016  -0.005374  -0.001176   0.000092  -0.000002
    19  C    0.000049  -0.000000   0.001355  -0.001105  -0.000015  -0.000000
    20  N    0.000001  -0.000001  -0.000210   0.000606  -0.000001   0.000000
    21  H    0.000003  -0.000011  -0.000001   0.000090  -0.000006  -0.000001
    22  H    0.000003  -0.000006   0.000071   0.000446   0.000772  -0.000000
    23  H    0.000327  -0.000740  -0.000153   0.000186   0.000013  -0.000000
    24  H   -0.019338  -0.035616   0.000284  -0.000140  -0.000001  -0.000000
    25  H    0.552176  -0.037665   0.004946   0.000249  -0.000001  -0.000000
    26  H   -0.037665   0.558373  -0.000722  -0.000267   0.000045   0.000000
    27  H    0.004946  -0.000722   0.552218  -0.031826  -0.000020   0.000000
    28  H    0.000249  -0.000267  -0.031826   0.540668  -0.000027  -0.000000
    29  H   -0.000001   0.000045  -0.000020  -0.000027   0.559268  -0.006235
    30  H   -0.000000   0.000000   0.000000  -0.000000  -0.006235   0.570565
    31  H    0.000000   0.000000   0.000000  -0.000000  -0.000146  -0.005509
    32  H    0.000000  -0.000000  -0.000000   0.000000   0.000015  -0.000164
    33  H   -0.000000   0.000000  -0.000000  -0.000000  -0.000135   0.000013
    34  H   -0.000000   0.000000  -0.000013  -0.000012   0.000003   0.000000
    35  H   -0.000000  -0.000000  -0.000001   0.000002  -0.000000  -0.000000
    36  H    0.000000   0.000000   0.000002  -0.000001   0.000000   0.000000
              31         32         33         34         35         36
     1  C    0.000052  -0.000004   0.000033  -0.000030   0.000001   0.000003
     2  C   -0.000031   0.000003  -0.000035   0.000076  -0.000013   0.000001
     3  N    0.000000  -0.000000  -0.000022   0.000027  -0.000010   0.000004
     4  C   -0.000012   0.000000  -0.000008   0.000033   0.000001  -0.000006
     5  C   -0.000040  -0.000012   0.000265  -0.000484  -0.000435  -0.000469
     6  O   -0.000005  -0.000023  -0.000474  -0.003936   0.000034   0.000041
     7  C    0.000701   0.000575  -0.007767  -0.073751  -0.006240  -0.001233
     8  N    0.000047  -0.000136  -0.039105   0.032626   0.000077   0.000457
     9  O   -0.000008   0.000152   0.002757  -0.013746  -0.000232  -0.000151
    10  C    0.008288  -0.009038   0.205036   0.013413   0.000584  -0.000348
    11  C    0.009325  -0.005646   0.111093   0.003566  -0.000053   0.000222
    12  C    0.027426  -0.003610  -0.003844   0.000903  -0.000004   0.000010
    13  C    0.251910   0.028037  -0.002357  -0.000226   0.000001  -0.000001
    14  C    0.009706   0.265075  -0.031230   0.000178  -0.000011   0.000006
    15  C    0.002407   0.035256   0.074674  -0.012605  -0.000029  -0.000160
    16  N   -0.000000   0.000003  -0.000235  -0.040930  -0.002543  -0.003111
    17  C    0.000012   0.000050  -0.001363   0.389146  -0.058832  -0.044579
    18  C    0.000000   0.000002  -0.000180  -0.028103   0.422635   0.414478
    19  C    0.000000   0.000000  -0.000022   0.022548  -0.038439  -0.048860
    20  N   -0.000000  -0.000000   0.000000  -0.000289  -0.000641  -0.000608
    21  H    0.000000  -0.000000  -0.000000  -0.000000  -0.000000  -0.000000
    22  H   -0.000000   0.000000  -0.000000   0.000000  -0.000000   0.000000
    23  H   -0.000000   0.000000   0.000000   0.000000   0.000000   0.000000
    24  H   -0.000000   0.000000   0.000000   0.000000   0.000000  -0.000000
    25  H    0.000000   0.000000  -0.000000  -0.000000  -0.000000   0.000000
    26  H    0.000000  -0.000000   0.000000   0.000000  -0.000000   0.000000
    27  H    0.000000  -0.000000  -0.000000  -0.000013  -0.000001   0.000002
    28  H   -0.000000   0.000000  -0.000000  -0.000012   0.000002  -0.000001
    29  H   -0.000146   0.000015  -0.000135   0.000003  -0.000000   0.000000
    30  H   -0.005509  -0.000164   0.000013   0.000000  -0.000000   0.000000
    31  H    0.574400  -0.005566  -0.000134   0.000000  -0.000000   0.000000
    32  H   -0.005566   0.569989  -0.005362   0.000000   0.000000  -0.000000
    33  H   -0.000134  -0.005362   0.539342   0.000010  -0.000000   0.000000
    34  H    0.000000   0.000000   0.000010   0.502363  -0.000127  -0.000191
    35  H   -0.000000   0.000000  -0.000000  -0.000127   0.507903  -0.028131
    36  H    0.000000  -0.000000   0.000000  -0.000191  -0.028131   0.509412
 Mulliken charges:
               1
     1  C   -0.230209
     2  C   -0.087009
     3  N    0.073654
     4  C   -0.173676
     5  C   -0.436132
     6  O   -0.360785
     7  C    0.578231
     8  N   -0.472788
     9  O   -0.048598
    10  C   -0.751283
    11  C    0.576468
    12  C   -0.470321
    13  C    0.062961
    14  C   -0.177913
    15  C    0.345381
    16  N   -0.170264
    17  C   -0.025443
    18  C   -0.393373
    19  C    0.209633
    20  N   -0.502087
    21  H    0.131608
    22  H    0.117013
    23  H    0.117921
    24  H    0.144048
    25  H    0.146480
    26  H    0.165390
    27  H    0.153496
    28  H    0.161147
    29  H    0.150989
    30  H    0.131563
    31  H    0.127178
    32  H    0.130406
    33  H    0.159049
    34  H    0.209551
    35  H    0.204503
    36  H    0.203211
 Sum of Mulliken charges =  -0.00000
 Mulliken charges with hydrogens summed into heavy atoms:
               1
     1  C    0.018412
     2  C    0.030912
     3  N    0.073654
     4  C    0.282242
     5  C   -0.121489
     6  O   -0.360785
     7  C    0.578231
     8  N   -0.472788
     9  O   -0.048598
    10  C   -0.751283
    11  C    0.727457
    12  C   -0.338758
    13  C    0.190140
    14  C   -0.047507
    15  C    0.504430
    16  N   -0.170264
    17  C    0.184107
    18  C    0.014341
    19  C    0.209633
    20  N   -0.502087
 Electronic spatial extent (au):  <R**2>=           6445.7698
 Charge=             -0.0000 electrons
 Dipole moment (field-independent basis, Debye):
    X=             -2.1462    Y=              0.3423    Z=             -1.1775  Tot=              2.4718
 Quadrupole moment (field-independent basis, Debye-Ang):
   XX=           -126.9865   YY=           -109.4001   ZZ=           -115.8598
   XY=            -16.8534   XZ=              2.0350   YZ=             -1.5743
 Traceless Quadrupole moment (field-independent basis, Debye-Ang):
   XX=             -9.5710   YY=              8.0154   ZZ=              1.5557
   XY=            -16.8534   XZ=              2.0350   YZ=             -1.5743
 Octapole moment (field-independent basis, Debye-Ang**2):
  XXX=           -176.0139  YYY=             23.6243  ZZZ=             -8.0843  XYY=             32.8450
  XXY=            -76.1556  XXZ=             -0.1609  XZZ=             13.1321  YZZ=              5.2133
  YYZ=            -24.3364  XYZ=            -21.6628
 Hexadecapole moment (field-independent basis, Debye-Ang**3):
 XXXX=          -5826.3509 YYYY=          -2942.1919 ZZZZ=           -569.5860 XXXY=           -222.5497
 XXXZ=             70.1752 YYYX=           -171.4983 YYYZ=            -42.6609 ZZZX=             -6.6908
 ZZZY=            -26.2836 XXYY=          -1238.8885 XXZZ=           -998.3765 YYZZ=           -580.8985
 XXYZ=             23.8623 YYXZ=             13.8131 ZZXY=            -19.7032
 N-N= 1.491812247150D+03 E-N=-5.104262653238D+03  KE= 9.038608230257D+02
 Unable to Open any file for archive entry.
 1\1\GINC-N2\SP\RB3LYP TD-FC\6-31+G(d,p)\C14H16N4O2\HPCMGAC13\25-Aug-20
 25\0\\# td=(50-50,nstates=3) b3lyp/6-31+g(d,p) geom=connectivity\\Titl
 e Card Required\\0,1\C,0,-0.099436,3.1563,-1.869114\C,0,-0.197667,3.58
 9617,-0.600356\N,0,-0.738926,2.921681,0.499066\C,0,-0.274273,3.308111,
 1.829715\C,0,-1.274951,1.624982,0.344328\O,0,-0.160917,0.650119,0.2921
 53\C,0,-0.45027,-0.647477,0.066652\N,0,0.579349,-1.484708,-0.064512\O,
 0,0.371831,-2.7713,-0.177548\C,0,1.972971,-1.068883,-0.0397\C,0,2.4249
 59,0.104476,-0.651789\C,0,3.791541,0.392065,-0.639029\C,0,4.696109,-0.
 47403,-0.019609\C,0,4.230549,-1.64727,0.581839\C,0,2.870824,-1.955023,
 0.564007\N,0,-1.766408,-0.991959,0.005126\C,0,-2.243695,-2.178522,-0.1
 49048\C,0,-3.740259,-2.379898,-0.226236\C,0,-4.540327,-1.162481,-0.070
 234\N,0,-5.195649,-0.212891,0.054799\H,0,0.264096,3.832961,-2.632999\H
 ,0,-0.389208,2.16078,-2.186273\H,0,0.138677,4.593624,-0.351522\H,0,-0.
 197112,4.397631,1.884023\H,0,-1.002255,2.981539,2.577404\H,0,0.703839,
 2.874014,2.077579\H,0,-1.907455,1.363718,1.193377\H,0,-1.846425,1.5449
 67,-0.580607\H,0,1.733246,0.78682,-1.127726\H,0,4.145361,1.298448,-1.1
 21128\H,0,5.756563,-0.240032,-0.011436\H,0,4.926968,-2.330034,1.059365
 \H,0,2.489559,-2.873545,0.993105\H,0,-1.616091,-3.063029,-0.231651\H,0
 ,-3.988337,-2.848925,-1.18912\H,0,-4.043753,-3.106158,0.540854\\Versio
 n=ES64L-G16RevC.02\State=1-A\HF=-912.4885108\RMSD=2.486e-09\PG=C01 [X(
 C14H16N4O2)]\\@
 The archive entry for this job was punched.


 Children are likely to live up to what you believe of them.
 -- Lady Bird Johnson
 Job cpu time:       0 days  1 hours 26 minutes  4.1 seconds.
 Elapsed time:       0 days  0 hours  5 minutes 31.8 seconds.
 File lengths (MBytes):  RWF=   1221 Int=      0 D2E=      0 Chk=     55 Scr=      2
 Normal termination of Gaussian 16 at Mon Aug 25 14:25:25 2025.
