 Entering Gaussian System, Link 0=g16
 Input=M883E.gjf
 Output=M883E.log
 Initial command:
 /hpc/softwares/Gaussian/g16/l1.exe "/hpc/home/hpcmgac13/pbs.13408.admin1.x8z/Gau-373657.inp" -scrdir="/hpc/home/hpcmgac13/pbs.13408.admin1.x8z/"
 Default linda workers: n1
 Default is to use  16 SMP processors on each worker.
 Entering Link 1 = /hpc/softwares/Gaussian/g16/l1.exe PID=    373658.
  
 Copyright (c) 1988-2021, Gaussian, Inc.  All Rights Reserved.
  
 This is part of the Gaussian(R) 16 program.  It is based on
 the Gaussian(R) 09 system (copyright 2009, Gaussian, Inc.),
 the Gaussian(R) 03 system (copyright 2003, Gaussian, Inc.),
 the Gaussian(R) 98 system (copyright 1998, Gaussian, Inc.),
 the Gaussian(R) 94 system (copyright 1995, Gaussian, Inc.),
 the Gaussian 92(TM) system (copyright 1992, Gaussian, Inc.),
 the Gaussian 90(TM) system (copyright 1990, Gaussian, Inc.),
 the Gaussian 88(TM) system (copyright 1988, Gaussian, Inc.),
 the Gaussian 86(TM) system (copyright 1986, Carnegie Mellon
 University), and the Gaussian 82(TM) system (copyright 1983,
 Carnegie Mellon University). Gaussian is a federally registered
 trademark of Gaussian, Inc.
  
 This software contains proprietary and confidential information,
 including trade secrets, belonging to Gaussian, Inc.
  
 This software is provided under written license and may be
 used, copied, transmitted, or stored only in accord with that
 written license.
  
 The following legend is applicable only to US Government
 contracts under FAR:
  
                    RESTRICTED RIGHTS LEGEND
  
 Use, reproduction and disclosure by the US Government is
 subject to restrictions as set forth in subparagraphs (a)
 and (c) of the Commercial Computer Software - Restricted
 Rights clause in FAR 52.227-19.
  
 Gaussian, Inc.
 340 Quinnipiac St., Bldg. 40, Wallingford CT 06492
  
  
 ---------------------------------------------------------------
 Warning -- This program may not be used in any manner that
 competes with the business of Gaussian, Inc. or will provide
 assistance to any competitor of Gaussian, Inc.  The licensee
 of this program is prohibited from giving any competitor of
 Gaussian, Inc. access to this program.  By using this program,
 the user acknowledges that Gaussian, Inc. is engaged in the
 business of creating and licensing software in the field of
 computational chemistry and represents and warrants to the
 licensee that it is not a competitor of Gaussian, Inc. and that
 it will not use this program in any manner prohibited above.
 ---------------------------------------------------------------
  

 Cite this work as:
 Gaussian 16, Revision C.02,
 M. J. Frisch, G. W. Trucks, H. B. Schlegel, G. E. Scuseria, 
 M. A. Robb, J. R. Cheeseman, G. Scalmani, V. Barone, 
 G. A. Petersson, H. Nakatsuji, X. Li, M. Caricato, A. V. Marenich, 
 J. Bloino, B. G. Janesko, R. Gomperts, B. Mennucci, H. P. Hratchian, 
 J. V. Ortiz, A. F. Izmaylov, J. L. Sonnenberg, D. Williams-Young, 
 F. Ding, F. Lipparini, F. Egidi, J. Goings, B. Peng, A. Petrone, 
 T. Henderson, D. Ranasinghe, V. G. Zakrzewski, J. Gao, N. Rega, 
 G. Zheng, W. Liang, M. Hada, M. Ehara, K. Toyota, R. Fukuda, 
 J. Hasegawa, M. Ishida, T. Nakajima, Y. Honda, O. Kitao, H. Nakai, 
 T. Vreven, K. Throssell, J. A. Montgomery, Jr., J. E. Peralta, 
 F. Ogliaro, M. J. Bearpark, J. J. Heyd, E. N. Brothers, K. N. Kudin, 
 V. N. Staroverov, T. A. Keith, R. Kobayashi, J. Normand, 
 K. Raghavachari, A. P. Rendell, J. C. Burant, S. S. Iyengar, 
 J. Tomasi, M. Cossi, J. M. Millam, M. Klene, C. Adamo, R. Cammi, 
 J. W. Ochterski, R. L. Martin, K. Morokuma, O. Farkas, 
 J. B. Foresman, and D. J. Fox, Gaussian, Inc., Wallingford CT, 2019.
 
 ******************************************
 Gaussian 16:  ES64L-G16RevC.02  7-Dec-2021
                25-Aug-2025 
 ******************************************
 SetLPE:    new flags="-opt 'Tsnet.Node.lindarsharg: ssh'  -nodelist 'n1' -env GAUSS_MDEF=4294967296 -env GAUSS_EXEDIR="/hpc/softwares/Gaussian/g16/bsd:/hpc/softwares/Gaussian/g16""
 Will use up to    1 processors via Linda.
 ----------------------------------------------------------
 # td=(50-50,nstates=3) b3lyp/6-31+g(d,p) geom=connectivity
 ----------------------------------------------------------
 1/38=1,57=2,172=1/1;
 2/12=2,17=6,18=5,40=1/2;
 3/5=1,6=6,7=111,11=9,25=1,30=1,74=-5/1,2,3,8;
 4//1;
 5/5=2,38=5/2;
 8/6=1,10=2,108=3/1;
 9/41=3,42=1,48=2,70=2/14;
 6/7=2,8=2,9=2,10=2/1;
 99/5=1,9=1/99;
 -------------------
 Title Card Required
 -------------------
 Symbolic Z-matrix:
 Charge =  0 Multiplicity = 1
 C                     3.46554   2.73599  -0.13982 
 N                     3.24414   1.32169   0.14468 
 C                     4.43765   0.48015   0.20774 
 C                     4.12644  -0.83053   0.91146 
 N                     3.02876  -1.52885   0.24245 
 C                     2.87971  -2.94413   0.57222 
 C                     1.94997  -0.76922  -0.12964 
 C                     0.67453  -1.12965  -0.51517 
 C                     0.17138  -2.43687  -0.69286 
 N                    -0.27786  -3.5005   -0.87448 
 C                    -0.12045   0.10103  -0.92563 
 C                    -1.56218   0.35351  -0.3588 
 C                    -2.66749  -0.36005  -1.15692 
 C                    -2.41305  -0.9611   -2.51555 
 C                    -3.92367  -0.3042   -0.669 
 C                    -4.22079   0.34988   0.60065 
 O                    -5.53886   0.60208   0.91853 
 C                    -3.23941   0.66474   1.46097 
 C                    -1.79582   0.24817   1.1933 
 C                    -0.87235   1.21339   1.96511 
 C                    -1.61374  -1.17812   1.77388 
 C                     0.8848    1.21686  -0.68047 
 C                     0.55518   2.55682  -0.97805 
 N                     0.21787   3.64365  -1.24561 
 C                     2.07674   0.70391  -0.22329 
 H                     2.61494   3.32983   0.19325 
 H                     4.35027   3.06467   0.41044 
 H                     3.62421   2.92422  -1.21132 
 H                     5.20379   1.01716   0.77426 
 H                     4.83857   0.28096  -0.79958 
 H                     3.8887   -0.64037   1.9707 
 H                     5.0099   -1.47438   0.87558 
 H                     3.87561  -3.38422   0.65987 
 H                     2.34357  -3.09121   1.52073 
 H                     2.34166  -3.4701   -0.21489 
 H                    -0.2466    0.05335  -2.01614 
 H                    -1.73927   1.42096  -0.58106 
 H                    -3.34212  -1.36304  -2.92912 
 H                    -2.03798  -0.21043  -3.22478 
 H                    -1.68455  -1.77767  -2.48621 
 H                    -4.74818  -0.74077  -1.23126 
 H                    -6.08206   0.54435   0.12226 
 H                    -3.48135   1.11306   2.42078 
 H                    -0.95323   2.23791   1.58762 
 H                    -1.16051   1.22509   3.02265 
 H                     0.17483   0.90558   1.91394 
 H                    -1.95819  -1.18554   2.81374 
 H                    -2.20207  -1.91605   1.22221 
 H                    -0.56754  -1.49547   1.76794 
 
                          Input orientation:                          
 ---------------------------------------------------------------------
 Center     Atomic      Atomic             Coordinates (Angstroms)
 Number     Number       Type             X           Y           Z
 ---------------------------------------------------------------------
      1          6           0        3.465543    2.735988   -0.139816
      2          7           0        3.244143    1.321687    0.144677
      3          6           0        4.437653    0.480149    0.207743
      4          6           0        4.126442   -0.830525    0.911461
      5          7           0        3.028762   -1.528853    0.242450
      6          6           0        2.879711   -2.944125    0.572217
      7          6           0        1.949971   -0.769215   -0.129638
      8          6           0        0.674529   -1.129646   -0.515167
      9          6           0        0.171378   -2.436866   -0.692857
     10          7           0       -0.277857   -3.500496   -0.874475
     11          6           0       -0.120450    0.101029   -0.925632
     12          6           0       -1.562178    0.353507   -0.358803
     13          6           0       -2.667488   -0.360052   -1.156919
     14          6           0       -2.413046   -0.961100   -2.515551
     15          6           0       -3.923670   -0.304203   -0.668995
     16          6           0       -4.220795    0.349883    0.600647
     17          8           0       -5.538860    0.602082    0.918529
     18          6           0       -3.239410    0.664739    1.460971
     19          6           0       -1.795816    0.248167    1.193299
     20          6           0       -0.872347    1.213389    1.965111
     21          6           0       -1.613742   -1.178115    1.773881
     22          6           0        0.884803    1.216861   -0.680472
     23          6           0        0.555180    2.556815   -0.978045
     24          7           0        0.217865    3.643646   -1.245613
     25          6           0        2.076741    0.703912   -0.223291
     26          1           0        2.614938    3.329831    0.193254
     27          1           0        4.350270    3.064670    0.410439
     28          1           0        3.624213    2.924219   -1.211323
     29          1           0        5.203788    1.017162    0.774259
     30          1           0        4.838565    0.280963   -0.799582
     31          1           0        3.888698   -0.640372    1.970702
     32          1           0        5.009903   -1.474381    0.875577
     33          1           0        3.875607   -3.384217    0.659874
     34          1           0        2.343574   -3.091206    1.520728
     35          1           0        2.341664   -3.470099   -0.214888
     36          1           0       -0.246598    0.053347   -2.016137
     37          1           0       -1.739270    1.420962   -0.581058
     38          1           0       -3.342118   -1.363041   -2.929115
     39          1           0       -2.037976   -0.210425   -3.224782
     40          1           0       -1.684554   -1.777668   -2.486212
     41          1           0       -4.748176   -0.740772   -1.231257
     42          1           0       -6.082062    0.544347    0.122259
     43          1           0       -3.481346    1.113065    2.420783
     44          1           0       -0.953228    2.237910    1.587619
     45          1           0       -1.160511    1.225086    3.022655
     46          1           0        0.174826    0.905576    1.913942
     47          1           0       -1.958185   -1.185535    2.813744
     48          1           0       -2.202067   -1.916051    1.222208
     49          1           0       -0.567540   -1.495472    1.767943
 ---------------------------------------------------------------------
                    Distance matrix (angstroms):
                    1          2          3          4          5
     1  C    0.000000
     2  N    1.459521   0.000000
     3  C    2.480848   1.461721   0.000000
     4  C    3.776504   2.449168   1.519848   0.000000
     5  N    4.304158   2.860337   2.454031   1.462921   0.000000
     6  C    5.754466   4.302645   3.779640   2.477242   1.460807
     7  C    3.818836   2.474268   2.804157   2.413436   1.370872
     8  C    4.782653   3.612111   4.156337   3.747058   2.505147
     9  C    6.157580   4.926466   5.246061   4.560340   3.140689
    10  N    7.310711   6.057772   6.265203   5.451253   4.008569
    11  C    4.518834   3.735780   4.712173   4.720042   3.733426
    12  C    5.567957   4.928650   6.027851   5.947764   4.998151
    13  C    6.945072   6.282498   7.283630   7.117375   5.980936
    14  C    7.339645   6.655202   7.511698   7.384197   6.127168
    15  C    8.007700   7.394804   8.443672   8.220654   7.118062
    16  C    8.082176   7.541725   8.668337   8.436014   7.497602
    17  O    9.314125   8.846345  10.002544   9.770899   8.854497
    18  C    7.197846   6.648358   7.780871   7.536150   6.751786
    19  C    5.970624   5.258635   6.315162   6.026288   5.228620
    20  C    5.056314   4.502355   5.641107   5.502332   5.070119
    21  C    6.691904   5.701084   6.466994   5.815006   4.901137
    22  C    3.043070   2.501668   3.735561   4.151417   3.603788
    23  C    3.033965   3.164896   4.559850   5.272401   4.929594
    24  N    3.548809   4.059896   5.470518   6.320455   6.072085
    25  C    2.462737   1.371085   2.410346   2.800613   2.471538
    26  H    1.089548   2.104971   3.382778   4.484309   4.876523
    27  H    1.092499   2.081378   2.593930   3.933658   4.782788
    28  H    1.099425   2.133377   2.940903   4.342413   4.722062
    29  H    2.609864   2.080701   1.093749   2.143233   3.390538
    30  H    2.889226   2.125303   1.102320   2.161063   2.763449
    31  H    4.004142   2.756718   2.159848   1.102122   2.125028
    32  H    4.598182   3.386756   2.143282   1.093774   2.080562
    33  H    6.185836   4.775951   3.931112   2.578286   2.081770
    34  H    6.162176   4.709370   4.343233   2.942873   2.131765
    35  H    6.307476   4.889271   4.491798   3.379563   2.109431
    36  H    4.949458   4.296868   5.202885   5.336248   4.281653
    37  H    5.386471   5.036959   6.297755   6.457816   5.666895
    38  H    8.421786   7.748212   8.588484   8.415045   7.118597
    39  H    6.963267   6.449915   7.361582   7.449368   6.279473
    40  H    7.238934   6.389024   7.059501   6.797716   5.451867
    41  H    8.985782   8.368040   9.377677   9.130068   7.954473
    42  H    9.799425   9.358571  10.520258  10.330860   9.344502
    43  H    7.579565   7.103266   8.246737   7.995876   7.355703
    44  H    4.770498   4.532049   5.835699   5.972900   5.643955
    45  H    5.803828   5.262420   6.310159   6.052648   5.732689
    46  H    4.289190   3.567093   4.611269   4.431059   4.106736
    47  H    7.315647   6.361941   7.104399   6.384935   5.621304
    48  H    7.457773   6.426914   7.131395   6.428449   5.335862
    49  H    6.149029   5.010020   5.602612   4.817591   3.906614
                    6          7          8          9         10
     6  C    0.000000
     7  C    2.467235   0.000000
     8  C    3.055743   1.380324   0.000000
     9  C    3.031962   2.502333   1.411934   0.000000
    10  N    3.517485   3.602485   2.580130   1.168805   0.000000
    11  C    4.529623   2.382766   1.521524   2.565202   3.605326
    12  C    5.609951   3.694349   2.688317   3.301968   4.094965
    13  C    6.359148   4.748015   3.489011   3.547911   3.956324
    14  C    6.440495   4.976476   3.682806   3.489892   3.701445
    15  C    7.402418   5.916655   4.674233   4.617168   4.852882
    16  C    7.827419   6.313798   5.234333   5.360066   5.705100
    17  O    9.141545   7.685161   6.607614   6.666227   6.908268
    18  C    7.159429   5.613906   4.737495   5.088458   5.619100
    19  C    5.695351   4.100750   3.304516   3.825812   4.542286
    20  C    5.770877   4.035365   3.746254   4.634492   5.535104
    21  C    4.975330   4.060866   3.237016   3.294830   3.767205
    22  C    4.781495   2.320021   2.361702   3.722748   4.862394
    23  C    6.169854   3.705093   3.717324   5.016521   6.115202
    24  N    7.334075   4.870209   4.850403   6.105762   7.170931
    25  C    3.819132   1.481535   2.326655   3.703429   4.862635
    26  H    6.290965   4.165167   4.914670   6.325423   7.494109
    27  H    6.188242   4.555414   5.653327   6.996235   8.134615
    28  H    6.178411   4.196973   5.061530   6.397821   7.524399
    29  H    4.597168   3.820405   5.175480   6.277570   7.292187
    30  H    4.014989   3.145739   4.405667   5.401909   6.362611
    31  H    2.877689   2.861239   4.092654   4.913289   5.799614
    32  H    2.605742   3.297105   4.566013   5.176648   5.926907
    33  H    1.092325   3.342101   4.087874   4.055696   4.429335
    34  H    1.099431   2.875808   3.283032   3.169630   3.574411
    35  H    1.088888   2.730470   2.889157   2.450748   2.701457
    36  H    5.045614   3.010050   2.121523   2.850778   3.732850
    37  H    6.459026   4.314065   3.512317   4.306496   5.142234
    38  H    7.312339   6.016303   4.692022   4.301000   4.263796
    39  H    6.787780   5.078965   3.942672   4.030996   4.409822
    40  H    5.616683   4.447493   3.141691   2.663672   2.746749
    41  H    8.141986   6.788192   5.483588   5.231503   5.265655
    42  H    9.627319   8.142632   6.989999   6.975497   7.144440
    43  H    7.767949   6.288627   5.560652   5.969854   6.511990
    44  H    6.525025   4.518887   4.290890   5.321545   6.280711
    45  H    6.301616   4.856880   4.629073   5.384129   6.188524
    46  H    4.892528   3.183125   3.208177   4.238789   5.233895
    47  H    5.614474   4.910245   4.244521   4.289186   4.667495
    48  H    5.225313   4.514658   3.451334   3.093859   3.257166
    49  H    3.925799   3.235139   2.624720   2.736377   3.329626
                   11         12         13         14         15
    11  C    0.000000
    12  C    1.569592   0.000000
    13  C    2.598748   1.538787   0.000000
    14  C    2.985290   2.665282   1.507276   0.000000
    15  C    3.833348   2.470920   1.348771   2.474524   0.000000
    16  C    4.382269   2.826447   2.450675   3.833709   1.458802
    17  O    5.745533   4.184180   3.671235   4.899710   2.439349
    18  C    3.967563   2.494304   2.868909   4.374809   2.437994
    19  C    2.705248   1.573119   2.579393   3.949540   2.881148
    20  C    3.187333   2.572128   3.930053   5.213299   4.307223
    21  C    3.339686   2.626188   3.220124   4.368662   3.473778
    22  C    1.521748   2.614683   3.915664   4.357389   5.043330
    23  C    2.547569   3.117889   4.350368   4.852836   5.323630
    24  N    3.573091   3.844477   4.935861   5.453267   5.750679
    25  C    2.384198   3.658262   4.950898   5.308946   6.100810
    26  H    4.377147   5.158640   6.583481   7.143552   7.530144
    27  H    5.527711   6.549747   7.964563   8.397064   8.998476
    28  H    4.698353   5.850983   7.097528   7.296932   8.227233
    29  H    5.663607   6.892210   8.220897   8.529509   9.334853
    30  H    4.963879   6.416312   7.541845   7.554676   8.782724
    31  H    5.001169   6.010527   7.269399   7.742177   8.253127
    32  H    5.660989   6.932324   8.019670   8.177003   9.141321
    33  H    5.534369   6.676660   7.433600   7.449965   8.490059
    34  H    4.716615   5.536568   6.303946   6.591990   7.200043
    35  H    4.395466   5.466320   5.970881   5.847683   7.034452
    36  H    1.098812   2.137195   2.601896   2.443770   3.932365
    37  H    2.116963   1.104635   2.089310   3.141728   2.784875
    38  H    4.066521   3.566683   2.145179   1.093511   2.562710
    39  H    3.009983   2.959432   2.166733   1.098726   3.177528
    40  H    2.900230   3.013760   2.177800   1.094689   3.238366
    41  H    4.713585   3.479828   2.116539   2.674096   1.089285
    42  H    6.069219   4.549417   3.756800   4.762992   2.450464
    43  H    4.849570   3.462114   3.953782   5.459928   3.427977
    44  H    3.402383   2.776752   4.149769   5.403771   4.514219
    45  H    4.234879   3.515003   4.717254   6.084405   4.858194
    46  H    2.966086   2.913303   4.371584   5.459118   4.993275
    47  H    4.360671   3.548313   4.117122   5.353378   4.095039
    48  H    3.607625   2.839005   2.880624   3.863585   3.023015
    49  H    3.162918   2.988491   3.775418   4.694653   4.315252
                   16         17         18         19         20
    16  C    0.000000
    17  O    1.379112   0.000000
    18  C    1.342538   2.363396   0.000000
    19  C    2.498421   3.769766   1.526153   0.000000
    20  C    3.717460   4.821346   2.481564   1.542771   0.000000
    21  C    3.241602   4.394005   2.477261   1.550647   2.511081
    22  C    5.334796   6.648173   4.679717   3.411027   3.175956
    23  C    5.492973   6.674975   4.891591   3.946109   3.536212
    24  N    5.827457   6.861086   5.305868   4.640310   4.171745
    25  C    6.361067   7.701396   5.576714   4.148630   3.707532
    26  H    7.468153   8.628503   6.556158   5.472796   4.447467
    27  H    8.992742  10.203793   8.029105   6.805875   5.754996
    28  H    8.453082   9.689711   7.704267   6.505396   5.765043
    29  H    9.449771  10.751632   8.478406   7.054176   6.194841
    30  H    9.167191  10.523591   8.397087   6.927313   6.413070
    31  H    8.283811   9.567111   7.264507   5.805821   5.109208
    32  H    9.413252  10.751276   8.542230   7.027512   6.558358
    33  H    8.916206  10.226909   8.225525   6.756019   6.736816
    34  H    7.468506   8.725582   6.729072   5.328524   5.391583
    35  H    7.636965   8.942592   7.145192   5.738226   6.084186
    36  H    4.767571   6.076299   4.628283   3.569105   4.193757
    37  H    2.949848   4.166078   2.644272   2.127672   2.697706
    38  H    4.020622   4.846829   4.836868   4.688426   6.057327
    39  H    4.439882   5.484832   4.915856   4.448414   5.506444
    40  H    4.526333   5.666670   4.895220   4.201808   5.424056
    41  H    2.196254   2.655187   3.391154   3.946252   5.390507
    42  H    1.931576   0.965633   3.144410   4.427951   5.566404
    43  H    2.107635   2.598314   1.086632   2.257383   2.650392
    44  H    3.900738   4.914431   2.778045   2.196479   1.094845
    45  H    3.999680   4.897491   2.659825   2.168992   1.096164
    46  H    4.621149   5.807681   3.452563   2.198850   1.092675
    47  H    3.517771   4.428165   2.625842   2.169725   2.766597
    48  H    3.097750   4.191349   2.791696   2.202207   3.480439
    49  H    4.256076   5.462166   3.449584   2.208881   2.733077
                   21         22         23         24         25
    21  C    0.000000
    22  C    4.242934   0.000000
    23  C    5.121232   1.411622   0.000000
    24  N    5.976747   2.579433   1.169006   0.000000
    25  C    4.598955   1.375808   2.513573   3.625272   0.000000
    26  H    6.379788   2.867300   2.492408   2.813321   2.712677
    27  H    7.445108   4.076021   4.072900   4.489376   3.338222
    28  H    7.292240   3.271275   3.099737   3.481660   2.881083
    29  H    7.231680   4.561771   5.201025   5.986462   3.297219
    30  H    7.098161   4.064766   4.853734   5.732142   2.852835
    31  H    5.532156   4.416042   5.479914   6.494036   3.147045
    32  H    6.690844   5.165319   6.287369   7.325113   3.815221
    33  H    6.020037   5.649014   7.000277   8.148670   4.552878
    34  H    4.402767   5.052993   6.429803   7.584821   4.185179
    35  H    4.985341   4.930193   6.332269   7.495217   4.182418
    36  H    4.213053   2.101864   2.826276   3.701308   3.005900
    37  H    3.509515   2.633875   2.590803   3.035183   3.899243
    38  H    5.013946   5.438672   5.861815   6.369817   6.399829
    39  H    5.109112   4.129564   4.407936   4.884649   5.174539
    40  H    4.302659   4.339297   5.106733   5.877834   5.042459
    41  H    4.364264   5.988835   6.250102   6.624567   7.048588
    42  H    5.065631   7.045130   7.022370   7.153028   8.167676
    43  H    3.025877   5.356474   5.470831   5.790549   6.168538
    44  H    3.484279   3.092755   2.993264   3.372648   3.848799
    45  H    2.745948   4.230429   4.552219   5.095828   4.613847
    46  H    2.749611   2.707757   3.351843   4.181108   2.868051
    47  H    1.095450   5.105255   5.890658   6.673422   5.392052
    48  H    1.093169   4.792087   5.696495   6.546483   5.221290
    49  H    1.093293   3.932021   5.022149   6.009069   3.974233
                   26         27         28         29         30
    26  H    0.000000
    27  H    1.768857   0.000000
    28  H    1.776512   1.782413   0.000000
    29  H    3.519680   2.247921   3.174029   0.000000
    30  H    3.902030   3.074347   2.937854   1.775486   0.000000
    31  H    4.532582   4.046579   4.785556   2.430711   3.070111
    32  H    5.411273   4.610255   5.061914   2.501128   2.432436
    33  H    6.847296   6.471141   6.584903   4.598835   4.060892
    34  H    6.562434   6.569199   6.729746   5.061297   4.793782
    35  H    6.817647   6.865037   6.597357   5.413472   4.543880
    36  H    4.879052   6.007290   4.885981   6.198545   5.233612
    37  H    4.816894   6.384931   5.605708   7.085619   6.679466
    38  H    8.201143   9.483147   8.358300   9.613160   8.611692
    39  H    6.772444   8.046786   6.777934   8.363160   7.308206
    40  H    7.193867   8.261835   7.205282   8.117327   7.045123
    41  H    8.533141   9.997913   9.139445  10.303107   9.650694
    42  H    9.132457  10.736323  10.082361  11.314551  10.962630
    43  H    6.858616   8.317719   8.182997   8.840350   8.960137
    44  H    3.983510   5.495123   5.409072   6.329346   6.563020
    45  H    5.166186   6.369965   6.611143   6.752986   7.175638
    46  H    3.846027   4.935235   5.073507   5.157692   5.431741
    47  H    6.940386   7.977263   8.015885   7.765644   7.835978
    48  H    7.195941   8.270409   7.955867   7.978163   7.647549
    49  H    5.990940   6.842702   6.780891   6.372516   6.242906
                   31         32         33         34         35
    31  H    0.000000
    32  H    1.775379   0.000000
    33  H    3.040909   2.231732   0.000000
    34  H    2.931974   3.184282   1.781586   0.000000
    35  H    3.895828   3.505924   1.767927   1.776493   0.000000
    36  H    5.785914   6.190861   5.997537   5.395055   4.728453
    37  H    6.514185   7.487064   7.493764   6.437917   6.380484
    38  H    8.764426   9.178471   8.310328   7.423931   6.641694
    39  H    7.893249   8.251250   7.754610   7.072252   6.234275
    40  H    7.226248   7.497290   6.587431   5.831532   4.922770
    41  H    9.211852  10.009847   9.215954   7.961839   7.664729
    42  H   10.209621  11.299311  10.718107   9.282473   9.337484
    43  H    7.589115   9.010208   8.800631   7.239868   7.865087
    44  H    5.645840   7.060244   7.469047   6.266806   6.832767
    45  H    5.484619   7.069022   7.224326   5.758886   6.692658
    46  H    4.023186   5.488203   5.802654   4.564247   5.326691
    47  H    5.932450   7.238382   6.595945   4.879406   5.734156
    48  H    6.267776   7.233791   6.277727   4.704568   5.012564
    49  H    4.542066   5.648419   4.953456   3.328974   4.036612
                   36         37         38         39         40
    36  H    0.000000
    37  H    2.481510   0.000000
    38  H    3.524476   3.979091   0.000000
    39  H    2.177024   3.120885   1.765426   0.000000
    40  H    2.375143   3.723418   1.765105   1.768232   0.000000
    41  H    4.637981   3.761565   2.290620   3.405964   3.469272
    42  H    6.234297   4.485861   4.522865   5.303489   5.615510
    43  H    5.592214   3.484348   5.896770   5.975562   5.971884
    44  H    4.273020   2.447126   6.250962   5.507288   5.766784
    45  H    5.253345   3.655144   6.846998   6.470016   6.295933
    46  H    4.043441   3.186599   6.400837   5.705124   5.478909
    47  H    5.271822   4.285607   5.909925   6.117271   5.339947
    48  H    4.264888   3.821205   4.340394   4.765691   3.746912
    49  H    4.101354   3.923818   5.456938   5.361048   4.407402
                   41         42         43         44         45
    41  H    0.000000
    42  H    2.294077   0.000000
    43  H    4.287070   3.517155   0.000000
    44  H    5.587507   5.596461   2.889778   0.000000
    45  H    5.901839   5.753031   2.400224   1.768646   0.000000
    46  H    6.069488   6.518379   3.696963   1.775980   1.764782
    47  H    4.933953   5.219477   2.785319   3.772704   2.547748
    48  H    3.726049   4.724173   3.499811   4.352989   3.767385
    49  H    5.200239   6.105661   3.964963   3.757581   3.054071
                   46         47         48         49
    46  H    0.000000
    47  H    3.119635   0.000000
    48  H    3.753624   1.768083   0.000000
    49  H    2.517430   1.767386   1.773807   0.000000
 Stoichiometry    C20H24N4O
 Framework group  C1[X(C20H24N4O)]
 Deg. of freedom   141
 Full point group                 C1      NOp   1
 Largest Abelian subgroup         C1      NOp   1
 Largest concise Abelian subgroup C1      NOp   1
                         Standard orientation:                         
 ---------------------------------------------------------------------
 Center     Atomic      Atomic             Coordinates (Angstroms)
 Number     Number       Type             X           Y           Z
 ---------------------------------------------------------------------
      1          6           0        3.465543   -2.735988    0.139816
      2          7           0        3.244143   -1.321687   -0.144677
      3          6           0        4.437653   -0.480149   -0.207743
      4          6           0        4.126442    0.830525   -0.911461
      5          7           0        3.028762    1.528853   -0.242450
      6          6           0        2.879711    2.944125   -0.572217
      7          6           0        1.949971    0.769215    0.129638
      8          6           0        0.674529    1.129646    0.515167
      9          6           0        0.171378    2.436866    0.692857
     10          7           0       -0.277857    3.500496    0.874475
     11          6           0       -0.120450   -0.101029    0.925632
     12          6           0       -1.562178   -0.353507    0.358803
     13          6           0       -2.667488    0.360052    1.156919
     14          6           0       -2.413046    0.961100    2.515551
     15          6           0       -3.923670    0.304203    0.668995
     16          6           0       -4.220795   -0.349883   -0.600647
     17          8           0       -5.538860   -0.602082   -0.918529
     18          6           0       -3.239410   -0.664739   -1.460971
     19          6           0       -1.795816   -0.248167   -1.193299
     20          6           0       -0.872347   -1.213389   -1.965111
     21          6           0       -1.613742    1.178115   -1.773881
     22          6           0        0.884803   -1.216861    0.680472
     23          6           0        0.555180   -2.556815    0.978045
     24          7           0        0.217865   -3.643646    1.245613
     25          6           0        2.076741   -0.703912    0.223291
     26          1           0        2.614938   -3.329831   -0.193254
     27          1           0        4.350270   -3.064670   -0.410439
     28          1           0        3.624213   -2.924219    1.211323
     29          1           0        5.203788   -1.017162   -0.774259
     30          1           0        4.838565   -0.280963    0.799582
     31          1           0        3.888698    0.640372   -1.970702
     32          1           0        5.009903    1.474381   -0.875577
     33          1           0        3.875607    3.384217   -0.659874
     34          1           0        2.343574    3.091206   -1.520728
     35          1           0        2.341664    3.470099    0.214888
     36          1           0       -0.246598   -0.053347    2.016137
     37          1           0       -1.739270   -1.420962    0.581058
     38          1           0       -3.342118    1.363041    2.929115
     39          1           0       -2.037976    0.210425    3.224782
     40          1           0       -1.684554    1.777668    2.486212
     41          1           0       -4.748176    0.740772    1.231257
     42          1           0       -6.082062   -0.544347   -0.122259
     43          1           0       -3.481346   -1.113065   -2.420783
     44          1           0       -0.953228   -2.237910   -1.587619
     45          1           0       -1.160511   -1.225086   -3.022655
     46          1           0        0.174826   -0.905576   -1.913942
     47          1           0       -1.958185    1.185535   -2.813744
     48          1           0       -2.202067    1.916051   -1.222208
     49          1           0       -0.567540    1.495472   -1.767943
 ---------------------------------------------------------------------
 Rotational constants (GHZ):           0.3681120           0.1671677           0.1408672
 Standard basis: 6-31+G(d,p) (6D, 7F)
 There are   595 symmetry adapted cartesian basis functions of A   symmetry.
 There are   595 symmetry adapted basis functions of A   symmetry.
   595 basis functions,   968 primitive gaussians,   595 cartesian basis functions
    90 alpha electrons       90 beta electrons
       nuclear repulsion energy      2263.9083257095 Hartrees.
 NAtoms=   49 NActive=   49 NUniq=   49 SFac= 1.00D+00 NAtFMM=   60 NAOKFM=F Big=F
 Integral buffers will be    131072 words long.
 Regular integral format.
 Two-electron integral symmetry is turned on.
 One-electron integrals computed using PRISM.
 NBasis=   595 RedAO= T EigKep=  1.42D-06  NBF=   595
 NBsUse=   591 1.00D-06 EigRej=  9.25D-07 NBFU=   591
 ExpMin= 4.38D-02 ExpMax= 5.48D+03 ExpMxC= 8.25D+02 IAcc=3 IRadAn=         5 AccDes= 0.00D+00
 Harris functional with IExCor=  402 and IRadAn=       5 diagonalized for initial guess.
 HarFok:  IExCor=  402 AccDes= 0.00D+00 IRadAn=         5 IDoV= 1 UseB2=F ITyADJ=14
 ICtDFT=  3500011 ScaDFX=  1.000000  1.000000  1.000000  1.000000
 FoFCou: FMM=F IPFlag=           0 FMFlag=      100000 FMFlg1=           0
         NFxFlg=           0 DoJE=T BraDBF=F KetDBF=T FulRan=T
         wScrn=  0.000000 ICntrl=       500 IOpCl=  0 I1Cent=   200000004 NGrid=           0
         NMat0=    1 NMatS0=      1 NMatT0=    0 NMatD0=    1 NMtDS0=    0 NMtDT0=    0
 Petite list used in FoFCou.
 Requested convergence on RMS density matrix=1.00D-08 within 128 cycles.
 Requested convergence on MAX density matrix=1.00D-06.
 Requested convergence on             energy=1.00D-06.
 No special actions if energy rises.
 SCF Done:  E(RB3LYP) =  -1070.78715514     A.U. after   17 cycles
            NFock= 17  Conv=0.60D-08     -V/T= 2.0096
 DoSCS=F DFT=T ScalE2(SS,OS)=  1.000000  1.000000
 ExpMin= 4.38D-02 ExpMax= 5.48D+03 ExpMxC= 8.25D+02 IAcc=3 IRadAn=         5 AccDes= 0.00D+00
 HarFok:  IExCor=  205 AccDes= 0.00D+00 IRadAn=         5 IDoV=-2 UseB2=F ITyADJ=14
 ICtDFT= 12500011 ScaDFX=  1.000000  1.000000  1.000000  1.000000
 GSVD:  LWork=        -825 too small for GESVD, short by        3500 words or        3500 for optimal perf.
 Range of M.O.s used for correlation:    26   591
 NBasis=   595 NAE=    90 NBE=    90 NFC=    25 NFV=     0
 NROrb=    566 NOA=    65 NOB=    65 NVA=   501 NVB=   501

 **** Warning!!: The largest alpha MO coefficient is  0.14260454D+03

 Orbital symmetries:
       Occupied  (A) (A) (A) (A) (A) (A) (A) (A) (A) (A) (A) (A)
                 (A) (A) (A) (A) (A) (A) (A) (A) (A) (A) (A) (A)
                 (A) (A) (A) (A) (A) (A) (A) (A) (A) (A) (A) (A)
                 (A) (A) (A) (A) (A) (A) (A) (A) (A) (A) (A) (A)
                 (A) (A) (A) (A) (A) (A) (A) (A) (A) (A) (A) (A)
                 (A) (A) (A) (A) (A) (A) (A) (A) (A) (A) (A) (A)
                 (A) (A) (A) (A) (A) (A) (A) (A) (A) (A) (A) (A)
                 (A) (A) (A) (A) (A) (A)
       Virtual   (A) (A) (A) (A) (A) (A) (A) (A) (A) (A) (A) (A)
                 (A) (A) (A) (A) (A) (A) (A) (A) (A) (A) (A) (A)
                 (A) (A) (A) (A) (A) (A) (A) (A) (A) (A) (A) (A)
                 (A) (A) (A) (A) (A) (A) (A) (A) (A) (A) (A) (A)
                 (A) (A) (A) (A) (A) (A) (A) (A) (A) (A) (A) (A)
                 (A) (A) (A) (A) (A) (A) (A) (A) (A) (A) (A) (A)
                 (A) (A) (A) (A) (A) (A) (A) (A) (A) (A) (A) (A)
                 (A) (A) (A) (A) (A) (A) (A) (A) (A) (A) (A) (A)
                 (A) (A) (A) (A) (A) (A) (A) (A) (A) (A) (A) (A)
                 (A) (A) (A) (A) (A) (A) (A) (A) (A) (A) (A) (A)
                 (A) (A) (A) (A) (A) (A) (A) (A) (A) (A) (A) (A)
                 (A) (A) (A) (A) (A) (A) (A) (A) (A) (A) (A) (A)
                 (A) (A) (A) (A) (A) (A) (A) (A) (A) (A) (A) (A)
                 (A) (A) (A) (A) (A) (A) (A) (A) (A) (A) (A) (A)
                 (A) (A) (A) (A) (A) (A) (A) (A) (A) (A) (A) (A)
                 (A) (A) (A) (A) (A) (A) (A) (A) (A) (A) (A) (A)
                 (A) (A) (A) (A) (A) (A) (A) (A) (A) (A) (A) (A)
                 (A) (A) (A) (A) (A) (A) (A) (A) (A) (A) (A) (A)
                 (A) (A) (A) (A) (A) (A) (A) (A) (A) (A) (A) (A)
                 (A) (A) (A) (A) (A) (A) (A) (A) (A) (A) (A) (A)
                 (A) (A) (A) (A) (A) (A) (A) (A) (A) (A) (A) (A)
                 (A) (A) (A) (A) (A) (A) (A) (A) (A) (A) (A) (A)
                 (A) (A) (A) (A) (A) (A) (A) (A) (A) (A) (A) (A)
                 (A) (A) (A) (A) (A) (A) (A) (A) (A) (A) (A) (A)
                 (A) (A) (A) (A) (A) (A) (A) (A) (A) (A) (A) (A)
                 (A) (A) (A) (A) (A) (A) (A) (A) (A) (A) (A) (A)
                 (A) (A) (A) (A) (A) (A) (A) (A) (A) (A) (A) (A)
                 (A) (A) (A) (A) (A) (A) (A) (A) (A) (A) (A) (A)
                 (A) (A) (A) (A) (A) (A) (A) (A) (A) (A) (A) (A)
                 (A) (A) (A) (A) (A) (A) (A) (A) (A) (A) (A) (A)
                 (A) (A) (A) (A) (A) (A) (A) (A) (A) (A) (A) (A)
                 (A) (A) (A) (A) (A) (A) (A) (A) (A) (A) (A) (A)
                 (A) (A) (A) (A) (A) (A) (A) (A) (A) (A) (A) (A)
                 (A) (A) (A) (A) (A) (A) (A) (A) (A) (A) (A) (A)
                 (A) (A) (A) (A) (A) (A) (A) (A) (A) (A) (A) (A)
                 (A) (A) (A) (A) (A) (A) (A) (A) (A) (A) (A) (A)
                 (A) (A) (A) (A) (A) (A) (A) (A) (A) (A) (A) (A)
                 (A) (A) (A) (A) (A) (A) (A) (A) (A) (A) (A) (A)
                 (A) (A) (A) (A) (A) (A) (A) (A) (A) (A) (A) (A)
                 (A) (A) (A) (A) (A) (A) (A) (A) (A) (A) (A) (A)
                 (A) (A) (A) (A) (A) (A) (A) (A) (A) (A) (A) (A)
                 (A) (A) (A) (A) (A) (A) (A) (A) (A)
    24 initial guesses have been made.
 Convergence on wavefunction:    0.001000000000000
 Iteration     1 Dimension    24 NMult     0 NNew     24
 CISAX will form    24 AO SS matrices at one time.
 New state      1 was old state      4
 New state      3 was old state      1
 New state      4 was old state      8
 New state      5 was old state      6
 New state      6 was old state      9
 New state      7 was old state     10
 New state      8 was old state      3
 New state      9 was old state     15
 New state     10 was old state     12
 New state     12 was old state     16
 Vector   5 SDiff=3.03D+00 TDiff=3.80D-01 assumed to be triplet.
 Vector  11 SDiff=3.42D+00 TDiff=2.08D-01 assumed to be triplet.
 Iteration     2 Dimension    36 NMult    24 NNew     12
 New state      2 was old state      4
 New state      3 was old state      2
 New state      4 was old state      3
 New state      5 was old state      8
 Iteration     3 Dimension    48 NMult    36 NNew     12
 Iteration     4 Dimension    60 NMult    48 NNew     12
 Iteration     5 Dimension    70 NMult    60 NNew     10
 Iteration     6 Dimension    78 NMult    70 NNew      8
 Iteration     7 Dimension    80 NMult    78 NNew      2
 Iteration     8 Dimension    82 NMult    80 NNew      2
 Iteration     9 Dimension    84 NMult    82 NNew      2
 Iteration    10 Dimension    86 NMult    84 NNew      2
 ***********************************************************************
 Excited states from <AA,BB:AA,BB> singles matrix:
 ***********************************************************************
 
 Ground to excited state transition densities written to RWF  633
 Ground to excited state transition electric dipole moments (Au):
       state          X           Y           Z        Dip. S.      Osc.
         1         0.0000     -0.0000      0.0000      0.0000      0.0000
         2         0.0000     -0.0000      0.0000      0.0000      0.0000
         3        -0.0000      0.0000     -0.0000      0.0000      0.0000
         4        -0.0295     -0.0555      0.0032      0.0040      0.0003
         5        -0.0662      1.0372     -0.0200      1.0807      0.0966
         6        -1.4733     -0.0767      0.2444      2.2362      0.2177
 Ground to excited state transition velocity dipole moments (Au):
       state          X           Y           Z        Dip. S.      Osc.
         1        -0.0000     -0.0000     -0.0000      0.0000      0.0000
         2         0.0000     -0.0000     -0.0000      0.0000      0.0000
         3         0.0000     -0.0000      0.0000      0.0000      0.0000
         4         0.0019      0.0046      0.0003      0.0000      0.0002
         5         0.0085     -0.1336      0.0025      0.0179      0.0892
         6         0.2080      0.0105     -0.0344      0.0446      0.2034
 Ground to excited state transition magnetic dipole moments (Au):
       state          X           Y           Z
         1        -0.0000     -0.0000     -0.0000
         2        -0.0000      0.0000      0.0000
         3         0.0000      0.0000     -0.0000
         4        -0.0224      0.0253      0.0339
         5         0.1425      0.0679     -0.7653
         6        -0.1008      0.6521     -0.0318
 Ground to excited state transition velocity quadrupole moments (Au):
       state          XX          YY          ZZ          XY          XZ          YZ
         1        -0.0000     -0.0000     -0.0000     -0.0000      0.0000     -0.0000
         2         0.0000     -0.0000      0.0000      0.0000      0.0000      0.0000
         3         0.0000      0.0000      0.0000     -0.0000     -0.0000     -0.0000
         4         0.0084      0.0100     -0.0125     -0.0079      0.0017      0.0022
         5        -0.1420      0.0885      0.0664      0.2587     -0.0677     -0.4196
         6         0.9527     -0.1391     -0.1601      0.0228     -0.1788     -0.0715
 <0|del|b> * <b|rxdel|0> + <0|del|b> * <b|delr+rdel|0>
 Rotatory Strengths (R) in cgs (10**-40 erg-esu-cm/Gauss)
       state          XX          YY          ZZ    R(velocity)    E-M Angle
         1         0.0000      0.0000     -0.0000      0.0000       90.00
         2        -0.0000     -0.0000     -0.0000     -0.0000       90.00
         3        -0.0000     -0.0000      0.0000     -0.0000       90.00
         4         0.3938     -0.0881      0.2642      0.1900       90.00
         5       -51.1081    -12.9051     12.4615    -17.1839       95.36
         6        21.8239    -82.2046     -2.7265    -21.0357       95.36
 1/2[<0|r|b>*<b|rxdel|0> + (<0|rxdel|b>*<b|r|0>)*]
 Rotatory Strengths (R) in cgs (10**-40 erg-esu-cm/Gauss)
       state          XX          YY          ZZ     R(length)
         1         0.0000     -0.0000      0.0000     -0.0000
         2         0.0000      0.0000     -0.0000      0.0000
         3         0.0000     -0.0000     -0.0000     -0.0000
         4        -0.4677      0.9909     -0.0763      0.1490
         5         6.6688    -49.8224    -10.8258    -17.9931
         6      -105.0060     35.3714      5.4933    -21.3805
  1/2[<0|del|b>*<b|r|0> + (<0|r|b>*<b|del|0>)*] (Au)
       state          X           Y           Z        Dip. S.   Osc.(frdel)
         1        -0.0000      0.0000     -0.0000      0.0000      0.0000
         2         0.0000      0.0000     -0.0000     -0.0000     -0.0000
         3        -0.0000     -0.0000     -0.0000      0.0000      0.0000
         4        -0.0001     -0.0003      0.0000      0.0003      0.0002
         5        -0.0006     -0.1386     -0.0000      0.1392      0.0928
         6        -0.3064     -0.0008     -0.0084      0.3156      0.2104

 Excitation energies and oscillator strengths:
 
 Excited State   1:      Triplet-A      2.1516 eV  576.25 nm  f=0.0000  <S**2>=2.000
      89 -> 91         0.69412
      89 <- 91         0.10564
 This state for optimization and/or second-order correction.
 Total Energy, E(TD-HF/TD-DFT) =  -1070.70808641    
 Copying the excited state density for this state as the 1-particle RhoCI density.
 
 Excited State   2:      Triplet-A      2.4296 eV  510.30 nm  f=0.0000  <S**2>=2.000
      90 -> 92         0.67614
      90 -> 96         0.11839
      90 <- 92         0.11728
 
 Excited State   3:      Triplet-A      2.7668 eV  448.11 nm  f=0.0000  <S**2>=2.000
      88 -> 91         0.66075
      90 -> 91         0.18507
 
 Excited State   4:      Singlet-A      2.8164 eV  440.22 nm  f=0.0003  <S**2>=0.000
      90 -> 91         0.70667
 
 Excited State   5:      Singlet-A      3.6483 eV  339.84 nm  f=0.0966  <S**2>=0.000
      89 -> 91         0.70371
 
 Excited State   6:      Singlet-A      3.9745 eV  311.95 nm  f=0.2177  <S**2>=0.000
      88 -> 91         0.68033
 SavETr:  write IOETrn=   770 NScale= 10 NData=  16 NLR=1 NState=    6 LETran=     118.

 **********************************************************************

            Population analysis using the SCF Density.

 **********************************************************************

 Orbital symmetries:
       Occupied  (A) (A) (A) (A) (A) (A) (A) (A) (A) (A) (A) (A)
                 (A) (A) (A) (A) (A) (A) (A) (A) (A) (A) (A) (A)
                 (A) (A) (A) (A) (A) (A) (A) (A) (A) (A) (A) (A)
                 (A) (A) (A) (A) (A) (A) (A) (A) (A) (A) (A) (A)
                 (A) (A) (A) (A) (A) (A) (A) (A) (A) (A) (A) (A)
                 (A) (A) (A) (A) (A) (A) (A) (A) (A) (A) (A) (A)
                 (A) (A) (A) (A) (A) (A) (A) (A) (A) (A) (A) (A)
                 (A) (A) (A) (A) (A) (A)
       Virtual   (A) (A) (A) (A) (A) (A) (A) (A) (A) (A) (A) (A)
                 (A) (A) (A) (A) (A) (A) (A) (A) (A) (A) (A) (A)
                 (A) (A) (A) (A) (A) (A) (A) (A) (A) (A) (A) (A)
                 (A) (A) (A) (A) (A) (A) (A) (A) (A) (A) (A) (A)
                 (A) (A) (A) (A) (A) (A) (A) (A) (A) (A) (A) (A)
                 (A) (A) (A) (A) (A) (A) (A) (A) (A) (A) (A) (A)
                 (A) (A) (A) (A) (A) (A) (A) (A) (A) (A) (A) (A)
                 (A) (A) (A) (A) (A) (A) (A) (A) (A) (A) (A) (A)
                 (A) (A) (A) (A) (A) (A) (A) (A) (A) (A) (A) (A)
                 (A) (A) (A) (A) (A) (A) (A) (A) (A) (A) (A) (A)
                 (A) (A) (A) (A) (A) (A) (A) (A) (A) (A) (A) (A)
                 (A) (A) (A) (A) (A) (A) (A) (A) (A) (A) (A) (A)
                 (A) (A) (A) (A) (A) (A) (A) (A) (A) (A) (A) (A)
                 (A) (A) (A) (A) (A) (A) (A) (A) (A) (A) (A) (A)
                 (A) (A) (A) (A) (A) (A) (A) (A) (A) (A) (A) (A)
                 (A) (A) (A) (A) (A) (A) (A) (A) (A) (A) (A) (A)
                 (A) (A) (A) (A) (A) (A) (A) (A) (A) (A) (A) (A)
                 (A) (A) (A) (A) (A) (A) (A) (A) (A) (A) (A) (A)
                 (A) (A) (A) (A) (A) (A) (A) (A) (A) (A) (A) (A)
                 (A) (A) (A) (A) (A) (A) (A) (A) (A) (A) (A) (A)
                 (A) (A) (A) (A) (A) (A) (A) (A) (A) (A) (A) (A)
                 (A) (A) (A) (A) (A) (A) (A) (A) (A) (A) (A) (A)
                 (A) (A) (A) (A) (A) (A) (A) (A) (A) (A) (A) (A)
                 (A) (A) (A) (A) (A) (A) (A) (A) (A) (A) (A) (A)
                 (A) (A) (A) (A) (A) (A) (A) (A) (A) (A) (A) (A)
                 (A) (A) (A) (A) (A) (A) (A) (A) (A) (A) (A) (A)
                 (A) (A) (A) (A) (A) (A) (A) (A) (A) (A) (A) (A)
                 (A) (A) (A) (A) (A) (A) (A) (A) (A) (A) (A) (A)
                 (A) (A) (A) (A) (A) (A) (A) (A) (A) (A) (A) (A)
                 (A) (A) (A) (A) (A) (A) (A) (A) (A) (A) (A) (A)
                 (A) (A) (A) (A) (A) (A) (A) (A) (A) (A) (A) (A)
                 (A) (A) (A) (A) (A) (A) (A) (A) (A) (A) (A) (A)
                 (A) (A) (A) (A) (A) (A) (A) (A) (A) (A) (A) (A)
                 (A) (A) (A) (A) (A) (A) (A) (A) (A) (A) (A) (A)
                 (A) (A) (A) (A) (A) (A) (A) (A) (A) (A) (A) (A)
                 (A) (A) (A) (A) (A) (A) (A) (A) (A) (A) (A) (A)
                 (A) (A) (A) (A) (A) (A) (A) (A) (A) (A) (A) (A)
                 (A) (A) (A) (A) (A) (A) (A) (A) (A) (A) (A) (A)
                 (A) (A) (A) (A) (A) (A) (A) (A) (A) (A) (A) (A)
                 (A) (A) (A) (A) (A) (A) (A) (A) (A) (A) (A) (A)
                 (A) (A) (A) (A) (A) (A) (A) (A) (A) (A) (A) (A)
                 (A) (A) (A) (A) (A) (A) (A) (A) (A)
 The electronic state is 1-A.
 Alpha  occ. eigenvalues --  -19.17759 -14.40075 -14.40025 -14.33850 -14.33839
 Alpha  occ. eigenvalues --  -10.27610 -10.27446 -10.26263 -10.26239 -10.24180
 Alpha  occ. eigenvalues --  -10.24147 -10.23954 -10.23510 -10.23440 -10.23180
 Alpha  occ. eigenvalues --  -10.23097 -10.23004 -10.21161 -10.20840 -10.20753
 Alpha  occ. eigenvalues --  -10.18908 -10.18781 -10.17276 -10.16754 -10.16648
 Alpha  occ. eigenvalues --   -1.05205  -1.01559  -0.97169  -0.91443  -0.90676
 Alpha  occ. eigenvalues --   -0.88651  -0.85308  -0.80191  -0.79263  -0.77947
 Alpha  occ. eigenvalues --   -0.77707  -0.74537  -0.72502  -0.70974  -0.68567
 Alpha  occ. eigenvalues --   -0.68435  -0.67846  -0.66166  -0.64291  -0.59230
 Alpha  occ. eigenvalues --   -0.57226  -0.56800  -0.56518  -0.54133  -0.53097
 Alpha  occ. eigenvalues --   -0.52432  -0.49982  -0.49731  -0.49014  -0.48421
 Alpha  occ. eigenvalues --   -0.48036  -0.46790  -0.46110  -0.44782  -0.43671
 Alpha  occ. eigenvalues --   -0.43002  -0.42599  -0.42069  -0.42014  -0.41801
 Alpha  occ. eigenvalues --   -0.41404  -0.41311  -0.40579  -0.40044  -0.39606
 Alpha  occ. eigenvalues --   -0.39044  -0.38640  -0.38236  -0.37649  -0.36629
 Alpha  occ. eigenvalues --   -0.36447  -0.36336  -0.35616  -0.35008  -0.34513
 Alpha  occ. eigenvalues --   -0.33825  -0.32803  -0.32564  -0.32199  -0.31318
 Alpha  occ. eigenvalues --   -0.31040  -0.27303  -0.23541  -0.22036  -0.19967
 Alpha virt. eigenvalues --   -0.07528  -0.02891  -0.02366  -0.00359  -0.00102
 Alpha virt. eigenvalues --    0.00083   0.00524   0.00564   0.00933   0.01897
 Alpha virt. eigenvalues --    0.02247   0.02423   0.02637   0.03232   0.03584
 Alpha virt. eigenvalues --    0.04126   0.04280   0.04608   0.04812   0.05066
 Alpha virt. eigenvalues --    0.05502   0.05977   0.06396   0.06849   0.06979
 Alpha virt. eigenvalues --    0.07131   0.07896   0.08103   0.08442   0.08563
 Alpha virt. eigenvalues --    0.09109   0.09382   0.09666   0.09828   0.10218
 Alpha virt. eigenvalues --    0.10302   0.10963   0.11350   0.11423   0.11831
 Alpha virt. eigenvalues --    0.12332   0.12579   0.12753   0.12792   0.13100
 Alpha virt. eigenvalues --    0.13679   0.13801   0.14058   0.14651   0.15101
 Alpha virt. eigenvalues --    0.15311   0.15504   0.15742   0.16178   0.16542
 Alpha virt. eigenvalues --    0.16757   0.17217   0.17303   0.17551   0.17886
 Alpha virt. eigenvalues --    0.17891   0.18155   0.18611   0.18676   0.18879
 Alpha virt. eigenvalues --    0.19016   0.19577   0.19623   0.19779   0.20153
 Alpha virt. eigenvalues --    0.20584   0.20608   0.20752   0.21280   0.21590
 Alpha virt. eigenvalues --    0.21898   0.22125   0.22577   0.22736   0.23069
 Alpha virt. eigenvalues --    0.23283   0.23696   0.23850   0.24094   0.24381
 Alpha virt. eigenvalues --    0.24591   0.24615   0.25060   0.25228   0.25474
 Alpha virt. eigenvalues --    0.25856   0.25968   0.26361   0.26438   0.26633
 Alpha virt. eigenvalues --    0.27063   0.27257   0.27467   0.27728   0.28035
 Alpha virt. eigenvalues --    0.28595   0.28626   0.28812   0.29069   0.29295
 Alpha virt. eigenvalues --    0.29561   0.29736   0.29949   0.30268   0.30460
 Alpha virt. eigenvalues --    0.30496   0.31102   0.31614   0.31857   0.32342
 Alpha virt. eigenvalues --    0.32753   0.32897   0.32977   0.33434   0.33594
 Alpha virt. eigenvalues --    0.33854   0.34460   0.34561   0.35359   0.35805
 Alpha virt. eigenvalues --    0.36039   0.36478   0.36841   0.37570   0.37778
 Alpha virt. eigenvalues --    0.38189   0.38488   0.38868   0.39168   0.40016
 Alpha virt. eigenvalues --    0.40274   0.41045   0.41781   0.42096   0.42359
 Alpha virt. eigenvalues --    0.42871   0.43507   0.44243   0.44988   0.46123
 Alpha virt. eigenvalues --    0.46565   0.47791   0.48151   0.49518   0.51765
 Alpha virt. eigenvalues --    0.52957   0.55259   0.57273   0.63057   0.64777
 Alpha virt. eigenvalues --    0.65219   0.65669   0.66160   0.66495   0.67332
 Alpha virt. eigenvalues --    0.68196   0.69377   0.69500   0.70525   0.71150
 Alpha virt. eigenvalues --    0.72293   0.72948   0.73025   0.73823   0.74618
 Alpha virt. eigenvalues --    0.75507   0.75879   0.76192   0.76608   0.77644
 Alpha virt. eigenvalues --    0.78123   0.78708   0.79522   0.80094   0.81181
 Alpha virt. eigenvalues --    0.81312   0.81574   0.81814   0.82879   0.83117
 Alpha virt. eigenvalues --    0.83608   0.84593   0.84993   0.85928   0.87033
 Alpha virt. eigenvalues --    0.87497   0.87899   0.88568   0.89358   0.89719
 Alpha virt. eigenvalues --    0.90434   0.90539   0.91024   0.91525   0.91907
 Alpha virt. eigenvalues --    0.93929   0.95038   0.95609   0.96313   0.96356
 Alpha virt. eigenvalues --    0.96793   0.96966   0.98164   0.98430   0.99270
 Alpha virt. eigenvalues --    1.00302   1.00591   1.01820   1.02262   1.02659
 Alpha virt. eigenvalues --    1.02785   1.03123   1.03698   1.04147   1.04451
 Alpha virt. eigenvalues --    1.05389   1.06398   1.07125   1.07531   1.08826
 Alpha virt. eigenvalues --    1.09124   1.10553   1.11096   1.11328   1.11745
 Alpha virt. eigenvalues --    1.12511   1.12923   1.13303   1.13690   1.15209
 Alpha virt. eigenvalues --    1.15858   1.16123   1.16611   1.18165   1.19296
 Alpha virt. eigenvalues --    1.19524   1.20333   1.20798   1.21729   1.22164
 Alpha virt. eigenvalues --    1.22665   1.22790   1.24798   1.25049   1.25288
 Alpha virt. eigenvalues --    1.26558   1.27735   1.28381   1.28846   1.30194
 Alpha virt. eigenvalues --    1.31085   1.31505   1.31975   1.33207   1.34457
 Alpha virt. eigenvalues --    1.34933   1.35474   1.35556   1.37471   1.38686
 Alpha virt. eigenvalues --    1.40116   1.41829   1.42727   1.44071   1.45063
 Alpha virt. eigenvalues --    1.46137   1.47176   1.48891   1.49447   1.49811
 Alpha virt. eigenvalues --    1.51134   1.52230   1.53191   1.54369   1.56467
 Alpha virt. eigenvalues --    1.57419   1.59811   1.60341   1.60546   1.61223
 Alpha virt. eigenvalues --    1.61992   1.62809   1.64276   1.65296   1.66526
 Alpha virt. eigenvalues --    1.67328   1.69101   1.70363   1.71699   1.72884
 Alpha virt. eigenvalues --    1.74635   1.74790   1.76328   1.76900   1.77884
 Alpha virt. eigenvalues --    1.78732   1.79677   1.80346   1.82207   1.83255
 Alpha virt. eigenvalues --    1.83516   1.84240   1.84899   1.85800   1.86829
 Alpha virt. eigenvalues --    1.87424   1.88332   1.88972   1.89757   1.91472
 Alpha virt. eigenvalues --    1.91733   1.92332   1.93435   1.93714   1.94644
 Alpha virt. eigenvalues --    1.95183   1.95548   1.96011   1.96278   1.96987
 Alpha virt. eigenvalues --    1.97102   1.97927   1.99541   2.00047   2.00268
 Alpha virt. eigenvalues --    2.00886   2.01021   2.02891   2.03281   2.04453
 Alpha virt. eigenvalues --    2.05015   2.05458   2.05763   2.06487   2.06670
 Alpha virt. eigenvalues --    2.06974   2.07266   2.09041   2.09787   2.09940
 Alpha virt. eigenvalues --    2.10226   2.10614   2.11346   2.11711   2.12793
 Alpha virt. eigenvalues --    2.13173   2.14321   2.14918   2.15797   2.16220
 Alpha virt. eigenvalues --    2.16655   2.17661   2.18647   2.18902   2.20350
 Alpha virt. eigenvalues --    2.20479   2.23335   2.23609   2.24419   2.25295
 Alpha virt. eigenvalues --    2.27012   2.27300   2.28804   2.29504   2.29803
 Alpha virt. eigenvalues --    2.30869   2.34238   2.34826   2.35920   2.37484
 Alpha virt. eigenvalues --    2.38597   2.38919   2.41489   2.42266   2.43341
 Alpha virt. eigenvalues --    2.44609   2.45743   2.46225   2.49199   2.50456
 Alpha virt. eigenvalues --    2.52059   2.52650   2.53056   2.53463   2.53661
 Alpha virt. eigenvalues --    2.55213   2.55974   2.56143   2.56879   2.57500
 Alpha virt. eigenvalues --    2.59582   2.59962   2.62577   2.63319   2.64757
 Alpha virt. eigenvalues --    2.64980   2.65485   2.66025   2.67421   2.68155
 Alpha virt. eigenvalues --    2.68870   2.69630   2.70043   2.70627   2.72931
 Alpha virt. eigenvalues --    2.73829   2.75246   2.75672   2.76106   2.76770
 Alpha virt. eigenvalues --    2.77755   2.78788   2.79704   2.80695   2.80917
 Alpha virt. eigenvalues --    2.81327   2.82425   2.83025   2.84494   2.85355
 Alpha virt. eigenvalues --    2.86346   2.87080   2.87440   2.88442   2.88869
 Alpha virt. eigenvalues --    2.90214   2.91388   2.91964   2.94445   2.95199
 Alpha virt. eigenvalues --    2.96240   2.97345   2.99796   3.01628   3.03973
 Alpha virt. eigenvalues --    3.05513   3.06630   3.11720   3.12321   3.13404
 Alpha virt. eigenvalues --    3.15263   3.16164   3.17370   3.24229   3.25068
 Alpha virt. eigenvalues --    3.26804   3.29141   3.29476   3.29720   3.31728
 Alpha virt. eigenvalues --    3.33196   3.35320   3.40591   3.42788   3.43393
 Alpha virt. eigenvalues --    3.44794   3.45972   3.46647   3.47047   3.48218
 Alpha virt. eigenvalues --    3.48665   3.48965   3.49842   3.50649   3.51418
 Alpha virt. eigenvalues --    3.51810   3.52856   3.53616   3.55807   3.55970
 Alpha virt. eigenvalues --    3.65861   4.29226   4.35160   4.40536   4.41415
 Alpha virt. eigenvalues --    4.41832   4.42850   4.46497   4.47600   4.49540
 Alpha virt. eigenvalues --    4.50528   4.52462   4.53233   4.56403   4.58645
 Alpha virt. eigenvalues --    4.61494   4.61691   4.63552   4.66561   4.68374
 Alpha virt. eigenvalues --    4.69121   4.73835   4.85295   4.90315   4.92291
 Alpha virt. eigenvalues --    4.96240
          Condensed to atoms (all electrons):
               1          2          3          4          5          6
     1  C    5.216503   0.186111  -0.056404  -0.024110  -0.022813  -0.009946
     2  N    0.186111   7.383335   0.224750  -0.086607  -0.089200  -0.020054
     3  C   -0.056404   0.224750   5.580111   0.045061  -0.046472  -0.000028
     4  C   -0.024110  -0.086607   0.045061   5.669345   0.198234  -0.089609
     5  N   -0.022813  -0.089200  -0.046472   0.198234   7.386720   0.160619
     6  C   -0.009946  -0.020054  -0.000028  -0.089609   0.160619   5.206150
     7  C    0.066355   0.057514   0.060499  -0.181148  -0.099545  -0.073131
     8  C   -0.010266   0.161826  -0.017051  -0.164579  -0.430070   0.049618
     9  C   -0.009319   0.112695  -0.015796  -0.016250  -0.216211  -0.077207
    10  N    0.000000  -0.000431  -0.001335  -0.001126  -0.013259  -0.021804
    11  C   -0.007551   0.228667  -0.066520  -0.158136   0.124311  -0.043502
    12  C    0.006577   0.058548   0.048605  -0.028216  -0.029188   0.012138
    13  C   -0.006110   0.014381  -0.006449  -0.024653  -0.040912   0.009675
    14  C   -0.000355   0.005716  -0.002980   0.002548  -0.000570  -0.001399
    15  C    0.000656   0.000514  -0.000979  -0.003399  -0.002206  -0.002640
    16  C    0.002312   0.006385   0.001847  -0.001662   0.002317  -0.001767
    17  O    0.000007   0.000003  -0.000003   0.000004   0.000000  -0.000001
    18  C   -0.005095   0.002904  -0.008425   0.013801   0.014767   0.001991
    19  C   -0.008005  -0.022204  -0.022918   0.022902  -0.010568  -0.037583
    20  C    0.027953   0.046457   0.005019  -0.012132   0.012783   0.006183
    21  C    0.001500  -0.000599   0.005902   0.004930   0.059203  -0.001481
    22  C    0.021449  -0.458289  -0.022022  -0.078986   0.247702  -0.016093
    23  C   -0.303436  -0.235714  -0.086612   0.125470   0.191020  -0.029129
    24  N   -0.000150  -0.012105   0.001748  -0.004296  -0.002155   0.000659
    25  C   -0.092336  -0.264627  -0.149614   0.193945  -0.013719  -0.033184
    26  H    0.413032  -0.034278   0.011806  -0.002376  -0.001253  -0.000091
    27  H    0.390102  -0.054877  -0.017338   0.002857   0.000798   0.000096
    28  H    0.451837  -0.054978   0.005970  -0.004777  -0.000905  -0.000170
    29  H   -0.017307  -0.055669   0.368477  -0.011709   0.002296   0.000145
    30  H    0.016130  -0.061092   0.499540  -0.094948   0.012049  -0.000366
    31  H   -0.000790   0.015527  -0.068919   0.465982  -0.065487   0.013367
    32  H    0.000046   0.001281  -0.008057   0.368698  -0.053973  -0.016852
    33  H    0.000128   0.000633   0.003027  -0.009973  -0.052494   0.393673
    34  H   -0.000301  -0.001312  -0.002140  -0.003100  -0.059094   0.446878
    35  H   -0.000062  -0.001100  -0.003815   0.014074  -0.034405   0.411152
    36  H   -0.002478  -0.000300  -0.000516   0.000169  -0.006582  -0.000168
    37  H    0.000624  -0.000083   0.000109  -0.000075  -0.000012   0.000045
    38  H   -0.000004   0.000002   0.000003  -0.000008  -0.000002  -0.000005
    39  H    0.000030  -0.000006   0.000033   0.000034   0.000039   0.000060
    40  H    0.000017  -0.000021  -0.000101   0.000053  -0.000186   0.000069
    41  H   -0.000001  -0.000000   0.000000   0.000000  -0.000001   0.000002
    42  H   -0.000000   0.000000   0.000000  -0.000000  -0.000000   0.000000
    43  H   -0.000003   0.000001  -0.000004  -0.000002  -0.000003  -0.000003
    44  H    0.000537  -0.002105   0.000157  -0.000023  -0.000060   0.000029
    45  H    0.000049   0.000241   0.000441  -0.000237  -0.000108   0.000124
    46  H    0.000857   0.006378  -0.005268   0.003903   0.003465  -0.000476
    47  H   -0.000014   0.000007   0.000040  -0.000067  -0.000224   0.000046
    48  H    0.000034   0.000010  -0.000036   0.000020  -0.000179  -0.000561
    49  H   -0.000100  -0.000084  -0.000565   0.000356   0.005457   0.003054
               7          8          9         10         11         12
     1  C    0.066355  -0.010266  -0.009319   0.000000  -0.007551   0.006577
     2  N    0.057514   0.161826   0.112695  -0.000431   0.228667   0.058548
     3  C    0.060499  -0.017051  -0.015796  -0.001335  -0.066520   0.048605
     4  C   -0.181148  -0.164579  -0.016250  -0.001126  -0.158136  -0.028216
     5  N   -0.099545  -0.430070  -0.216211  -0.013259   0.124311  -0.029188
     6  C   -0.073131   0.049618  -0.077207  -0.021804  -0.043502   0.012138
     7  C   12.128576   0.721977  -0.812490   0.110380  -5.041405   0.775983
     8  C    0.721977  16.912631  -5.843540   0.419999   1.296301  -1.644014
     9  C   -0.812490  -5.843540  16.129855  -0.056512   0.145062   0.315994
    10  N    0.110380   0.419999  -0.056512   7.191732  -0.214420  -0.033627
    11  C   -5.041405   1.296301   0.145062  -0.214420  23.239221  -1.735440
    12  C    0.775983  -1.644014   0.315994  -0.033627  -1.735440  24.170408
    13  C   -0.287603   1.935106   0.053989   0.082345   1.340389  -2.882078
    14  C   -0.010820   0.157211  -0.244450  -0.029633  -0.199997   0.104006
    15  C   -0.108399   0.769598  -0.460781   0.008299  -0.785533  -7.142084
    16  C   -0.067077   0.057070   0.127337  -0.004870  -0.945298  -1.550590
    17  O   -0.000034   0.001113  -0.001268   0.000032  -0.003713  -0.015384
    18  C    0.042622  -0.005326  -0.088265   0.002766   0.477983  -1.246628
    19  C    0.329033  -2.081165   1.058992  -0.038822  -3.656539  -5.144813
    20  C   -0.316769   0.482089  -0.115889   0.004828   1.193607  -0.626560
    21  C   -0.058659   0.037284  -0.480560  -0.011522   0.090100   1.773872
    22  C   -1.609033  -2.824860  -0.991431   0.005448  -0.275434   0.207561
    23  C   -2.756924  -2.034822  -0.483473  -0.008743  -1.483990  -0.318093
    24  N    0.117129   0.063624  -0.000777   0.000118  -0.103734   0.080107
    25  C    2.952248  -2.408258  -1.492659   0.062230  -8.248974   0.815097
    26  H    0.013965   0.007969   0.000494   0.000001  -0.000938   0.000346
    27  H   -0.009839  -0.000843  -0.000032  -0.000000   0.002479  -0.000214
    28  H    0.001224  -0.007659  -0.001109   0.000001  -0.005117   0.001404
    29  H    0.009744   0.004832   0.000527  -0.000001   0.005641   0.000423
    30  H    0.007285  -0.013689  -0.001326  -0.000006  -0.023524  -0.000001
    31  H    0.043635   0.012461   0.008872   0.000061  -0.024968   0.001716
    32  H   -0.003504   0.001532  -0.001449  -0.000058   0.005463  -0.000402
    33  H    0.005285   0.003930   0.000697  -0.000071   0.001576  -0.000008
    34  H   -0.020946   0.023113  -0.009059   0.002743  -0.009073  -0.002253
    35  H   -0.040948   0.008394  -0.011691  -0.002105   0.008374   0.001599
    36  H    0.084231  -0.049661   0.107098  -0.003076   0.179732  -0.318481
    37  H    0.009567  -0.022995   0.034354  -0.000732  -0.197393   0.254936
    38  H    0.001217   0.034327  -0.004969   0.000456  -0.082647   0.053519
    39  H    0.007558  -0.062625   0.032943  -0.001332  -0.067266   0.140188
    40  H   -0.010541  -0.013933  -0.053675   0.008801   0.188858  -0.144228
    41  H   -0.000230  -0.016010   0.004787  -0.000253   0.018371   0.129040
    42  H   -0.000003  -0.000349   0.000001   0.000002   0.002367  -0.029614
    43  H   -0.000732  -0.000420   0.001078  -0.000008   0.006676   0.019543
    44  H    0.010975  -0.011920  -0.004530  -0.000003  -0.019772  -0.034968
    45  H    0.005238  -0.001603   0.000478   0.000009   0.003293   0.042606
    46  H   -0.061311   0.010568   0.009142  -0.000149   0.096414  -0.059044
    47  H   -0.006108  -0.041203   0.016016  -0.000039   0.012142   0.008215
    48  H    0.008439   0.053626  -0.035294   0.001732  -0.045719   0.053251
    49  H    0.013636   0.148112  -0.086465   0.001719  -0.030457  -0.054520
              13         14         15         16         17         18
     1  C   -0.006110  -0.000355   0.000656   0.002312   0.000007  -0.005095
     2  N    0.014381   0.005716   0.000514   0.006385   0.000003   0.002904
     3  C   -0.006449  -0.002980  -0.000979   0.001847  -0.000003  -0.008425
     4  C   -0.024653   0.002548  -0.003399  -0.001662   0.000004   0.013801
     5  N   -0.040912  -0.000570  -0.002206   0.002317   0.000000   0.014767
     6  C    0.009675  -0.001399  -0.002640  -0.001767  -0.000001   0.001991
     7  C   -0.287603  -0.010820  -0.108399  -0.067077  -0.000034   0.042622
     8  C    1.935106   0.157211   0.769598   0.057070   0.001113  -0.005326
     9  C    0.053989  -0.244450  -0.460781   0.127337  -0.001268  -0.088265
    10  N    0.082345  -0.029633   0.008299  -0.004870   0.000032   0.002766
    11  C    1.340389  -0.199997  -0.785533  -0.945298  -0.003713   0.477983
    12  C   -2.882078   0.104006  -7.142084  -1.550590  -0.015384  -1.246628
    13  C   15.206833  -1.536401  -0.811971  -3.119198   0.095282   2.077662
    14  C   -1.536401   7.927428  -0.404539  -0.367142   0.011457   0.601855
    15  C   -0.811971  -0.404539  13.252711   2.749251   0.004676  -2.519042
    16  C   -3.119198  -0.367142   2.749251  10.647029   0.076309  -3.733385
    17  O    0.095282   0.011457   0.004676   0.076309   8.359923  -0.202141
    18  C    2.077662   0.601855  -2.519042  -3.733385  -0.202141  13.905469
    19  C   -2.560770  -0.727470   2.556946   2.544019  -0.012691  -3.795648
    20  C    0.766678  -0.083885   0.098677  -0.378517  -0.007578   0.404131
    21  C   -1.027787   0.166028  -0.538040   0.286379   0.023642  -0.898128
    22  C   -1.405882  -0.250215  -0.445705  -0.225395  -0.000083   0.110615
    23  C   -0.637650   0.064393   0.066685  -0.111429  -0.000341   0.472176
    24  N    0.009587   0.000500  -0.006226  -0.002453  -0.000064  -0.011114
    25  C   -1.105050  -0.079377  -0.262751  -0.055231  -0.000548   0.065978
    26  H    0.000296  -0.000012  -0.000036   0.000019   0.000000   0.000313
    27  H    0.000086  -0.000003   0.000003  -0.000003  -0.000000   0.000008
    28  H   -0.000446   0.000036  -0.000002   0.000007  -0.000000  -0.000111
    29  H    0.000078   0.000004   0.000001  -0.000001   0.000000   0.000003
    30  H   -0.000433  -0.000009  -0.000009   0.000002  -0.000000  -0.000020
    31  H    0.000290  -0.000002  -0.000003  -0.000016   0.000000   0.000157
    32  H   -0.000051  -0.000005   0.000000   0.000000  -0.000000  -0.000012
    33  H   -0.000071   0.000064   0.000000  -0.000000   0.000000  -0.000011
    34  H    0.001968  -0.000019   0.000148  -0.000138   0.000000   0.000145
    35  H   -0.002192  -0.000474  -0.000227   0.000044  -0.000000   0.000061
    36  H    0.171150   0.001742   0.072082  -0.001037   0.000006   0.001369
    37  H   -0.033999  -0.032296   0.017826   0.033029  -0.000435  -0.010795
    38  H   -0.194350   0.554883  -0.008130   0.008722  -0.000029  -0.004943
    39  H   -0.151986   0.431746  -0.080926  -0.010457   0.000073   0.003445
    40  H   -0.109764   0.518623   0.009475  -0.016578   0.000015   0.018418
    41  H    0.029720  -0.053307   0.240426  -0.070352  -0.011667  -0.007078
    42  H    0.011674   0.005824  -0.100663  -0.041246   0.199390   0.156188
    43  H   -0.001112  -0.000337   0.043911   0.093402  -0.007025   0.241246
    44  H   -0.018994  -0.001035  -0.002419   0.007107  -0.000145   0.011784
    45  H   -0.017349  -0.000719  -0.005477   0.020689  -0.000018  -0.040501
    46  H    0.023423   0.002127   0.003061   0.003589   0.000026   0.016483
    47  H   -0.012646  -0.000941  -0.004302   0.003388  -0.000079  -0.056692
    48  H   -0.010997   0.007186  -0.014574  -0.013023   0.000347  -0.033596
    49  H    0.038407  -0.000609   0.020581   0.006739   0.000011   0.006727
              19         20         21         22         23         24
     1  C   -0.008005   0.027953   0.001500   0.021449  -0.303436  -0.000150
     2  N   -0.022204   0.046457  -0.000599  -0.458289  -0.235714  -0.012105
     3  C   -0.022918   0.005019   0.005902  -0.022022  -0.086612   0.001748
     4  C    0.022902  -0.012132   0.004930  -0.078986   0.125470  -0.004296
     5  N   -0.010568   0.012783   0.059203   0.247702   0.191020  -0.002155
     6  C   -0.037583   0.006183  -0.001481  -0.016093  -0.029129   0.000659
     7  C    0.329033  -0.316769  -0.058659  -1.609033  -2.756924   0.117129
     8  C   -2.081165   0.482089   0.037284  -2.824860  -2.034822   0.063624
     9  C    1.058992  -0.115889  -0.480560  -0.991431  -0.483473  -0.000777
    10  N   -0.038822   0.004828  -0.011522   0.005448  -0.008743   0.000118
    11  C   -3.656539   1.193607   0.090100  -0.275434  -1.483990  -0.103734
    12  C   -5.144813  -0.626560   1.773872   0.207561  -0.318093   0.080107
    13  C   -2.560770   0.766678  -1.027787  -1.405882  -0.637650   0.009587
    14  C   -0.727470  -0.083885   0.166028  -0.250215   0.064393   0.000500
    15  C    2.556946   0.098677  -0.538040  -0.445705   0.066685  -0.006226
    16  C    2.544019  -0.378517   0.286379  -0.225395  -0.111429  -0.002453
    17  O   -0.012691  -0.007578   0.023642  -0.000083  -0.000341  -0.000064
    18  C   -3.795648   0.404131  -0.898128   0.110615   0.472176  -0.011114
    19  C   19.745286  -2.663890  -1.159801   1.520611  -0.266475   0.014840
    20  C   -2.663890   8.483498  -1.255917  -0.174876  -0.209823  -0.011875
    21  C   -1.159801  -1.255917   7.733532   0.000765   0.182749  -0.001722
    22  C    1.520611  -0.174876   0.000765  16.448792  -4.336918   0.618171
    23  C   -0.266475  -0.209823   0.182749  -4.336918  18.931609  -0.558829
    24  N    0.014840  -0.011875  -0.001722   0.618171  -0.558829   7.321292
    25  C    1.105623  -0.567920   0.027193   0.301401  -0.250086   0.021788
    26  H   -0.003245   0.002691  -0.000223   0.027108  -0.055582   0.001625
    27  H    0.000160  -0.000601  -0.000040   0.010573   0.015762  -0.000439
    28  H    0.000261  -0.000013   0.000101   0.019300  -0.024561   0.000851
    29  H   -0.000053  -0.000143  -0.000075   0.015487  -0.002671  -0.000008
    30  H   -0.000034   0.000142   0.000124  -0.027608   0.002168   0.000039
    31  H   -0.000722   0.000474  -0.001647  -0.042142  -0.006037   0.000019
    32  H    0.000115  -0.000035   0.000105   0.009205   0.001119  -0.000002
    33  H   -0.000162   0.000026   0.000183  -0.000511  -0.000060  -0.000000
    34  H    0.001086  -0.000067  -0.003878  -0.006511  -0.001529   0.000002
    35  H    0.001130  -0.000094   0.000568   0.012462   0.001645  -0.000001
    36  H    0.032386  -0.010088  -0.020285  -0.022640  -0.024486  -0.001214
    37  H    0.230909  -0.065895  -0.017505   0.155208  -0.168508   0.009992
    38  H   -0.000601   0.000304  -0.000778  -0.008366   0.001343  -0.000009
    39  H    0.033948  -0.002169  -0.003531   0.062004  -0.015677  -0.000084
    40  H   -0.054498   0.003612   0.007339  -0.001112   0.004698  -0.000007
    41  H    0.006570  -0.000243   0.002716   0.005414   0.000763   0.000001
    42  H    0.007112   0.004388  -0.004663  -0.000231  -0.000019   0.000001
    43  H   -0.093061  -0.005243   0.007356  -0.002547   0.001743  -0.000054
    44  H   -0.067238   0.435899   0.005441   0.066891  -0.068846   0.005576
    45  H   -0.169404   0.520815  -0.011151  -0.003915  -0.007335   0.000085
    46  H   -0.057280   0.377660   0.002801  -0.002170   0.064455  -0.001939
    47  H   -0.003111  -0.066029   0.483517   0.012257   0.001884  -0.000017
    48  H   -0.079800   0.021868   0.454528  -0.006944  -0.002267   0.000008
    49  H   -0.168131   0.038780   0.448527  -0.040833  -0.002157  -0.000009
              25         26         27         28         29         30
     1  C   -0.092336   0.413032   0.390102   0.451837  -0.017307   0.016130
     2  N   -0.264627  -0.034278  -0.054877  -0.054978  -0.055669  -0.061092
     3  C   -0.149614   0.011806  -0.017338   0.005970   0.368477   0.499540
     4  C    0.193945  -0.002376   0.002857  -0.004777  -0.011709  -0.094948
     5  N   -0.013719  -0.001253   0.000798  -0.000905   0.002296   0.012049
     6  C   -0.033184  -0.000091   0.000096  -0.000170   0.000145  -0.000366
     7  C    2.952248   0.013965  -0.009839   0.001224   0.009744   0.007285
     8  C   -2.408258   0.007969  -0.000843  -0.007659   0.004832  -0.013689
     9  C   -1.492659   0.000494  -0.000032  -0.001109   0.000527  -0.001326
    10  N    0.062230   0.000001  -0.000000   0.000001  -0.000001  -0.000006
    11  C   -8.248974  -0.000938   0.002479  -0.005117   0.005641  -0.023524
    12  C    0.815097   0.000346  -0.000214   0.001404   0.000423  -0.000001
    13  C   -1.105050   0.000296   0.000086  -0.000446   0.000078  -0.000433
    14  C   -0.079377  -0.000012  -0.000003   0.000036   0.000004  -0.000009
    15  C   -0.262751  -0.000036   0.000003  -0.000002   0.000001  -0.000009
    16  C   -0.055231   0.000019  -0.000003   0.000007  -0.000001   0.000002
    17  O   -0.000548   0.000000  -0.000000  -0.000000   0.000000  -0.000000
    18  C    0.065978   0.000313   0.000008  -0.000111   0.000003  -0.000020
    19  C    1.105623  -0.003245   0.000160   0.000261  -0.000053  -0.000034
    20  C   -0.567920   0.002691  -0.000601  -0.000013  -0.000143   0.000142
    21  C    0.027193  -0.000223  -0.000040   0.000101  -0.000075   0.000124
    22  C    0.301401   0.027108   0.010573   0.019300   0.015487  -0.027608
    23  C   -0.250086  -0.055582   0.015762  -0.024561  -0.002671   0.002168
    24  N    0.021788   0.001625  -0.000439   0.000851  -0.000008   0.000039
    25  C   15.602745  -0.016405   0.011886  -0.028962   0.003006  -0.009609
    26  H   -0.016405   0.507637  -0.019293  -0.033114   0.000486  -0.000267
    27  H    0.011886  -0.019293   0.559010  -0.035268   0.005871  -0.001116
    28  H   -0.028962  -0.033114  -0.035268   0.547195  -0.001207   0.003495
    29  H    0.003006   0.000486   0.005871  -0.001207   0.574665  -0.041937
    30  H   -0.009609  -0.000267  -0.001116   0.003495  -0.041937   0.573074
    31  H   -0.047334   0.000005  -0.000000   0.000000  -0.003556   0.004200
    32  H    0.020051   0.000001  -0.000021   0.000008  -0.002504  -0.003331
    33  H    0.003394  -0.000000   0.000000  -0.000000  -0.000020  -0.000000
    34  H   -0.006155   0.000000  -0.000000   0.000000   0.000008  -0.000002
    35  H    0.007830  -0.000000  -0.000000   0.000000   0.000001   0.000002
    36  H    0.054979   0.000012   0.000000  -0.000015   0.000000  -0.000006
    37  H    0.050157  -0.000001   0.000000   0.000000  -0.000000   0.000000
    38  H   -0.001024   0.000000   0.000000  -0.000000   0.000000  -0.000000
    39  H    0.018332  -0.000000   0.000000   0.000000  -0.000000   0.000000
    40  H   -0.004127  -0.000000  -0.000000   0.000000   0.000000   0.000000
    41  H    0.000098   0.000000   0.000000  -0.000000   0.000000  -0.000000
    42  H   -0.000036   0.000000  -0.000000  -0.000000   0.000000  -0.000000
    43  H   -0.001453   0.000000   0.000000  -0.000000   0.000000  -0.000000
    44  H    0.040139  -0.000025  -0.000000   0.000001  -0.000000   0.000000
    45  H    0.007873   0.000003   0.000000  -0.000000   0.000000  -0.000000
    46  H   -0.093113   0.000003  -0.000001   0.000000  -0.000001  -0.000000
    47  H   -0.000910   0.000000   0.000000  -0.000000   0.000000  -0.000000
    48  H    0.004890   0.000000  -0.000000  -0.000000   0.000000  -0.000000
    49  H   -0.007877  -0.000000  -0.000000   0.000000  -0.000000   0.000000
              31         32         33         34         35         36
     1  C   -0.000790   0.000046   0.000128  -0.000301  -0.000062  -0.002478
     2  N    0.015527   0.001281   0.000633  -0.001312  -0.001100  -0.000300
     3  C   -0.068919  -0.008057   0.003027  -0.002140  -0.003815  -0.000516
     4  C    0.465982   0.368698  -0.009973  -0.003100   0.014074   0.000169
     5  N   -0.065487  -0.053973  -0.052494  -0.059094  -0.034405  -0.006582
     6  C    0.013367  -0.016852   0.393673   0.446878   0.411152  -0.000168
     7  C    0.043635  -0.003504   0.005285  -0.020946  -0.040948   0.084231
     8  C    0.012461   0.001532   0.003930   0.023113   0.008394  -0.049661
     9  C    0.008872  -0.001449   0.000697  -0.009059  -0.011691   0.107098
    10  N    0.000061  -0.000058  -0.000071   0.002743  -0.002105  -0.003076
    11  C   -0.024968   0.005463   0.001576  -0.009073   0.008374   0.179732
    12  C    0.001716  -0.000402  -0.000008  -0.002253   0.001599  -0.318481
    13  C    0.000290  -0.000051  -0.000071   0.001968  -0.002192   0.171150
    14  C   -0.000002  -0.000005   0.000064  -0.000019  -0.000474   0.001742
    15  C   -0.000003   0.000000   0.000000   0.000148  -0.000227   0.072082
    16  C   -0.000016   0.000000  -0.000000  -0.000138   0.000044  -0.001037
    17  O    0.000000  -0.000000   0.000000   0.000000  -0.000000   0.000006
    18  C    0.000157  -0.000012  -0.000011   0.000145   0.000061   0.001369
    19  C   -0.000722   0.000115  -0.000162   0.001086   0.001130   0.032386
    20  C    0.000474  -0.000035   0.000026  -0.000067  -0.000094  -0.010088
    21  C   -0.001647   0.000105   0.000183  -0.003878   0.000568  -0.020285
    22  C   -0.042142   0.009205  -0.000511  -0.006511   0.012462  -0.022640
    23  C   -0.006037   0.001119  -0.000060  -0.001529   0.001645  -0.024486
    24  N    0.000019  -0.000002  -0.000000   0.000002  -0.000001  -0.001214
    25  C   -0.047334   0.020051   0.003394  -0.006155   0.007830   0.054979
    26  H    0.000005   0.000001  -0.000000   0.000000  -0.000000   0.000012
    27  H   -0.000000  -0.000021   0.000000  -0.000000  -0.000000   0.000000
    28  H    0.000000   0.000008  -0.000000   0.000000   0.000000  -0.000015
    29  H   -0.003556  -0.002504  -0.000020   0.000008   0.000001   0.000000
    30  H    0.004200  -0.003331  -0.000000  -0.000002   0.000002  -0.000006
    31  H    0.573233  -0.041756  -0.001121   0.003529  -0.000274   0.000002
    32  H   -0.041756   0.575466   0.005970  -0.001155   0.000507  -0.000000
    33  H   -0.001121   0.005970   0.558228  -0.034726  -0.018452  -0.000000
    34  H    0.003529  -0.001155  -0.034726   0.549845  -0.033384   0.000004
    35  H   -0.000274   0.000507  -0.018452  -0.033384   0.500555  -0.000021
    36  H    0.000002  -0.000000  -0.000000   0.000004  -0.000021   0.593497
    37  H    0.000000   0.000000  -0.000000   0.000000  -0.000000  -0.002236
    38  H    0.000000  -0.000000  -0.000000   0.000000  -0.000000   0.000321
    39  H    0.000000   0.000000  -0.000000  -0.000000   0.000000   0.001611
    40  H    0.000000  -0.000000  -0.000000   0.000000   0.000000  -0.002834
    41  H    0.000000  -0.000000  -0.000000   0.000000  -0.000000  -0.000016
    42  H    0.000000  -0.000000  -0.000000   0.000000  -0.000000   0.000000
    43  H    0.000000   0.000000  -0.000000   0.000000  -0.000000   0.000001
    44  H    0.000000   0.000000  -0.000000   0.000000  -0.000000  -0.000026
    45  H    0.000001  -0.000000  -0.000000   0.000000  -0.000000   0.000004
    46  H   -0.000018  -0.000000   0.000000  -0.000000  -0.000000  -0.000049
    47  H    0.000000  -0.000000  -0.000000   0.000003  -0.000000   0.000003
    48  H   -0.000000   0.000000  -0.000000   0.000001   0.000000   0.000014
    49  H   -0.000003   0.000000   0.000000   0.000257   0.000005  -0.000026
              37         38         39         40         41         42
     1  C    0.000624  -0.000004   0.000030   0.000017  -0.000001  -0.000000
     2  N   -0.000083   0.000002  -0.000006  -0.000021  -0.000000   0.000000
     3  C    0.000109   0.000003   0.000033  -0.000101   0.000000   0.000000
     4  C   -0.000075  -0.000008   0.000034   0.000053   0.000000  -0.000000
     5  N   -0.000012  -0.000002   0.000039  -0.000186  -0.000001  -0.000000
     6  C    0.000045  -0.000005   0.000060   0.000069   0.000002   0.000000
     7  C    0.009567   0.001217   0.007558  -0.010541  -0.000230  -0.000003
     8  C   -0.022995   0.034327  -0.062625  -0.013933  -0.016010  -0.000349
     9  C    0.034354  -0.004969   0.032943  -0.053675   0.004787   0.000001
    10  N   -0.000732   0.000456  -0.001332   0.008801  -0.000253   0.000002
    11  C   -0.197393  -0.082647  -0.067266   0.188858   0.018371   0.002367
    12  C    0.254936   0.053519   0.140188  -0.144228   0.129040  -0.029614
    13  C   -0.033999  -0.194350  -0.151986  -0.109764   0.029720   0.011674
    14  C   -0.032296   0.554883   0.431746   0.518623  -0.053307   0.005824
    15  C    0.017826  -0.008130  -0.080926   0.009475   0.240426  -0.100663
    16  C    0.033029   0.008722  -0.010457  -0.016578  -0.070352  -0.041246
    17  O   -0.000435  -0.000029   0.000073   0.000015  -0.011667   0.199390
    18  C   -0.010795  -0.004943   0.003445   0.018418  -0.007078   0.156188
    19  C    0.230909  -0.000601   0.033948  -0.054498   0.006570   0.007112
    20  C   -0.065895   0.000304  -0.002169   0.003612  -0.000243   0.004388
    21  C   -0.017505  -0.000778  -0.003531   0.007339   0.002716  -0.004663
    22  C    0.155208  -0.008366   0.062004  -0.001112   0.005414  -0.000231
    23  C   -0.168508   0.001343  -0.015677   0.004698   0.000763  -0.000019
    24  N    0.009992  -0.000009  -0.000084  -0.000007   0.000001   0.000001
    25  C    0.050157  -0.001024   0.018332  -0.004127   0.000098  -0.000036
    26  H   -0.000001   0.000000  -0.000000  -0.000000   0.000000   0.000000
    27  H    0.000000   0.000000   0.000000  -0.000000   0.000000  -0.000000
    28  H    0.000000  -0.000000   0.000000   0.000000  -0.000000  -0.000000
    29  H   -0.000000   0.000000  -0.000000   0.000000   0.000000   0.000000
    30  H    0.000000  -0.000000   0.000000   0.000000  -0.000000  -0.000000
    31  H    0.000000   0.000000   0.000000   0.000000   0.000000   0.000000
    32  H    0.000000  -0.000000   0.000000  -0.000000  -0.000000  -0.000000
    33  H   -0.000000  -0.000000  -0.000000  -0.000000  -0.000000  -0.000000
    34  H    0.000000   0.000000  -0.000000   0.000000   0.000000   0.000000
    35  H   -0.000000  -0.000000   0.000000   0.000000  -0.000000  -0.000000
    36  H   -0.002236   0.000321   0.001611  -0.002834  -0.000016   0.000000
    37  H    0.583096  -0.000129   0.000873  -0.000240  -0.000123  -0.000022
    38  H   -0.000129   0.551141  -0.025077  -0.023749   0.004051   0.000003
    39  H    0.000873  -0.025077   0.568251  -0.036247   0.000202  -0.000002
    40  H   -0.000240  -0.023749  -0.036247   0.528041   0.000143   0.000001
    41  H   -0.000123   0.004051   0.000202   0.000143   0.602531   0.005882
    42  H   -0.000022   0.000003  -0.000002   0.000001   0.005882   0.438904
    43  H    0.000170   0.000000  -0.000000  -0.000000  -0.000156  -0.000006
    44  H    0.004345   0.000000   0.000000   0.000000   0.000001   0.000000
    45  H    0.000055  -0.000000  -0.000000   0.000000  -0.000000   0.000000
    46  H    0.000208   0.000000   0.000000  -0.000001  -0.000000  -0.000000
    47  H   -0.000120  -0.000000   0.000000  -0.000001   0.000000  -0.000001
    48  H   -0.000002   0.000002   0.000005  -0.000013  -0.000054  -0.000003
    49  H   -0.000090   0.000000  -0.000002   0.000027  -0.000001  -0.000000
              43         44         45         46         47         48
     1  C   -0.000003   0.000537   0.000049   0.000857  -0.000014   0.000034
     2  N    0.000001  -0.002105   0.000241   0.006378   0.000007   0.000010
     3  C   -0.000004   0.000157   0.000441  -0.005268   0.000040  -0.000036
     4  C   -0.000002  -0.000023  -0.000237   0.003903  -0.000067   0.000020
     5  N   -0.000003  -0.000060  -0.000108   0.003465  -0.000224  -0.000179
     6  C   -0.000003   0.000029   0.000124  -0.000476   0.000046  -0.000561
     7  C   -0.000732   0.010975   0.005238  -0.061311  -0.006108   0.008439
     8  C   -0.000420  -0.011920  -0.001603   0.010568  -0.041203   0.053626
     9  C    0.001078  -0.004530   0.000478   0.009142   0.016016  -0.035294
    10  N   -0.000008  -0.000003   0.000009  -0.000149  -0.000039   0.001732
    11  C    0.006676  -0.019772   0.003293   0.096414   0.012142  -0.045719
    12  C    0.019543  -0.034968   0.042606  -0.059044   0.008215   0.053251
    13  C   -0.001112  -0.018994  -0.017349   0.023423  -0.012646  -0.010997
    14  C   -0.000337  -0.001035  -0.000719   0.002127  -0.000941   0.007186
    15  C    0.043911  -0.002419  -0.005477   0.003061  -0.004302  -0.014574
    16  C    0.093402   0.007107   0.020689   0.003589   0.003388  -0.013023
    17  O   -0.007025  -0.000145  -0.000018   0.000026  -0.000079   0.000347
    18  C    0.241246   0.011784  -0.040501   0.016483  -0.056692  -0.033596
    19  C   -0.093061  -0.067238  -0.169404  -0.057280  -0.003111  -0.079800
    20  C   -0.005243   0.435899   0.520815   0.377660  -0.066029   0.021868
    21  C    0.007356   0.005441  -0.011151   0.002801   0.483517   0.454528
    22  C   -0.002547   0.066891  -0.003915  -0.002170   0.012257  -0.006944
    23  C    0.001743  -0.068846  -0.007335   0.064455   0.001884  -0.002267
    24  N   -0.000054   0.005576   0.000085  -0.001939  -0.000017   0.000008
    25  C   -0.001453   0.040139   0.007873  -0.093113  -0.000910   0.004890
    26  H    0.000000  -0.000025   0.000003   0.000003   0.000000   0.000000
    27  H    0.000000  -0.000000   0.000000  -0.000001   0.000000  -0.000000
    28  H   -0.000000   0.000001  -0.000000   0.000000  -0.000000  -0.000000
    29  H    0.000000  -0.000000   0.000000  -0.000001   0.000000   0.000000
    30  H   -0.000000   0.000000  -0.000000  -0.000000  -0.000000  -0.000000
    31  H    0.000000   0.000000   0.000001  -0.000018   0.000000  -0.000000
    32  H    0.000000   0.000000  -0.000000  -0.000000  -0.000000   0.000000
    33  H   -0.000000  -0.000000  -0.000000   0.000000  -0.000000  -0.000000
    34  H    0.000000   0.000000   0.000000  -0.000000   0.000003   0.000001
    35  H   -0.000000  -0.000000  -0.000000  -0.000000  -0.000000   0.000000
    36  H    0.000001  -0.000026   0.000004  -0.000049   0.000003   0.000014
    37  H    0.000170   0.004345   0.000055   0.000208  -0.000120  -0.000002
    38  H    0.000000   0.000000  -0.000000   0.000000  -0.000000   0.000002
    39  H   -0.000000   0.000000  -0.000000   0.000000   0.000000   0.000005
    40  H   -0.000000   0.000000   0.000000  -0.000001  -0.000001  -0.000013
    41  H   -0.000156   0.000001  -0.000000  -0.000000   0.000000  -0.000054
    42  H   -0.000006   0.000000   0.000000  -0.000000  -0.000001  -0.000003
    43  H    0.569445  -0.000289   0.002119   0.000209   0.001305  -0.000132
    44  H   -0.000289   0.541636  -0.027557  -0.032369   0.000031  -0.000151
    45  H    0.002119  -0.027557   0.568434  -0.030759   0.002220   0.000053
    46  H    0.000209  -0.032369  -0.030759   0.574153   0.000032   0.000147
    47  H    0.001305   0.000031   0.002220   0.000032   0.562010  -0.025397
    48  H   -0.000132  -0.000151   0.000053   0.000147  -0.025397   0.519955
    49  H   -0.000048   0.000055  -0.000143   0.003151  -0.031353  -0.030198
              49
     1  C   -0.000100
     2  N   -0.000084
     3  C   -0.000565
     4  C    0.000356
     5  N    0.005457
     6  C    0.003054
     7  C    0.013636
     8  C    0.148112
     9  C   -0.086465
    10  N    0.001719
    11  C   -0.030457
    12  C   -0.054520
    13  C    0.038407
    14  C   -0.000609
    15  C    0.020581
    16  C    0.006739
    17  O    0.000011
    18  C    0.006727
    19  C   -0.168131
    20  C    0.038780
    21  C    0.448527
    22  C   -0.040833
    23  C   -0.002157
    24  N   -0.000009
    25  C   -0.007877
    26  H   -0.000000
    27  H   -0.000000
    28  H    0.000000
    29  H   -0.000000
    30  H    0.000000
    31  H   -0.000003
    32  H    0.000000
    33  H    0.000000
    34  H    0.000257
    35  H    0.000005
    36  H   -0.000026
    37  H   -0.000090
    38  H    0.000000
    39  H   -0.000002
    40  H    0.000027
    41  H   -0.000001
    42  H   -0.000000
    43  H   -0.000048
    44  H    0.000055
    45  H   -0.000143
    46  H    0.003151
    47  H   -0.031353
    48  H   -0.030198
    49  H    0.580544
 Mulliken charges:
               1
     1  C   -0.225892
     2  N   -0.058148
     3  C   -0.252777
     4  C   -0.130183
     5  N   -0.129924
     6  C   -0.238524
     7  C   -0.007117
     8  C    0.332550
     9  C   -0.543933
    10  N   -0.459764
    11  C    0.810030
    12  C   -0.035232
    13  C    0.137882
    14  C   -0.534373
    15  C   -0.204464
    16  C    0.039876
    17  O   -0.509070
    18  C    0.015887
    19  C   -0.305227
    20  C   -0.362309
    21  C   -0.308393
    22  C   -0.597674
    23  C    0.362536
    24  N   -0.548478
    25  C   -0.129546
    26  H    0.179325
    27  H    0.140238
    28  H    0.166725
    29  H    0.145170
    30  H    0.161080
    31  H    0.161263
    32  H    0.143598
    33  H    0.140867
    34  H    0.165114
    35  H    0.180842
    36  H    0.165829
    37  H    0.168185
    38  H    0.144525
    39  H    0.156010
    40  H    0.183666
    41  H    0.108776
    42  H    0.345122
    43  H    0.124429
    44  H    0.161873
    45  H    0.141448
    46  H    0.141694
    47  H    0.146138
    48  H    0.172825
    49  H    0.137525
 Sum of Mulliken charges =  -0.00000
 Mulliken charges with hydrogens summed into heavy atoms:
               1
     1  C    0.260396
     2  N   -0.058148
     3  C    0.053473
     4  C    0.174678
     5  N   -0.129924
     6  C    0.248299
     7  C   -0.007117
     8  C    0.332550
     9  C   -0.543933
    10  N   -0.459764
    11  C    0.975859
    12  C    0.132953
    13  C    0.137882
    14  C   -0.050172
    15  C   -0.095688
    16  C    0.039876
    17  O   -0.163948
    18  C    0.140316
    19  C   -0.305227
    20  C    0.082706
    21  C    0.148096
    22  C   -0.597674
    23  C    0.362536
    24  N   -0.548478
    25  C   -0.129546
 Electronic spatial extent (au):  <R**2>=           8215.4224
 Charge=              0.0000 electrons
 Dipole moment (field-independent basis, Debye):
    X=              7.4183    Y=              0.9393    Z=             -0.7468  Tot=              7.5147
 Quadrupole moment (field-independent basis, Debye-Ang):
   XX=           -119.0774   YY=           -179.6558   ZZ=           -151.9957
   XY=             -0.2092   XZ=            -15.0496   YZ=              0.7275
 Traceless Quadrupole moment (field-independent basis, Debye-Ang):
   XX=             31.1656   YY=            -29.4129   ZZ=             -1.7527
   XY=             -0.2092   XZ=            -15.0496   YZ=              0.7275
 Octapole moment (field-independent basis, Debye-Ang**2):
  XXX=            100.7718  YYY=             14.3277  ZZZ=             -7.3555  XYY=             56.6361
  XXY=              7.0117  XXZ=             45.0327  XZZ=              4.5966  YZZ=              7.4068
  YYZ=            -51.2450  XYZ=             -4.6298
 Hexadecapole moment (field-independent basis, Debye-Ang**3):
 XXXX=          -6123.8941 YYYY=          -3387.3805 ZZZZ=          -1353.9954 XXXY=            -59.7161
 XXXZ=           -454.2492 YYYX=             54.1979 YYYZ=             38.2252 ZZZX=             -4.4760
 ZZZY=             18.2039 XXYY=          -1537.9975 XXZZ=          -1438.4362 YYZZ=           -761.9761
 XXYZ=            -34.6534 YYXZ=            -17.3705 ZZXY=              1.4479
 N-N= 2.263908325710D+03 E-N=-7.010121725550D+03  KE= 1.060604205021D+03
 Unable to Open any file for archive entry.
 1\1\GINC-N1\SP\RB3LYP TD-FC\6-31+G(d,p)\C20H24N4O1\HPCMGAC13\25-Aug-20
 25\0\\# td=(50-50,nstates=3) b3lyp/6-31+g(d,p) geom=connectivity\\Titl
 e Card Required\\0,1\C,0,3.465543,2.735988,-0.139816\N,0,3.244143,1.32
 1687,0.144677\C,0,4.437653,0.480149,0.207743\C,0,4.126442,-0.830525,0.
 911461\N,0,3.028762,-1.528853,0.24245\C,0,2.879711,-2.944125,0.572217\
 C,0,1.949971,-0.769215,-0.129638\C,0,0.674529,-1.129646,-0.515167\C,0,
 0.171378,-2.436866,-0.692857\N,0,-0.277857,-3.500496,-0.874475\C,0,-0.
 12045,0.101029,-0.925632\C,0,-1.562178,0.353507,-0.358803\C,0,-2.66748
 8,-0.360052,-1.156919\C,0,-2.413046,-0.9611,-2.515551\C,0,-3.92367,-0.
 304203,-0.668995\C,0,-4.220795,0.349883,0.600647\O,0,-5.53886,0.602082
 ,0.918529\C,0,-3.23941,0.664739,1.460971\C,0,-1.795816,0.248167,1.1932
 99\C,0,-0.872347,1.213389,1.965111\C,0,-1.613742,-1.178115,1.773881\C,
 0,0.884803,1.216861,-0.680472\C,0,0.55518,2.556815,-0.978045\N,0,0.217
 865,3.643646,-1.245613\C,0,2.076741,0.703912,-0.223291\H,0,2.614938,3.
 329831,0.193254\H,0,4.35027,3.06467,0.410439\H,0,3.624213,2.924219,-1.
 211323\H,0,5.203788,1.017162,0.774259\H,0,4.838565,0.280963,-0.799582\
 H,0,3.888698,-0.640372,1.970702\H,0,5.009903,-1.474381,0.875577\H,0,3.
 875607,-3.384217,0.659874\H,0,2.343574,-3.091206,1.520728\H,0,2.341664
 ,-3.470099,-0.214888\H,0,-0.246598,0.053347,-2.016137\H,0,-1.73927,1.4
 20962,-0.581058\H,0,-3.342118,-1.363041,-2.929115\H,0,-2.037976,-0.210
 425,-3.224782\H,0,-1.684554,-1.777668,-2.486212\H,0,-4.748176,-0.74077
 2,-1.231257\H,0,-6.082062,0.544347,0.122259\H,0,-3.481346,1.113065,2.4
 20783\H,0,-0.953228,2.23791,1.587619\H,0,-1.160511,1.225086,3.022655\H
 ,0,0.174826,0.905576,1.913942\H,0,-1.958185,-1.185535,2.813744\H,0,-2.
 202067,-1.916051,1.222208\H,0,-0.56754,-1.495472,1.767943\\Version=ES6
 4L-G16RevC.02\State=1-A\HF=-1070.7871551\RMSD=5.952e-09\PG=C01 [X(C20H
 24N4O1)]\\@
 The archive entry for this job was punched.


 I DON'T EXACTLY UNDERSTAND WHAT YOU ARE SAYING,
 BUT YOU ARE ABSOLUTELY RIGHT.
     M.S.GORDON, IN A NDSU FACULTY MEETING
 Job cpu time:       0 days  6 hours 51 minutes 44.3 seconds.
 Elapsed time:       0 days  0 hours 26 minutes 23.3 seconds.
 File lengths (MBytes):  RWF=   1889 Int=      0 D2E=      0 Chk=     91 Scr=      2
 Normal termination of Gaussian 16 at Mon Aug 25 14:45:41 2025.
