 Entering Gaussian System, Link 0=g16
 Input=M887E.gjf
 Output=M887E.log
 Initial command:
 /hpc/softwares/Gaussian/g16/l1.exe "/hpc/home/hpcmgac13/pbs.13407.admin1.x8z/Gau-373453.inp" -scrdir="/hpc/home/hpcmgac13/pbs.13407.admin1.x8z/"
 Default linda workers: n1
 Default is to use  16 SMP processors on each worker.
 Entering Link 1 = /hpc/softwares/Gaussian/g16/l1.exe PID=    373454.
  
 Copyright (c) 1988-2021, Gaussian, Inc.  All Rights Reserved.
  
 This is part of the Gaussian(R) 16 program.  It is based on
 the Gaussian(R) 09 system (copyright 2009, Gaussian, Inc.),
 the Gaussian(R) 03 system (copyright 2003, Gaussian, Inc.),
 the Gaussian(R) 98 system (copyright 1998, Gaussian, Inc.),
 the Gaussian(R) 94 system (copyright 1995, Gaussian, Inc.),
 the Gaussian 92(TM) system (copyright 1992, Gaussian, Inc.),
 the Gaussian 90(TM) system (copyright 1990, Gaussian, Inc.),
 the Gaussian 88(TM) system (copyright 1988, Gaussian, Inc.),
 the Gaussian 86(TM) system (copyright 1986, Carnegie Mellon
 University), and the Gaussian 82(TM) system (copyright 1983,
 Carnegie Mellon University). Gaussian is a federally registered
 trademark of Gaussian, Inc.
  
 This software contains proprietary and confidential information,
 including trade secrets, belonging to Gaussian, Inc.
  
 This software is provided under written license and may be
 used, copied, transmitted, or stored only in accord with that
 written license.
  
 The following legend is applicable only to US Government
 contracts under FAR:
  
                    RESTRICTED RIGHTS LEGEND
  
 Use, reproduction and disclosure by the US Government is
 subject to restrictions as set forth in subparagraphs (a)
 and (c) of the Commercial Computer Software - Restricted
 Rights clause in FAR 52.227-19.
  
 Gaussian, Inc.
 340 Quinnipiac St., Bldg. 40, Wallingford CT 06492
  
  
 ---------------------------------------------------------------
 Warning -- This program may not be used in any manner that
 competes with the business of Gaussian, Inc. or will provide
 assistance to any competitor of Gaussian, Inc.  The licensee
 of this program is prohibited from giving any competitor of
 Gaussian, Inc. access to this program.  By using this program,
 the user acknowledges that Gaussian, Inc. is engaged in the
 business of creating and licensing software in the field of
 computational chemistry and represents and warrants to the
 licensee that it is not a competitor of Gaussian, Inc. and that
 it will not use this program in any manner prohibited above.
 ---------------------------------------------------------------
  

 Cite this work as:
 Gaussian 16, Revision C.02,
 M. J. Frisch, G. W. Trucks, H. B. Schlegel, G. E. Scuseria, 
 M. A. Robb, J. R. Cheeseman, G. Scalmani, V. Barone, 
 G. A. Petersson, H. Nakatsuji, X. Li, M. Caricato, A. V. Marenich, 
 J. Bloino, B. G. Janesko, R. Gomperts, B. Mennucci, H. P. Hratchian, 
 J. V. Ortiz, A. F. Izmaylov, J. L. Sonnenberg, D. Williams-Young, 
 F. Ding, F. Lipparini, F. Egidi, J. Goings, B. Peng, A. Petrone, 
 T. Henderson, D. Ranasinghe, V. G. Zakrzewski, J. Gao, N. Rega, 
 G. Zheng, W. Liang, M. Hada, M. Ehara, K. Toyota, R. Fukuda, 
 J. Hasegawa, M. Ishida, T. Nakajima, Y. Honda, O. Kitao, H. Nakai, 
 T. Vreven, K. Throssell, J. A. Montgomery, Jr., J. E. Peralta, 
 F. Ogliaro, M. J. Bearpark, J. J. Heyd, E. N. Brothers, K. N. Kudin, 
 V. N. Staroverov, T. A. Keith, R. Kobayashi, J. Normand, 
 K. Raghavachari, A. P. Rendell, J. C. Burant, S. S. Iyengar, 
 J. Tomasi, M. Cossi, J. M. Millam, M. Klene, C. Adamo, R. Cammi, 
 J. W. Ochterski, R. L. Martin, K. Morokuma, O. Farkas, 
 J. B. Foresman, and D. J. Fox, Gaussian, Inc., Wallingford CT, 2019.
 
 ******************************************
 Gaussian 16:  ES64L-G16RevC.02  7-Dec-2021
                25-Aug-2025 
 ******************************************
 SetLPE:    new flags="-opt 'Tsnet.Node.lindarsharg: ssh'  -nodelist 'n1' -env GAUSS_MDEF=4294967296 -env GAUSS_EXEDIR="/hpc/softwares/Gaussian/g16/bsd:/hpc/softwares/Gaussian/g16""
 Will use up to    1 processors via Linda.
 ----------------------------------------------------------
 # td=(50-50,nstates=3) b3lyp/6-31+g(d,p) geom=connectivity
 ----------------------------------------------------------
 1/38=1,57=2,172=1/1;
 2/12=2,17=6,18=5,40=1/2;
 3/5=1,6=6,7=111,11=9,25=1,30=1,74=-5/1,2,3,8;
 4//1;
 5/5=2,38=5/2;
 8/6=1,10=2,108=3/1;
 9/41=3,42=1,48=2,70=2/14;
 6/7=2,8=2,9=2,10=2/1;
 99/5=1,9=1/99;
 -------------------
 Title Card Required
 -------------------
 Symbolic Z-matrix:
 Charge =  0 Multiplicity = 1
 C                     0.04992  -4.08558   1.23958 
 C                    -0.48089  -2.80116   0.566 
 C                    -1.00235  -3.16911  -0.83779 
 C                    -1.61099  -2.21782   1.43975 
 N                     0.66826  -1.88131   0.54821 
 C                     0.8922   -0.84473  -0.1588 
 C                     2.19669  -0.15391  -0.09825 
 C                     3.32759  -0.44832   0.66574 
 C                     4.47716   0.32409   0.49352 
 C                     4.48572   1.37569  -0.43923 
 C                     3.35743   1.68521  -1.20244 
 C                     2.20814   0.9083   -1.01456 
 N                     0.95412   1.06826  -1.59664 
 C                     0.07353  -0.07309  -1.26342 
 C                    -1.33673   0.42373  -0.96359 
 C                    -2.35361   0.09385  -1.86966 
 C                    -3.66456   0.54551  -1.70361 
 C                    -3.97304   1.3538   -0.61232 
 C                    -2.96816   1.70903   0.29156 
 C                    -1.65259   1.26208   0.13108 
 C                    -0.56236   1.67325   1.11555 
 C                    -0.99847   2.59619   2.16539 
 N                    -1.33071   3.3286    3.0031 
 H                     0.44232  -3.85533   2.23443 
 H                    -0.7454   -4.83261   1.33764 
 H                     0.86392  -4.51932   0.64953 
 H                    -1.52084  -2.34034  -1.32129 
 H                    -1.71619  -3.99631  -0.76045 
 H                    -0.17834  -3.49868  -1.48049 
 H                    -2.39942  -2.96596   1.57744 
 H                    -1.22537  -1.94743   2.4281 
 H                    -2.06041  -1.33235   0.98536 
 H                     3.29575  -1.27668   1.36651 
 H                     5.36946   0.11118   1.07364 
 H                     5.38844   1.96601  -0.56954 
 H                     3.37107   2.50765  -1.91187 
 H                     0.89134   1.43822  -2.53588 
 H                     0.00909  -0.75048  -2.12556 
 H                    -2.1121   -0.52995  -2.72678 
 H                    -4.4299    0.2692   -2.42261 
 H                    -4.98545   1.71618  -0.46186 
 H                    -3.21159   2.34875   1.1341 
 H                    -0.13804   0.79035   1.60868 
 H                     0.2623    2.14693   0.57126 
 
                          Input orientation:                          
 ---------------------------------------------------------------------
 Center     Atomic      Atomic             Coordinates (Angstroms)
 Number     Number       Type             X           Y           Z
 ---------------------------------------------------------------------
      1          6           0        0.049918   -4.085576    1.239578
      2          6           0       -0.480893   -2.801159    0.566000
      3          6           0       -1.002353   -3.169107   -0.837791
      4          6           0       -1.610986   -2.217819    1.439750
      5          7           0        0.668256   -1.881314    0.548206
      6          6           0        0.892197   -0.844726   -0.158802
      7          6           0        2.196688   -0.153905   -0.098251
      8          6           0        3.327590   -0.448322    0.665739
      9          6           0        4.477156    0.324094    0.493524
     10          6           0        4.485717    1.375689   -0.439227
     11          6           0        3.357430    1.685214   -1.202436
     12          6           0        2.208138    0.908295   -1.014565
     13          7           0        0.954120    1.068261   -1.596641
     14          6           0        0.073528   -0.073092   -1.263419
     15          6           0       -1.336730    0.423731   -0.963587
     16          6           0       -2.353608    0.093850   -1.869662
     17          6           0       -3.664561    0.545510   -1.703612
     18          6           0       -3.973036    1.353796   -0.612322
     19          6           0       -2.968164    1.709031    0.291555
     20          6           0       -1.652586    1.262078    0.131075
     21          6           0       -0.562362    1.673246    1.115552
     22          6           0       -0.998470    2.596191    2.165394
     23          7           0       -1.330707    3.328602    3.003103
     24          1           0        0.442315   -3.855331    2.234434
     25          1           0       -0.745404   -4.832613    1.337635
     26          1           0        0.863922   -4.519315    0.649531
     27          1           0       -1.520844   -2.340341   -1.321292
     28          1           0       -1.716191   -3.996314   -0.760445
     29          1           0       -0.178335   -3.498679   -1.480490
     30          1           0       -2.399422   -2.965955    1.577442
     31          1           0       -1.225374   -1.947429    2.428097
     32          1           0       -2.060407   -1.332350    0.985356
     33          1           0        3.295751   -1.276677    1.366512
     34          1           0        5.369464    0.111180    1.073645
     35          1           0        5.388438    1.966013   -0.569536
     36          1           0        3.371074    2.507651   -1.911865
     37          1           0        0.891338    1.438218   -2.535883
     38          1           0        0.009093   -0.750479   -2.125564
     39          1           0       -2.112101   -0.529950   -2.726779
     40          1           0       -4.429902    0.269200   -2.422612
     41          1           0       -4.985446    1.716181   -0.461859
     42          1           0       -3.211592    2.348748    1.134100
     43          1           0       -0.138038    0.790345    1.608681
     44          1           0        0.262304    2.146931    0.571261
 ---------------------------------------------------------------------
                    Distance matrix (angstroms):
                    1          2          3          4          5
     1  C    0.000000
     2  C    1.544408   0.000000
     3  C    2.502529   1.542056   0.000000
     4  C    2.507426   1.542995   2.542160   0.000000
     5  N    2.391466   1.472065   2.523952   2.470431   0.000000
     6  C    3.628775   2.497668   3.074588   3.272106   1.274568
     7  C    4.675088   3.823431   4.457827   4.596038   2.395402
     8  C    4.929710   4.477760   5.330261   5.302805   3.023134
     9  C    6.293030   5.861289   6.633240   6.664993   4.401651
    10  C    7.233264   6.566868   7.136731   7.322134   5.114304
    11  C    7.085555   6.163411   6.534914   6.848355   4.797554
    12  C    5.888788   4.846558   5.192659   5.511983   3.549001
    13  N    5.951786   4.659258   4.728523   5.157302   3.658152
    14  C    4.729226   3.331142   3.305146   3.839865   2.627804
    15  C    5.206782   3.670424   3.610556   3.581764   3.408624
    16  C    5.736890   4.221444   3.679339   4.104572   4.344999
    17  C    6.626212   5.146559   4.651384   4.661961   5.452840
    18  C    7.014304   5.554022   5.415944   4.748338   5.775323
    19  C    6.601896   5.157873   5.379225   4.310503   5.116639
    20  C    5.720551   4.251108   4.582238   3.718070   3.929532
    21  C    5.792607   4.508763   5.239993   4.042908   3.804103
    22  C    6.826585   5.653082   6.500600   4.906774   5.043939
    23  N    7.745075   6.650987   7.555164   5.769351   6.096359
    24  H    1.093950   2.178822   3.463602   2.743905   2.605985
    25  H    1.095544   2.189108   2.750591   2.756231   3.366274
    26  H    1.094937   2.183475   2.741928   3.470807   2.647187
    27  H    3.474362   2.203570   1.090623   2.765229   2.915114
    28  H    2.669682   2.171132   1.095362   2.831072   3.445487
    29  H    2.792010   2.183162   1.095758   3.495839   2.729138
    30  H    2.714216   2.175069   2.797574   1.095581   3.412685
    31  H    2.758735   2.179567   3.494032   1.094823   2.669119
    32  H    3.478269   2.197299   2.795893   1.092020   2.817457
    33  H    4.294352   4.150651   5.187865   4.996717   2.817613
    34  H    6.777748   6.554853   7.417137   7.367832   5.132979
    35  H    8.270092   7.646203   8.202660   8.398429   6.191235
    36  H    8.026974   7.011485   7.246108   7.640963   5.711409
    37  H    6.743470   5.429274   5.262796   5.952637   4.536592
    38  H    4.738008   3.419048   2.920812   4.182010   2.976967
    39  H    5.748808   4.319910   3.430010   4.523271   4.503565
    40  H    7.241857   5.826970   5.107025   5.389749   6.280262
    41  H    7.868301   6.461722   6.314459   5.520820   6.776913
    42  H    7.214506   5.856705   6.262253   4.848597   5.769741
    43  H    4.893482   3.755481   4.733870   3.353679   2.985378
    44  H    6.271834   5.003595   5.643141   4.828512   4.048714
                    6          7          8          9         10
     6  C    0.000000
     7  C    1.477361   0.000000
     8  C    2.601566   1.396174   0.000000
     9  C    3.826696   2.404000   1.395631   0.000000
    10  C    4.233470   2.774090   2.426772   1.405685   0.000000
    11  C    3.683360   2.439038   2.836008   2.445959   1.396898
    12  C    2.353107   1.402865   2.432489   2.786407   2.395170
    13  N    2.393895   2.298442   3.612720   4.163455   3.729115
    14  C    1.576647   2.423212   3.801495   4.757788   4.716532
    15  C    2.687895   3.683410   5.017077   5.994528   5.923012
    16  C    3.787244   4.889220   6.244855   7.231666   7.103916
    17  C    5.008317   6.117238   7.449275   8.435875   8.289445
    18  C    5.358141   6.372042   7.627595   8.584225   8.460552
    19  C    4.650471   5.504378   6.665636   7.575726   7.497033
    20  C    3.316410   4.107859   5.292777   6.211676   6.165786
    21  C    3.174886   3.524792   4.453662   5.253939   5.290461
    22  C    4.562501   4.784992   5.498438   6.159550   6.192736
    23  N    5.688199   5.847116   6.436471   7.004022   7.035218
    24  H    3.872172   4.713788   4.732159   6.064512   7.131699
    25  H    4.563365   5.710340   6.021855   7.387779   8.310528
    26  H    3.762553   4.625175   4.758456   6.044701   7.003846
    27  H    3.067738   4.482898   5.570937   6.809462   7.117984
    28  H    4.134993   5.523878   6.329453   7.654797   8.211289
    29  H    3.152200   4.328837   5.118836   6.339079   6.826205
    30  H    4.283563   5.642677   6.322052   7.699781   8.385819
    31  H    3.520243   4.616240   5.107123   6.435933   7.202862
    32  H    3.203864   4.548164   5.469385   6.762059   7.225971
    33  H    2.879277   2.148043   1.085481   2.172624   3.422245
    34  H    4.741160   3.392656   2.156080   1.085397   2.160734
    35  H    5.318378   3.860496   3.406173   2.157876   1.086447
    36  H    4.522885   3.428157   3.922207   3.431798   2.166202
    37  H    3.295808   3.190743   4.443505   4.824590   4.161663
    38  H    2.157987   3.041623   4.346849   5.289415   5.234929
    39  H    3.964769   5.061248   6.411402   7.383634   7.238477
    40  H    5.889856   7.035152   8.380420   9.372435   9.200348
    41  H    6.418471   7.430510   8.663897   9.612050   9.477308
    42  H    5.358261   6.085347   7.127683   7.976616   7.916487
    43  H    2.618938   3.042396   3.799212   4.770847   5.090743
    44  H    3.143210   3.079600   4.017492   4.592794   4.410569
                   11         12         13         14         15
    11  C    0.000000
    12  C    1.399918   0.000000
    13  N    2.512355   1.391748   0.000000
    14  C    3.725503   2.362543   1.479583   0.000000
    15  C    4.866572   3.578196   2.462554   1.524979   0.000000
    16  C    5.966036   4.712116   3.459058   2.507267   1.401369
    17  C    7.131512   5.924103   4.649401   3.814413   2.445662
    18  C    7.361644   6.210248   5.032622   4.339887   2.817537
    19  C    6.499670   5.398262   4.400021   3.853024   2.426717
    20  C    5.201688   4.042628   3.133286   2.589742   1.414523
    21  C    4.553897   3.577460   3.165709   3.018867   2.546321
    22  C    5.580862   4.821148   4.505562   4.475602   3.824202
    23  N    6.508910   5.875625   5.611347   5.634413   4.916599
    24  H    7.141961   6.030444   6.259460   5.164912   5.630516
    25  H    8.109703   6.871265   6.805782   5.485360   5.768400
    26  H    6.938555   5.833959   6.022826   4.904386   5.646125
    27  H    6.325882   4.955101   4.221354   2.772326   2.793196
    28  H    7.629990   6.286503   5.786165   4.341399   4.440952
    29  H    6.281058   5.033265   4.706685   3.441686   4.122423
    30  H    7.905848   6.554229   6.131553   4.749171   4.367621
    31  H    6.883237   5.638802   5.481158   4.339075   4.139845
    32  H    6.576099   5.219258   4.638644   3.346102   2.721380
    33  H    3.921237   3.409770   4.445475   4.329882   5.457163
    34  H    3.421463   3.871692   5.248018   5.791611   7.015771
    35  H    2.145787   3.380995   4.639405   5.734779   6.910991
    36  H    1.086222   2.171522   2.830702   4.237278   5.235014
    37  H    2.814373   2.080670   1.011427   2.138232   2.909568
    38  H    4.242184   2.970126   2.116755   1.098316   2.130774
    39  H    6.094780   4.864637   3.637747   2.669666   2.149315
    40  H    8.008525   6.815762   5.505308   4.662808   3.423499
    41  H    8.375738   7.259877   6.081610   5.425607   3.903241
    42  H    7.003694   6.005426   5.142932   4.733436   3.408972
    43  H    4.573999   3.521345   3.397666   3.006533   2.861439
    44  H    3.597081   2.799167   2.518320   2.886207   2.807505
                   16         17         18         19         20
    16  C    0.000000
    17  C    1.396484   0.000000
    18  C    2.406432   1.392622   0.000000
    19  C    2.767191   2.412352   1.397481   0.000000
    20  C    2.420565   2.815598   2.438348   1.398666   0.000000
    21  C    3.822899   4.340865   3.836704   2.543253   1.525399
    22  C    4.937589   5.126650   4.255267   2.859724   2.519162
    23  N    5.937490   5.945220   4.894186   3.557635   3.552840
    24  H    6.344826   7.193194   7.398267   6.809425   5.916131
    25  H    6.094515   6.833364   7.245108   6.987707   6.278855
    26  H    6.162802   7.190055   7.712449   7.321566   6.326619
    27  H    2.630493   3.615222   4.490271   4.592758   3.886406
    28  H    4.285569   5.031290   5.808525   5.935074   5.333811
    29  H    4.217764   5.344064   6.220931   6.167944   5.237878
    30  H    4.609450   4.969535   5.092306   4.881851   4.530563
    31  H    4.889833   5.406977   5.262308   4.579501   3.969856
    32  H    3.204862   3.651057   3.664165   3.248905   2.761733
    33  H    6.653302   7.822530   7.979376   7.021867   5.697159
    34  H    8.264938   9.461258   9.574387   8.525305   7.177896
    35  H    8.070601   9.233675   9.381569   8.404779   7.110724
    36  H    6.212906   7.307087   7.546930   6.758609   5.564370
    37  H    3.575032   4.716547   5.231572   4.792025   3.689883
    38  H    2.522049   3.918337   4.751339   4.555844   3.450215
    39  H    1.087245   2.147933   3.388585   3.854377   3.404387
    40  H    2.155806   1.085843   2.159219   3.402425   3.901360
    41  H    3.397122   2.158045   1.085788   2.153395   3.415514
    42  H    3.852699   3.392559   2.149353   1.085531   2.148816
    43  H    4.182431   4.844336   4.467386   3.253985   2.167881
    44  H    4.125075   4.812470   4.468561   3.271990   2.154886
                   21         22         23         24         25
    21  C    0.000000
    22  C    1.464304   0.000000
    23  N    2.625530   1.161277   0.000000
    24  H    5.729436   6.610807   7.439311   0.000000
    25  H    6.512221   7.479061   8.349958   1.780451   0.000000
    26  H    6.371756   7.509778   8.482069   1.769335   1.778081
    27  H    4.792262   6.066235   7.132563   4.335017   3.725939
    28  H    6.082318   7.248226   8.244227   3.694364   2.458407
    29  H    5.799631   7.149303   8.248778   3.783261   3.169034
    30  H    5.011020   5.765919   6.541873   3.049278   2.505533
    31  H    3.907895   4.556861   5.308317   2.541413   3.121500
    32  H    3.360758   4.237173   5.131105   3.766862   3.755686
    33  H    4.863133   5.837607   6.729869   3.942695   5.382978
    34  H    6.134196   6.922267   7.678991   6.430975   7.867807
    35  H    6.191709   6.976357   7.730932   8.137225   9.353215
    36  H    5.033230   5.977022   6.851103   8.139838   9.021315
    37  H    3.937189   5.197526   6.260304   7.139972   7.550257
    38  H    4.087277   5.534230   6.688587   5.370044   5.406185
    39  H    4.692470   5.911539   6.952018   6.495909   6.074556
    40  H    5.426584   6.183802   6.957250   7.901793   7.330994
    41  H    4.696141   4.855188   5.288003   8.232395   8.006425
    42  H    2.734057   2.454120   2.826838   7.283706   7.595752
    43  H    1.096696   2.076380   3.132031   4.723418   5.662156
    44  H    1.095766   2.081501   3.138134   6.231027   7.093436
                   26         27         28         29         30
    26  H    0.000000
    27  H    3.784069   0.000000
    28  H    2.986393   1.759249   0.000000
    29  H    2.581664   1.780287   1.769493   0.000000
    30  H    3.731402   3.092887   2.644647   3.816801   0.000000
    31  H    3.760725   3.781481   3.821731   4.333557   1.771835
    32  H    4.338344   2.574451   3.203593   3.783593   1.770357
    33  H    4.116134   5.617407   6.086044   5.011186   5.944169
    34  H    6.474663   7.695585   8.392967   7.094559   8.371270
    35  H    8.001053   8.176063   9.276936   7.853767   9.464913
    36  H    7.888271   6.912501   8.337121   6.990021   8.685289
    37  H    6.755724   4.644498   6.283751   5.160524   6.866242
    38  H    4.757732   2.348451   3.921173   2.829108   4.941815
    39  H    6.014251   2.366959   4.004859   3.755801   4.954088
    40  H    7.771262   4.060201   5.321808   5.758500   5.530778
    41  H    8.621584   5.403468   6.588610   7.165242   5.724392
    42  H    8.000932   5.556540   6.788618   7.087251   5.394649
    43  H    5.487839   4.505340   5.569150   5.285861   4.384589
    44  H    6.693796   5.186230   6.589943   6.023019   5.851392
                   31         32         33         34         35
    31  H    0.000000
    32  H    1.776824   0.000000
    33  H    4.692275   5.369991   0.000000
    34  H    7.040192   7.569317   2.512410   0.000000
    35  H    8.248839   8.293502   4.317715   2.478066   0.000000
    36  H    7.733715   7.255376   5.007451   4.318554   2.482937
    37  H    6.370571   5.365442   5.327339   5.902824   4.936496
    38  H    4.867487   3.781432   4.824272   6.301664   6.223978
    39  H    5.419251   3.798219   6.823305   8.415942   8.193999
    40  H    6.221882   4.449013   8.742592  10.405593  10.134736
    41  H    5.992664   4.465851   8.993240  10.590466  10.377451
    42  H    4.906794   3.859771   7.452733   8.868195   8.775499
    43  H    3.057638   2.930848   4.015238   5.574954   6.055474
    44  H    4.735484   4.203791   4.642770   5.520847   5.254655
                   36         37         38         39         40
    36  H    0.000000
    37  H    2.771674   0.000000
    38  H    4.686576   2.395227   0.000000
    39  H    6.321101   3.595938   2.215752   0.000000
    40  H    8.131836   5.449315   4.564281   2.470498   0.000000
    41  H    8.518237   6.238223   5.813583   4.293143   2.499387
    42  H    7.254974   5.579594   5.532037   4.939855   4.296394
    43  H    5.259016   4.319348   4.042323   4.943310   5.911261
    44  H    3.995058   3.248431   3.966354   4.866267   5.874176
                   41         42         43         44
    41  H    0.000000
    42  H    2.468559   0.000000
    43  H    5.351792   3.478589   0.000000
    44  H    5.365796   3.524978   1.754092   0.000000
 Stoichiometry    C20H21N3
 Framework group  C1[X(C20H21N3)]
 Deg. of freedom   126
 Full point group                 C1      NOp   1
 Largest Abelian subgroup         C1      NOp   1
 Largest concise Abelian subgroup C1      NOp   1
                         Standard orientation:                         
 ---------------------------------------------------------------------
 Center     Atomic      Atomic             Coordinates (Angstroms)
 Number     Number       Type             X           Y           Z
 ---------------------------------------------------------------------
      1          6           0       -0.049918    4.085576    1.239578
      2          6           0        0.480893    2.801159    0.566000
      3          6           0        1.002353    3.169107   -0.837791
      4          6           0        1.610986    2.217819    1.439750
      5          7           0       -0.668256    1.881314    0.548206
      6          6           0       -0.892197    0.844726   -0.158802
      7          6           0       -2.196688    0.153905   -0.098251
      8          6           0       -3.327590    0.448322    0.665739
      9          6           0       -4.477156   -0.324094    0.493524
     10          6           0       -4.485717   -1.375689   -0.439227
     11          6           0       -3.357430   -1.685214   -1.202436
     12          6           0       -2.208138   -0.908295   -1.014565
     13          7           0       -0.954120   -1.068261   -1.596641
     14          6           0       -0.073528    0.073092   -1.263419
     15          6           0        1.336730   -0.423731   -0.963587
     16          6           0        2.353608   -0.093850   -1.869662
     17          6           0        3.664561   -0.545510   -1.703612
     18          6           0        3.973036   -1.353796   -0.612322
     19          6           0        2.968164   -1.709031    0.291555
     20          6           0        1.652586   -1.262078    0.131075
     21          6           0        0.562362   -1.673246    1.115552
     22          6           0        0.998470   -2.596191    2.165394
     23          7           0        1.330707   -3.328602    3.003103
     24          1           0       -0.442315    3.855331    2.234434
     25          1           0        0.745404    4.832613    1.337635
     26          1           0       -0.863922    4.519315    0.649531
     27          1           0        1.520844    2.340341   -1.321292
     28          1           0        1.716191    3.996314   -0.760445
     29          1           0        0.178335    3.498679   -1.480490
     30          1           0        2.399422    2.965955    1.577442
     31          1           0        1.225374    1.947429    2.428097
     32          1           0        2.060407    1.332350    0.985356
     33          1           0       -3.295751    1.276677    1.366512
     34          1           0       -5.369464   -0.111180    1.073645
     35          1           0       -5.388438   -1.966013   -0.569536
     36          1           0       -3.371074   -2.507651   -1.911865
     37          1           0       -0.891338   -1.438218   -2.535883
     38          1           0       -0.009093    0.750479   -2.125564
     39          1           0        2.112101    0.529950   -2.726779
     40          1           0        4.429902   -0.269200   -2.422612
     41          1           0        4.985446   -1.716181   -0.461859
     42          1           0        3.211592   -2.348748    1.134100
     43          1           0        0.138038   -0.790345    1.608681
     44          1           0       -0.262304   -2.146931    0.571261
 ---------------------------------------------------------------------
 Rotational constants (GHZ):           0.3142357           0.2274340           0.1789097
 Standard basis: 6-31+G(d,p) (6D, 7F)
 There are   542 symmetry adapted cartesian basis functions of A   symmetry.
 There are   542 symmetry adapted basis functions of A   symmetry.
   542 basis functions,   883 primitive gaussians,   542 cartesian basis functions
    81 alpha electrons       81 beta electrons
       nuclear repulsion energy      1876.3038355666 Hartrees.
 NAtoms=   44 NActive=   44 NUniq=   44 SFac= 1.00D+00 NAtFMM=   60 NAOKFM=F Big=F
 Integral buffers will be    131072 words long.
 Regular integral format.
 Two-electron integral symmetry is turned on.
 One-electron integrals computed using PRISM.
 NBasis=   542 RedAO= T EigKep=  1.02D-06  NBF=   542
 NBsUse=   539 1.00D-06 EigRej=  7.70D-07 NBFU=   539
 ExpMin= 4.38D-02 ExpMax= 4.17D+03 ExpMxC= 6.27D+02 IAcc=3 IRadAn=         5 AccDes= 0.00D+00
 Harris functional with IExCor=  402 and IRadAn=       5 diagonalized for initial guess.
 HarFok:  IExCor=  402 AccDes= 0.00D+00 IRadAn=         5 IDoV= 1 UseB2=F ITyADJ=14
 ICtDFT=  3500011 ScaDFX=  1.000000  1.000000  1.000000  1.000000
 FoFCou: FMM=F IPFlag=           0 FMFlag=      100000 FMFlg1=           0
         NFxFlg=           0 DoJE=T BraDBF=F KetDBF=T FulRan=T
         wScrn=  0.000000 ICntrl=       500 IOpCl=  0 I1Cent=   200000004 NGrid=           0
         NMat0=    1 NMatS0=      1 NMatT0=    0 NMatD0=    1 NMtDS0=    0 NMtDT0=    0
 Petite list used in FoFCou.
 Requested convergence on RMS density matrix=1.00D-08 within 128 cycles.
 Requested convergence on MAX density matrix=1.00D-06.
 Requested convergence on             energy=1.00D-06.
 No special actions if energy rises.
 SCF Done:  E(RB3LYP) =  -939.068653477     A.U. after   17 cycles
            NFock= 17  Conv=0.36D-08     -V/T= 2.0097
 DoSCS=F DFT=T ScalE2(SS,OS)=  1.000000  1.000000
 ExpMin= 4.38D-02 ExpMax= 4.17D+03 ExpMxC= 6.27D+02 IAcc=3 IRadAn=         5 AccDes= 0.00D+00
 HarFok:  IExCor=  205 AccDes= 0.00D+00 IRadAn=         5 IDoV=-2 UseB2=F ITyADJ=14
 ICtDFT= 12500011 ScaDFX=  1.000000  1.000000  1.000000  1.000000
 GSVD:  LWork=        -713 too small for GESVD, short by        2990 words or        2990 for optimal perf.
 Range of M.O.s used for correlation:    24   539
 NBasis=   542 NAE=    81 NBE=    81 NFC=    23 NFV=     0
 NROrb=    516 NOA=    58 NOB=    58 NVA=   458 NVB=   458

 **** Warning!!: The largest alpha MO coefficient is  0.18184535D+03

 Orbital symmetries:
       Occupied  (A) (A) (A) (A) (A) (A) (A) (A) (A) (A) (A) (A)
                 (A) (A) (A) (A) (A) (A) (A) (A) (A) (A) (A) (A)
                 (A) (A) (A) (A) (A) (A) (A) (A) (A) (A) (A) (A)
                 (A) (A) (A) (A) (A) (A) (A) (A) (A) (A) (A) (A)
                 (A) (A) (A) (A) (A) (A) (A) (A) (A) (A) (A) (A)
                 (A) (A) (A) (A) (A) (A) (A) (A) (A) (A) (A) (A)
                 (A) (A) (A) (A) (A) (A) (A) (A) (A)
       Virtual   (A) (A) (A) (A) (A) (A) (A) (A) (A) (A) (A) (A)
                 (A) (A) (A) (A) (A) (A) (A) (A) (A) (A) (A) (A)
                 (A) (A) (A) (A) (A) (A) (A) (A) (A) (A) (A) (A)
                 (A) (A) (A) (A) (A) (A) (A) (A) (A) (A) (A) (A)
                 (A) (A) (A) (A) (A) (A) (A) (A) (A) (A) (A) (A)
                 (A) (A) (A) (A) (A) (A) (A) (A) (A) (A) (A) (A)
                 (A) (A) (A) (A) (A) (A) (A) (A) (A) (A) (A) (A)
                 (A) (A) (A) (A) (A) (A) (A) (A) (A) (A) (A) (A)
                 (A) (A) (A) (A) (A) (A) (A) (A) (A) (A) (A) (A)
                 (A) (A) (A) (A) (A) (A) (A) (A) (A) (A) (A) (A)
                 (A) (A) (A) (A) (A) (A) (A) (A) (A) (A) (A) (A)
                 (A) (A) (A) (A) (A) (A) (A) (A) (A) (A) (A) (A)
                 (A) (A) (A) (A) (A) (A) (A) (A) (A) (A) (A) (A)
                 (A) (A) (A) (A) (A) (A) (A) (A) (A) (A) (A) (A)
                 (A) (A) (A) (A) (A) (A) (A) (A) (A) (A) (A) (A)
                 (A) (A) (A) (A) (A) (A) (A) (A) (A) (A) (A) (A)
                 (A) (A) (A) (A) (A) (A) (A) (A) (A) (A) (A) (A)
                 (A) (A) (A) (A) (A) (A) (A) (A) (A) (A) (A) (A)
                 (A) (A) (A) (A) (A) (A) (A) (A) (A) (A) (A) (A)
                 (A) (A) (A) (A) (A) (A) (A) (A) (A) (A) (A) (A)
                 (A) (A) (A) (A) (A) (A) (A) (A) (A) (A) (A) (A)
                 (A) (A) (A) (A) (A) (A) (A) (A) (A) (A) (A) (A)
                 (A) (A) (A) (A) (A) (A) (A) (A) (A) (A) (A) (A)
                 (A) (A) (A) (A) (A) (A) (A) (A) (A) (A) (A) (A)
                 (A) (A) (A) (A) (A) (A) (A) (A) (A) (A) (A) (A)
                 (A) (A) (A) (A) (A) (A) (A) (A) (A) (A) (A) (A)
                 (A) (A) (A) (A) (A) (A) (A) (A) (A) (A) (A) (A)
                 (A) (A) (A) (A) (A) (A) (A) (A) (A) (A) (A) (A)
                 (A) (A) (A) (A) (A) (A) (A) (A) (A) (A) (A) (A)
                 (A) (A) (A) (A) (A) (A) (A) (A) (A) (A) (A) (A)
                 (A) (A) (A) (A) (A) (A) (A) (A) (A) (A) (A) (A)
                 (A) (A) (A) (A) (A) (A) (A) (A) (A) (A) (A) (A)
                 (A) (A) (A) (A) (A) (A) (A) (A) (A) (A) (A) (A)
                 (A) (A) (A) (A) (A) (A) (A) (A) (A) (A) (A) (A)
                 (A) (A) (A) (A) (A) (A) (A) (A) (A) (A) (A) (A)
                 (A) (A) (A) (A) (A) (A) (A) (A) (A) (A) (A) (A)
                 (A) (A) (A) (A) (A) (A) (A) (A) (A) (A) (A) (A)
                 (A) (A) (A) (A) (A) (A) (A) (A) (A) (A) (A) (A)
                 (A) (A)
    24 initial guesses have been made.
 Convergence on wavefunction:    0.001000000000000
 Iteration     1 Dimension    24 NMult     0 NNew     24
 CISAX will form    24 AO SS matrices at one time.
 New state      1 was old state      2
 New state      2 was old state      6
 New state      3 was old state     10
 New state      4 was old state      5
 New state      5 was old state     16
 New state      6 was old state      4
 New state      7 was old state      1
 New state      8 was old state      3
 New state      9 was old state      7
 New state     10 was old state      8
 New state     11 was old state     12
 New state     12 was old state     14
 Vector   5 SDiff=1.29D-01 TDiff=4.71D+01 assumed to be singlet.
 Vector   6 SDiff=6.34D+00 TDiff=8.43D+00 assumed to be singlet.
 Vector  11 SDiff=2.44D-02 TDiff=3.68D+01 assumed to be singlet.
 Vector  12 SDiff=6.37D+00 TDiff=8.15D+00 assumed to be singlet.
 Iteration     2 Dimension    36 NMult    24 NNew     12
 New state      4 was old state      7
 New state      5 was old state      4
 New state      6 was old state      8
 Iteration     3 Dimension    48 NMult    36 NNew     12
 Iteration     4 Dimension    60 NMult    48 NNew     12
 Iteration     5 Dimension    72 NMult    60 NNew     12
 Iteration     6 Dimension    82 NMult    72 NNew     10
 Iteration     7 Dimension    86 NMult    82 NNew      4
 Iteration     8 Dimension    88 NMult    86 NNew      2
 ***********************************************************************
 Excited states from <AA,BB:AA,BB> singles matrix:
 ***********************************************************************
 
 Ground to excited state transition densities written to RWF  633
 Ground to excited state transition electric dipole moments (Au):
       state          X           Y           Z        Dip. S.      Osc.
         1        -0.0000     -0.0000      0.0000      0.0000      0.0000
         2        -0.0000     -0.0000     -0.0000      0.0000      0.0000
         3         0.0000      0.0000      0.0000      0.0000      0.0000
         4         0.6303      0.7994      0.4035      1.1992      0.1076
         5        -0.1012     -0.1646     -0.0929      0.0460      0.0043
         6        -0.2459      0.0930     -0.0155      0.0693      0.0072
 Ground to excited state transition velocity dipole moments (Au):
       state          X           Y           Z        Dip. S.      Osc.
         1        -0.0000     -0.0000     -0.0000      0.0000      0.0000
         2         0.0000      0.0000      0.0000      0.0000      0.0000
         3        -0.0000     -0.0000     -0.0000      0.0000      0.0000
         4        -0.0807     -0.1096     -0.0526      0.0213      0.1055
         5         0.0168      0.0190      0.0192      0.0010      0.0049
         6         0.0372     -0.0162      0.0049      0.0017      0.0072
 Ground to excited state transition magnetic dipole moments (Au):
       state          X           Y           Z
         1         0.0000      0.0000     -0.0000
         2        -0.0000      0.0000     -0.0000
         3        -0.0000     -0.0000      0.0000
         4         0.1772     -0.4916      1.0599
         5         0.3905      0.8481     -0.0738
         6        -0.0746     -0.2920      0.0078
 Ground to excited state transition velocity quadrupole moments (Au):
       state          XX          YY          ZZ          XY          XZ          YZ
         1        -0.0000     -0.0000     -0.0000      0.0000     -0.0000      0.0000
         2        -0.0000      0.0000      0.0000     -0.0000      0.0000     -0.0000
         3         0.0000      0.0000      0.0000     -0.0000      0.0000     -0.0000
         4         0.6670     -0.2610      0.0424      0.3589      0.1452     -0.0459
         5        -0.2252     -0.0616      0.0655     -0.0068     -0.1204     -0.0530
         6         0.0536      0.0216     -0.0319     -0.0833     -0.0017     -0.0377
 <0|del|b> * <b|rxdel|0> + <0|del|b> * <b|delr+rdel|0>
 Rotatory Strengths (R) in cgs (10**-40 erg-esu-cm/Gauss)
       state          XX          YY          ZZ    R(velocity)    E-M Angle
         1        -0.0000     -0.0000      0.0000     -0.0000       90.00
         2        -0.0000      0.0000      0.0000     -0.0000       90.00
         3         0.0000      0.0000     -0.0000      0.0000       90.00
         4       -12.8498   -124.7817     52.3851    -28.4155       95.40
         5        42.8731     11.1689     54.1462     36.0627       44.46
         6         9.8865     -8.5030      7.7372      3.0402       80.66
 1/2[<0|r|b>*<b|rxdel|0> + (<0|rxdel|b>*<b|r|0>)*]
 Rotatory Strengths (R) in cgs (10**-40 erg-esu-cm/Gauss)
       state          XX          YY          ZZ     R(length)
         1         0.0000      0.0000      0.0000      0.0000
         2        -0.0000      0.0000     -0.0000     -0.0000
         3         0.0000      0.0000     -0.0000      0.0000
         4       -78.9807    277.8957   -302.4686    -34.5179
         5        27.9442     98.7179     -4.8475     40.6049
         6       -12.9708     19.1938      0.0855      2.1029
  1/2[<0|del|b>*<b|r|0> + (<0|r|b>*<b|del|0>)*] (Au)
       state          X           Y           Z        Dip. S.   Osc.(frdel)
         1         0.0000      0.0000     -0.0000     -0.0000     -0.0000
         2        -0.0000     -0.0000     -0.0000      0.0000      0.0000
         3        -0.0000     -0.0000     -0.0000      0.0000      0.0000
         4        -0.0509     -0.0876     -0.0212      0.1598      0.1065
         5        -0.0017     -0.0031     -0.0018      0.0066      0.0044
         6        -0.0091     -0.0015     -0.0001      0.0107      0.0071

 Excitation energies and oscillator strengths:
 
 Excited State   1:      Triplet-A      2.7670 eV  448.09 nm  f=0.0000  <S**2>=2.000
      79 -> 82        -0.25226
      81 -> 82         0.63168
      81 -> 86         0.11761
 This state for optimization and/or second-order correction.
 Total Energy, E(TD-HF/TD-DFT) =  -938.966968969    
 Copying the excited state density for this state as the 1-particle RhoCI density.
 
 Excited State   2:      Triplet-A      3.2439 eV  382.21 nm  f=0.0000  <S**2>=2.000
      80 -> 82         0.66887
      80 -> 93         0.10665
 
 Excited State   3:      Triplet-A      3.4240 eV  362.10 nm  f=0.0000  <S**2>=2.000
      79 -> 82         0.52088
      79 -> 86        -0.11798
      81 -> 82         0.27518
      81 -> 86        -0.28378
 
 Excited State   4:      Singlet-A      3.6629 eV  338.48 nm  f=0.1076  <S**2>=0.000
      80 -> 82         0.13089
      81 -> 82         0.67865
 
 Excited State   5:      Singlet-A      3.7789 eV  328.09 nm  f=0.0043  <S**2>=0.000
      80 -> 82         0.68173
      81 -> 82        -0.13137
 
 Excited State   6:      Singlet-A      4.2133 eV  294.27 nm  f=0.0072  <S**2>=0.000
      81 -> 83         0.70318
 SavETr:  write IOETrn=   770 NScale= 10 NData=  16 NLR=1 NState=    6 LETran=     118.

 **********************************************************************

            Population analysis using the SCF Density.

 **********************************************************************

 Orbital symmetries:
       Occupied  (A) (A) (A) (A) (A) (A) (A) (A) (A) (A) (A) (A)
                 (A) (A) (A) (A) (A) (A) (A) (A) (A) (A) (A) (A)
                 (A) (A) (A) (A) (A) (A) (A) (A) (A) (A) (A) (A)
                 (A) (A) (A) (A) (A) (A) (A) (A) (A) (A) (A) (A)
                 (A) (A) (A) (A) (A) (A) (A) (A) (A) (A) (A) (A)
                 (A) (A) (A) (A) (A) (A) (A) (A) (A) (A) (A) (A)
                 (A) (A) (A) (A) (A) (A) (A) (A) (A)
       Virtual   (A) (A) (A) (A) (A) (A) (A) (A) (A) (A) (A) (A)
                 (A) (A) (A) (A) (A) (A) (A) (A) (A) (A) (A) (A)
                 (A) (A) (A) (A) (A) (A) (A) (A) (A) (A) (A) (A)
                 (A) (A) (A) (A) (A) (A) (A) (A) (A) (A) (A) (A)
                 (A) (A) (A) (A) (A) (A) (A) (A) (A) (A) (A) (A)
                 (A) (A) (A) (A) (A) (A) (A) (A) (A) (A) (A) (A)
                 (A) (A) (A) (A) (A) (A) (A) (A) (A) (A) (A) (A)
                 (A) (A) (A) (A) (A) (A) (A) (A) (A) (A) (A) (A)
                 (A) (A) (A) (A) (A) (A) (A) (A) (A) (A) (A) (A)
                 (A) (A) (A) (A) (A) (A) (A) (A) (A) (A) (A) (A)
                 (A) (A) (A) (A) (A) (A) (A) (A) (A) (A) (A) (A)
                 (A) (A) (A) (A) (A) (A) (A) (A) (A) (A) (A) (A)
                 (A) (A) (A) (A) (A) (A) (A) (A) (A) (A) (A) (A)
                 (A) (A) (A) (A) (A) (A) (A) (A) (A) (A) (A) (A)
                 (A) (A) (A) (A) (A) (A) (A) (A) (A) (A) (A) (A)
                 (A) (A) (A) (A) (A) (A) (A) (A) (A) (A) (A) (A)
                 (A) (A) (A) (A) (A) (A) (A) (A) (A) (A) (A) (A)
                 (A) (A) (A) (A) (A) (A) (A) (A) (A) (A) (A) (A)
                 (A) (A) (A) (A) (A) (A) (A) (A) (A) (A) (A) (A)
                 (A) (A) (A) (A) (A) (A) (A) (A) (A) (A) (A) (A)
                 (A) (A) (A) (A) (A) (A) (A) (A) (A) (A) (A) (A)
                 (A) (A) (A) (A) (A) (A) (A) (A) (A) (A) (A) (A)
                 (A) (A) (A) (A) (A) (A) (A) (A) (A) (A) (A) (A)
                 (A) (A) (A) (A) (A) (A) (A) (A) (A) (A) (A) (A)
                 (A) (A) (A) (A) (A) (A) (A) (A) (A) (A) (A) (A)
                 (A) (A) (A) (A) (A) (A) (A) (A) (A) (A) (A) (A)
                 (A) (A) (A) (A) (A) (A) (A) (A) (A) (A) (A) (A)
                 (A) (A) (A) (A) (A) (A) (A) (A) (A) (A) (A) (A)
                 (A) (A) (A) (A) (A) (A) (A) (A) (A) (A) (A) (A)
                 (A) (A) (A) (A) (A) (A) (A) (A) (A) (A) (A) (A)
                 (A) (A) (A) (A) (A) (A) (A) (A) (A) (A) (A) (A)
                 (A) (A) (A) (A) (A) (A) (A) (A) (A) (A) (A) (A)
                 (A) (A) (A) (A) (A) (A) (A) (A) (A) (A) (A) (A)
                 (A) (A) (A) (A) (A) (A) (A) (A) (A) (A) (A) (A)
                 (A) (A) (A) (A) (A) (A) (A) (A) (A) (A) (A) (A)
                 (A) (A) (A) (A) (A) (A) (A) (A) (A) (A) (A) (A)
                 (A) (A) (A) (A) (A) (A) (A) (A) (A) (A) (A) (A)
                 (A) (A) (A) (A) (A) (A) (A) (A) (A) (A) (A) (A)
                 (A) (A)
 The electronic state is 1-A.
 Alpha  occ. eigenvalues --  -14.37132 -14.34323 -14.33019 -10.25929 -10.25472
 Alpha  occ. eigenvalues --  -10.24378 -10.24264 -10.23723 -10.23534 -10.23070
 Alpha  occ. eigenvalues --  -10.22514 -10.21414 -10.21199 -10.21139 -10.20964
 Alpha  occ. eigenvalues --  -10.20868 -10.20400 -10.20320 -10.19907 -10.19666
 Alpha  occ. eigenvalues --  -10.18393 -10.18028 -10.17307  -0.97713  -0.92197
 Alpha  occ. eigenvalues --   -0.91320  -0.88380  -0.85552  -0.81271  -0.80936
 Alpha  occ. eigenvalues --   -0.78874  -0.76124  -0.74684  -0.73607  -0.71158
 Alpha  occ. eigenvalues --   -0.69582  -0.68746  -0.64813  -0.63016  -0.62032
 Alpha  occ. eigenvalues --   -0.60077  -0.59396  -0.55227  -0.53762  -0.51785
 Alpha  occ. eigenvalues --   -0.51542  -0.50077  -0.48794  -0.48296  -0.47918
 Alpha  occ. eigenvalues --   -0.46887  -0.45511  -0.45230  -0.44890  -0.44757
 Alpha  occ. eigenvalues --   -0.44362  -0.43970  -0.43335  -0.41631  -0.40166
 Alpha  occ. eigenvalues --   -0.39653  -0.39450  -0.38372  -0.37913  -0.37229
 Alpha  occ. eigenvalues --   -0.37156  -0.36996  -0.36801  -0.36195  -0.35704
 Alpha  occ. eigenvalues --   -0.35367  -0.33585  -0.33492  -0.33267  -0.32262
 Alpha  occ. eigenvalues --   -0.30975  -0.27366  -0.26807  -0.25587  -0.24060
 Alpha  occ. eigenvalues --   -0.21717
 Alpha virt. eigenvalues --   -0.05977  -0.03753  -0.03151  -0.01343  -0.00926
 Alpha virt. eigenvalues --    0.00176   0.00550   0.00924   0.01366   0.02060
 Alpha virt. eigenvalues --    0.02227   0.02659   0.02828   0.03067   0.03217
 Alpha virt. eigenvalues --    0.03554   0.03976   0.04318   0.04694   0.05162
 Alpha virt. eigenvalues --    0.05827   0.05958   0.06132   0.06619   0.06803
 Alpha virt. eigenvalues --    0.07199   0.07712   0.08139   0.08337   0.08592
 Alpha virt. eigenvalues --    0.09371   0.09654   0.10165   0.10373   0.10886
 Alpha virt. eigenvalues --    0.11134   0.11294   0.11561   0.11776   0.12153
 Alpha virt. eigenvalues --    0.12541   0.12974   0.13425   0.13512   0.14097
 Alpha virt. eigenvalues --    0.14453   0.14581   0.14752   0.15026   0.15155
 Alpha virt. eigenvalues --    0.15514   0.15731   0.16213   0.16255   0.16732
 Alpha virt. eigenvalues --    0.17106   0.17336   0.17720   0.18045   0.18201
 Alpha virt. eigenvalues --    0.18505   0.18685   0.18919   0.19122   0.19914
 Alpha virt. eigenvalues --    0.20194   0.20358   0.20568   0.20707   0.21028
 Alpha virt. eigenvalues --    0.21258   0.21555   0.21803   0.21888   0.22321
 Alpha virt. eigenvalues --    0.22738   0.23035   0.23320   0.23479   0.23557
 Alpha virt. eigenvalues --    0.23924   0.24328   0.24639   0.24740   0.25255
 Alpha virt. eigenvalues --    0.25629   0.25760   0.26086   0.26609   0.26701
 Alpha virt. eigenvalues --    0.26889   0.27228   0.27457   0.27575   0.27860
 Alpha virt. eigenvalues --    0.28082   0.28482   0.28734   0.29167   0.29414
 Alpha virt. eigenvalues --    0.29692   0.29716   0.29906   0.30361   0.30831
 Alpha virt. eigenvalues --    0.30992   0.31574   0.31826   0.32295   0.32460
 Alpha virt. eigenvalues --    0.33367   0.33685   0.33795   0.34140   0.34855
 Alpha virt. eigenvalues --    0.35226   0.35449   0.35924   0.36607   0.36747
 Alpha virt. eigenvalues --    0.37252   0.37733   0.38204   0.39068   0.39619
 Alpha virt. eigenvalues --    0.40063   0.41013   0.41539   0.42584   0.43599
 Alpha virt. eigenvalues --    0.43838   0.44198   0.44782   0.46090   0.46469
 Alpha virt. eigenvalues --    0.46553   0.47743   0.53236   0.53764   0.57417
 Alpha virt. eigenvalues --    0.59188   0.60391   0.61735   0.63773   0.66216
 Alpha virt. eigenvalues --    0.66831   0.68148   0.68956   0.69153   0.69650
 Alpha virt. eigenvalues --    0.70153   0.71128   0.71301   0.71661   0.72862
 Alpha virt. eigenvalues --    0.73024   0.73395   0.73729   0.74108   0.74447
 Alpha virt. eigenvalues --    0.75020   0.75635   0.75663   0.76367   0.77323
 Alpha virt. eigenvalues --    0.77720   0.78675   0.79287   0.80350   0.81155
 Alpha virt. eigenvalues --    0.81601   0.81717   0.82434   0.82858   0.83758
 Alpha virt. eigenvalues --    0.84052   0.84996   0.85909   0.86029   0.86861
 Alpha virt. eigenvalues --    0.87673   0.88296   0.88529   0.89392   0.89663
 Alpha virt. eigenvalues --    0.90901   0.91030   0.91985   0.92390   0.93741
 Alpha virt. eigenvalues --    0.93977   0.94413   0.94652   0.96070   0.96790
 Alpha virt. eigenvalues --    0.97217   0.98186   0.98827   0.99256   1.01111
 Alpha virt. eigenvalues --    1.01422   1.01741   1.01834   1.03186   1.03626
 Alpha virt. eigenvalues --    1.04043   1.04772   1.05542   1.06172   1.07116
 Alpha virt. eigenvalues --    1.08337   1.08508   1.08752   1.10471   1.11284
 Alpha virt. eigenvalues --    1.12078   1.13349   1.13936   1.14224   1.15594
 Alpha virt. eigenvalues --    1.16025   1.16378   1.18119   1.18282   1.18989
 Alpha virt. eigenvalues --    1.19428   1.19766   1.21648   1.22423   1.22958
 Alpha virt. eigenvalues --    1.24597   1.25562   1.26723   1.27219   1.28354
 Alpha virt. eigenvalues --    1.28974   1.29260   1.30010   1.30990   1.31933
 Alpha virt. eigenvalues --    1.32308   1.35619   1.36807   1.37651   1.38145
 Alpha virt. eigenvalues --    1.38688   1.39908   1.40181   1.40642   1.41044
 Alpha virt. eigenvalues --    1.41495   1.42555   1.43194   1.43856   1.44663
 Alpha virt. eigenvalues --    1.47541   1.48330   1.49739   1.50571   1.51081
 Alpha virt. eigenvalues --    1.52953   1.53109   1.55171   1.56151   1.57416
 Alpha virt. eigenvalues --    1.58849   1.61111   1.61896   1.65187   1.67918
 Alpha virt. eigenvalues --    1.68791   1.71284   1.73642   1.73793   1.75887
 Alpha virt. eigenvalues --    1.76736   1.78166   1.79240   1.79774   1.80891
 Alpha virt. eigenvalues --    1.81672   1.83548   1.84503   1.85387   1.85603
 Alpha virt. eigenvalues --    1.87873   1.89190   1.89935   1.90872   1.91363
 Alpha virt. eigenvalues --    1.91759   1.92033   1.92774   1.93607   1.94198
 Alpha virt. eigenvalues --    1.94511   1.95065   1.96088   1.96874   1.97038
 Alpha virt. eigenvalues --    1.97862   1.99067   1.99291   1.99812   2.00282
 Alpha virt. eigenvalues --    2.01574   2.02486   2.03080   2.03844   2.04683
 Alpha virt. eigenvalues --    2.05093   2.05288   2.06483   2.08203   2.09078
 Alpha virt. eigenvalues --    2.10990   2.11778   2.12128   2.12526   2.13373
 Alpha virt. eigenvalues --    2.14616   2.15457   2.16795   2.18130   2.18660
 Alpha virt. eigenvalues --    2.19731   2.20608   2.21901   2.22927   2.23859
 Alpha virt. eigenvalues --    2.24731   2.25957   2.26644   2.27599   2.28119
 Alpha virt. eigenvalues --    2.29125   2.30470   2.32185   2.32505   2.33415
 Alpha virt. eigenvalues --    2.36153   2.36611   2.36696   2.38204   2.38300
 Alpha virt. eigenvalues --    2.38726   2.39294   2.41705   2.42963   2.43766
 Alpha virt. eigenvalues --    2.44167   2.45517   2.45845   2.47549   2.48399
 Alpha virt. eigenvalues --    2.49369   2.50855   2.51257   2.53343   2.53752
 Alpha virt. eigenvalues --    2.54932   2.55083   2.56940   2.57220   2.57740
 Alpha virt. eigenvalues --    2.58806   2.59613   2.60624   2.61387   2.62890
 Alpha virt. eigenvalues --    2.63441   2.65294   2.66053   2.67511   2.69470
 Alpha virt. eigenvalues --    2.70052   2.70825   2.71501   2.72498   2.72897
 Alpha virt. eigenvalues --    2.74201   2.75093   2.75638   2.76697   2.77528
 Alpha virt. eigenvalues --    2.78044   2.80299   2.82223   2.82819   2.84442
 Alpha virt. eigenvalues --    2.87269   2.87603   2.88604   2.89503   2.91355
 Alpha virt. eigenvalues --    2.92039   2.94178   2.95141   2.96546   2.97696
 Alpha virt. eigenvalues --    2.98785   3.00698   3.02770   3.04338   3.07279
 Alpha virt. eigenvalues --    3.08918   3.12076   3.19203   3.20038   3.20759
 Alpha virt. eigenvalues --    3.24927   3.25639   3.26468   3.27212   3.29943
 Alpha virt. eigenvalues --    3.30427   3.30933   3.31596   3.35186   3.35764
 Alpha virt. eigenvalues --    3.38649   3.42949   3.46389   3.46547   3.47247
 Alpha virt. eigenvalues --    3.48572   3.48848   3.49955   3.50506   3.50936
 Alpha virt. eigenvalues --    3.53473   3.55022   3.56579   3.84038   3.85898
 Alpha virt. eigenvalues --    4.27387   4.32777   4.34032   4.36142   4.36797
 Alpha virt. eigenvalues --    4.39141   4.41384   4.44490   4.46665   4.48717
 Alpha virt. eigenvalues --    4.50455   4.52217   4.54829   4.55949   4.58298
 Alpha virt. eigenvalues --    4.60969   4.64612   4.67742   4.77431   4.79631
 Alpha virt. eigenvalues --    4.83256   4.88742   4.94099
          Condensed to atoms (all electrons):
               1          2          3          4          5          6
     1  C    6.212584  -0.648683  -0.125182  -0.276592  -0.000263  -0.044651
     2  C   -0.648683   9.307382  -0.614941  -0.519265  -0.176653  -0.223595
     3  C   -0.125182  -0.614941   5.715268   0.062368   0.053066  -0.025675
     4  C   -0.276592  -0.519265   0.062368   5.833209  -0.006350  -0.003333
     5  N   -0.000263  -0.176653   0.053066  -0.006350   7.151281   0.126566
     6  C   -0.044651  -0.223595  -0.025675  -0.003333   0.126566  12.901923
     7  C   -0.239475   0.236803  -0.025809   0.106080  -0.287543  -2.151759
     8  C   -0.006838  -0.373703   0.047681  -0.000420  -0.125833   1.853227
     9  C   -0.020766   0.099609  -0.020021   0.004110   0.114535  -0.224041
    10  C    0.000767  -0.023258   0.006197   0.000752  -0.028822  -0.168040
    11  C    0.017231  -0.100682  -0.022761  -0.023592   0.262931  -3.320639
    12  C   -0.032746  -0.287816   0.062182   0.045633  -0.212932  -2.110241
    13  N   -0.002633   0.081067  -0.040807  -0.009029   0.100461   0.086992
    14  C    0.233969  -0.199598   0.140083   0.009448  -0.413516   0.018994
    15  C   -0.095145  -0.141812   0.107458  -0.030702   0.348437   0.475255
    16  C   -0.039871   0.101388  -0.119923   0.018276  -0.203350   0.754709
    17  C    0.008189   0.042358  -0.027973  -0.017714   0.005595  -0.116546
    18  C   -0.002012  -0.086452   0.017237   0.066716   0.016434  -0.137068
    19  C   -0.010092   0.104936  -0.054876  -0.029260  -0.084164   0.302743
    20  C    0.009353  -0.202632   0.011979   0.173224  -0.071810  -1.048155
    21  C    0.066084   0.315549  -0.022100  -0.166872   0.322205  -1.034873
    22  C    0.006456   0.187104  -0.008107  -0.085884   0.098843  -0.217777
    23  N   -0.000056  -0.000820   0.000039  -0.000130  -0.000317  -0.000183
    24  H    0.499212  -0.111352  -0.000017  -0.021547  -0.020425   0.013962
    25  H    0.393952  -0.016477  -0.010196  -0.020598  -0.000192   0.003777
    26  H    0.463690  -0.111676   0.004620   0.003505  -0.001070  -0.002352
    27  H    0.006000  -0.157827   0.451733   0.005816  -0.004268   0.058983
    28  H    0.014919  -0.077817   0.437557  -0.015093   0.015262  -0.026648
    29  H   -0.024216  -0.129290   0.468190   0.016623   0.016173   0.000710
    30  H   -0.026856  -0.092236   0.000707   0.463196   0.009467  -0.006113
    31  H   -0.036903  -0.074200   0.013137   0.441877  -0.001569   0.020183
    32  H    0.019591  -0.089870  -0.017475   0.440916  -0.008926   0.004655
    33  H    0.008699  -0.016440   0.000986  -0.000961  -0.009826   0.106308
    34  H   -0.000135   0.000230  -0.000008  -0.000001   0.000579  -0.015874
    35  H   -0.000005   0.000033  -0.000003  -0.000002   0.000050  -0.000975
    36  H    0.000001   0.000009  -0.000004   0.000011  -0.000102   0.017702
    37  H    0.000221   0.001350   0.000516  -0.000342  -0.003164   0.041215
    38  H   -0.003260  -0.025436   0.002346   0.005357  -0.014619   0.000189
    39  H    0.000463  -0.016113   0.016200   0.000713   0.001077   0.005110
    40  H   -0.000002  -0.001217   0.000778   0.000766   0.000026  -0.001434
    41  H   -0.000005   0.000006  -0.000174   0.000107  -0.000010   0.000019
    42  H   -0.000043  -0.001422   0.000262   0.001062   0.000049   0.001221
    43  H    0.000076  -0.024220   0.004963   0.005142  -0.001045   0.002767
    44  H    0.000001   0.003318  -0.000146  -0.000336  -0.005751   0.105838
               7          8          9         10         11         12
     1  C   -0.239475  -0.006838  -0.020766   0.000767   0.017231  -0.032746
     2  C    0.236803  -0.373703   0.099609  -0.023258  -0.100682  -0.287816
     3  C   -0.025809   0.047681  -0.020021   0.006197  -0.022761   0.062182
     4  C    0.106080  -0.000420   0.004110   0.000752  -0.023592   0.045633
     5  N   -0.287543  -0.125833   0.114535  -0.028822   0.262931  -0.212932
     6  C   -2.151759   1.853227  -0.224041  -0.168040  -3.320639  -2.110241
     7  C   21.498094 -10.081508   1.636412  -1.505712   2.775856  -3.269961
     8  C  -10.081508  18.637844  -2.229071   0.697844   0.806206  -2.954139
     9  C    1.636412  -2.229071   6.665591   0.282168   0.373730  -0.634545
    10  C   -1.505712   0.697844   0.282168   5.908523  -0.571820   1.475538
    11  C    2.775856   0.806206   0.373730  -0.571820  24.625310 -17.891943
    12  C   -3.269961  -2.954139  -0.634545   1.475538 -17.891943  33.242351
    13  N    0.749673  -0.430015   0.181159  -0.036524   0.149589  -0.064678
    14  C   -6.012970   2.414705  -0.655791   0.049890  -2.043272  -0.532803
    15  C    1.552671  -0.332508   0.046206  -0.080667   1.053678  -2.154675
    16  C    0.047612   0.408115  -0.033018   0.022924  -0.658329  -0.226910
    17  C   -0.022742   0.030019  -0.000611  -0.005777   0.049250  -0.255993
    18  C   -0.051406  -0.055371   0.001901   0.001353   0.015041   0.153254
    19  C    0.261674  -0.114446   0.000854   0.024140  -0.262502   0.458055
    20  C   -0.984474  -0.865627  -0.005934   0.099970  -0.095627   3.149857
    21  C    0.418632  -0.829696   0.165988  -0.107170   0.803364  -0.935423
    22  C    0.244424  -0.255454   0.074365  -0.066798   0.103773  -0.426466
    23  N    0.001606   0.002346  -0.000262   0.000946   0.001512   0.000606
    24  H   -0.004247  -0.005445  -0.001408  -0.000048   0.000281   0.001462
    25  H   -0.000980  -0.000077   0.000013  -0.000002   0.000011   0.000054
    26  H   -0.002136   0.003342   0.001132   0.000023   0.000218  -0.001254
    27  H    0.019073  -0.003354  -0.000389   0.000114  -0.000244   0.015274
    28  H   -0.003717   0.000450  -0.000051   0.000009  -0.000157  -0.002928
    29  H    0.005910   0.003970   0.000633   0.000037  -0.000171   0.006365
    30  H   -0.002853   0.001026   0.000018   0.000003  -0.000066  -0.001199
    31  H    0.013086  -0.001082   0.001247  -0.000070   0.000115   0.000392
    32  H    0.003645   0.000109  -0.000263   0.000021  -0.000261  -0.000855
    33  H   -0.189018   0.437848  -0.079665   0.031624  -0.045185   0.039636
    34  H    0.019503   0.010779   0.296386  -0.001680   0.018629  -0.011192
    35  H   -0.011919   0.022210   0.039547   0.265706   0.023811  -0.027707
    36  H    0.041316  -0.014031  -0.008326  -0.002447   0.143460   0.133320
    37  H    0.014426   0.027003  -0.008454   0.001326  -0.141775   0.011566
    38  H    0.096862   0.026226  -0.000442   0.002374   0.030250   0.041183
    39  H    0.004545   0.000308  -0.000077   0.000149  -0.000304  -0.006194
    40  H   -0.000221  -0.000032  -0.000000  -0.000000   0.000070   0.000392
    41  H    0.000019  -0.000001  -0.000000  -0.000001  -0.000019   0.000108
    42  H    0.000089  -0.000177  -0.000010   0.000012   0.000027   0.000807
    43  H   -0.087740   0.062319  -0.007049   0.004319   0.005200  -0.016689
    44  H    0.046981  -0.000662   0.000528  -0.011274  -0.062150  -0.034365
              13         14         15         16         17         18
     1  C   -0.002633   0.233969  -0.095145  -0.039871   0.008189  -0.002012
     2  C    0.081067  -0.199598  -0.141812   0.101388   0.042358  -0.086452
     3  C   -0.040807   0.140083   0.107458  -0.119923  -0.027973   0.017237
     4  C   -0.009029   0.009448  -0.030702   0.018276  -0.017714   0.066716
     5  N    0.100461  -0.413516   0.348437  -0.203350   0.005595   0.016434
     6  C    0.086992   0.018994   0.475255   0.754709  -0.116546  -0.137068
     7  C    0.749673  -6.012970   1.552671   0.047612  -0.022742  -0.051406
     8  C   -0.430015   2.414705  -0.332508   0.408115   0.030019  -0.055371
     9  C    0.181159  -0.655791   0.046206  -0.033018  -0.000611   0.001901
    10  C   -0.036524   0.049890  -0.080667   0.022924  -0.005777   0.001353
    11  C    0.149589  -2.043272   1.053678  -0.658329   0.049250   0.015041
    12  C   -0.064678  -0.532803  -2.154675  -0.226910  -0.255993   0.153254
    13  N    7.915336  -1.823625   0.144825   0.048613  -0.070729   0.016046
    14  C   -1.823625  28.754904 -12.775793   3.305612  -1.436175   0.373754
    15  C    0.144825 -12.775793  36.971278  -8.692685   1.906906  -1.635123
    16  C    0.048613   3.305612  -8.692685  14.602295  -1.659308  -0.827136
    17  C   -0.070729  -1.436175   1.906906  -1.659308   7.860418   0.218905
    18  C    0.016046   0.373754  -1.635123  -0.827136   0.218905   7.775588
    19  C    0.073543   0.278241  -6.062075   5.496390  -1.165371  -0.895053
    20  C    0.095248  -0.308446  -5.604124  -4.113270  -0.087003   0.534387
    21  C    0.064011  -2.776373  -0.501777  -2.005894   0.531695   0.547015
    22  C   -0.065778  -0.801528   0.827408  -0.483344   0.096939  -0.026876
    23  N   -0.000583   0.006337   0.020594   0.002892   0.001222   0.031806
    24  H    0.000009   0.003539   0.002267  -0.000377   0.000059  -0.000023
    25  H   -0.000004  -0.002238   0.002588  -0.001170   0.000019  -0.000056
    26  H    0.000058  -0.006539   0.004904   0.000068   0.000180  -0.000045
    27  H    0.000715   0.054703  -0.047919  -0.031057  -0.049557  -0.004568
    28  H   -0.000072  -0.006394  -0.007963   0.017649   0.006562   0.000962
    29  H   -0.000696   0.006771  -0.019867  -0.001210  -0.002008   0.000321
    30  H   -0.000043   0.010342   0.006478  -0.003680   0.000322  -0.000551
    31  H    0.000425  -0.026178  -0.003037  -0.000225  -0.000020  -0.000405
    32  H    0.000290   0.015515  -0.019306   0.034059  -0.006814   0.011656
    33  H   -0.003201   0.032689  -0.007451  -0.000479  -0.000104   0.000028
    34  H    0.000159  -0.002963  -0.000054  -0.000002  -0.000001   0.000000
    35  H   -0.000564   0.000902  -0.000447  -0.000035  -0.000003   0.000001
    36  H   -0.014192   0.004761   0.001757   0.001070   0.000092  -0.000038
    37  H    0.222806   0.274329  -0.119435   0.016624  -0.002633  -0.001100
    38  H   -0.042494   0.344190  -0.225448   0.075460   0.015241   0.000913
    39  H   -0.002950  -0.014130  -0.040400   0.309046   0.040499   0.001557
    40  H   -0.000308  -0.012611   0.050776  -0.007456   0.260171  -0.004421
    41  H    0.000059  -0.001895  -0.005236   0.007834  -0.015974   0.264311
    42  H    0.000174   0.003104   0.018954  -0.000138   0.006474   0.091616
    43  H   -0.013509   0.175823   0.009353  -0.006384   0.001985  -0.003744
    44  H    0.020610  -0.012676   0.122045   0.004580   0.003745  -0.004513
              19         20         21         22         23         24
     1  C   -0.010092   0.009353   0.066084   0.006456  -0.000056   0.499212
     2  C    0.104936  -0.202632   0.315549   0.187104  -0.000820  -0.111352
     3  C   -0.054876   0.011979  -0.022100  -0.008107   0.000039  -0.000017
     4  C   -0.029260   0.173224  -0.166872  -0.085884  -0.000130  -0.021547
     5  N   -0.084164  -0.071810   0.322205   0.098843  -0.000317  -0.020425
     6  C    0.302743  -1.048155  -1.034873  -0.217777  -0.000183   0.013962
     7  C    0.261674  -0.984474   0.418632   0.244424   0.001606  -0.004247
     8  C   -0.114446  -0.865627  -0.829696  -0.255454   0.002346  -0.005445
     9  C    0.000854  -0.005934   0.165988   0.074365  -0.000262  -0.001408
    10  C    0.024140   0.099970  -0.107170  -0.066798   0.000946  -0.000048
    11  C   -0.262502  -0.095627   0.803364   0.103773   0.001512   0.000281
    12  C    0.458055   3.149857  -0.935423  -0.426466   0.000606   0.001462
    13  N    0.073543   0.095248   0.064011  -0.065778  -0.000583   0.000009
    14  C    0.278241  -0.308446  -2.776373  -0.801528   0.006337   0.003539
    15  C   -6.062075  -5.604124  -0.501777   0.827408   0.020594   0.002267
    16  C    5.496390  -4.113270  -2.005894  -0.483344   0.002892  -0.000377
    17  C   -1.165371  -0.087003   0.531695   0.096939   0.001222   0.000059
    18  C   -0.895053   0.534387   0.547015  -0.026876   0.031806  -0.000023
    19  C   17.760762  -9.212970   1.011599  -1.685503   0.085249  -0.000568
    20  C   -9.212970  26.988457  -2.401123  -0.459187  -0.089082   0.000397
    21  C    1.011599  -2.401123  14.103444  -2.193310   0.269683  -0.000017
    22  C   -1.685503  -0.459187  -2.193310  11.342757  -0.027031   0.000181
    23  N    0.085249  -0.089082   0.269683  -0.027031   7.210969  -0.000001
    24  H   -0.000568   0.000397  -0.000017   0.000181  -0.000001   0.540500
    25  H   -0.000107  -0.000435   0.000723   0.000003   0.000000  -0.029093
    26  H    0.000059  -0.001357   0.000304  -0.000025   0.000000  -0.024806
    27  H    0.002481   0.026929   0.001267  -0.000053  -0.000001  -0.000170
    28  H    0.001557  -0.004676  -0.000203  -0.000035  -0.000000   0.000198
    29  H    0.000786   0.004463   0.000492   0.000093  -0.000000   0.000013
    30  H   -0.004595  -0.004482  -0.000007  -0.000149   0.000001  -0.000017
    31  H   -0.016257   0.036803  -0.013626   0.001368   0.000054   0.002579
    32  H    0.032158  -0.034096  -0.027684  -0.010156   0.000095   0.000051
    33  H   -0.000267   0.003596  -0.003624  -0.000487   0.000003   0.000032
    34  H    0.000009   0.000331  -0.000370  -0.000125   0.000000  -0.000000
    35  H    0.000022   0.000247  -0.000204  -0.000053  -0.000000   0.000000
    36  H   -0.000606  -0.001903  -0.000985  -0.000054   0.000002  -0.000000
    37  H   -0.006052  -0.034383  -0.021745  -0.000829   0.000015  -0.000000
    38  H    0.004014  -0.024411  -0.058143  -0.003292  -0.000003   0.000001
    39  H   -0.012279  -0.006196   0.000432  -0.000531  -0.000001   0.000000
    40  H    0.004995   0.017860   0.003528  -0.000287   0.000004   0.000000
    41  H    0.026556   0.045565  -0.007319  -0.002340   0.000135  -0.000000
    42  H    0.299281  -0.035293  -0.068176  -0.013996   0.002699   0.000000
    43  H   -0.061375  -0.007258   0.342972  -0.080604   0.000993   0.000002
    44  H   -0.059089  -0.036256   0.251094  -0.014801  -0.003567   0.000000
              25         26         27         28         29         30
     1  C    0.393952   0.463690   0.006000   0.014919  -0.024216  -0.026856
     2  C   -0.016477  -0.111676  -0.157827  -0.077817  -0.129290  -0.092236
     3  C   -0.010196   0.004620   0.451733   0.437557   0.468190   0.000707
     4  C   -0.020598   0.003505   0.005816  -0.015093   0.016623   0.463196
     5  N   -0.000192  -0.001070  -0.004268   0.015262   0.016173   0.009467
     6  C    0.003777  -0.002352   0.058983  -0.026648   0.000710  -0.006113
     7  C   -0.000980  -0.002136   0.019073  -0.003717   0.005910  -0.002853
     8  C   -0.000077   0.003342  -0.003354   0.000450   0.003970   0.001026
     9  C    0.000013   0.001132  -0.000389  -0.000051   0.000633   0.000018
    10  C   -0.000002   0.000023   0.000114   0.000009   0.000037   0.000003
    11  C    0.000011   0.000218  -0.000244  -0.000157  -0.000171  -0.000066
    12  C    0.000054  -0.001254   0.015274  -0.002928   0.006365  -0.001199
    13  N   -0.000004   0.000058   0.000715  -0.000072  -0.000696  -0.000043
    14  C   -0.002238  -0.006539   0.054703  -0.006394   0.006771   0.010342
    15  C    0.002588   0.004904  -0.047919  -0.007963  -0.019867   0.006478
    16  C   -0.001170   0.000068  -0.031057   0.017649  -0.001210  -0.003680
    17  C    0.000019   0.000180  -0.049557   0.006562  -0.002008   0.000322
    18  C   -0.000056  -0.000045  -0.004568   0.000962   0.000321  -0.000551
    19  C   -0.000107   0.000059   0.002481   0.001557   0.000786  -0.004595
    20  C   -0.000435  -0.001357   0.026929  -0.004676   0.004463  -0.004482
    21  C    0.000723   0.000304   0.001267  -0.000203   0.000492  -0.000007
    22  C    0.000003  -0.000025  -0.000053  -0.000035   0.000093  -0.000149
    23  N    0.000000   0.000000  -0.000001  -0.000000  -0.000000   0.000001
    24  H   -0.029093  -0.024806  -0.000170   0.000198   0.000013  -0.000017
    25  H    0.571371  -0.030347   0.000012   0.000971   0.000068   0.001440
    26  H   -0.030347   0.547191   0.000046  -0.000098   0.002270   0.000138
    27  H    0.000012   0.000046   0.576360  -0.026908  -0.031460   0.000136
    28  H    0.000971  -0.000098  -0.026908   0.553978  -0.026981   0.001765
    29  H    0.000068   0.002270  -0.031460  -0.026981   0.552400   0.000071
    30  H    0.001440   0.000138   0.000136   0.001765   0.000071   0.557257
    31  H    0.000164   0.000039   0.000091   0.000046  -0.000147  -0.028001
    32  H    0.000047  -0.000166   0.002524   0.000245   0.000030  -0.027220
    33  H   -0.000001  -0.000006  -0.000000  -0.000000  -0.000001  -0.000000
    34  H    0.000000   0.000000  -0.000000  -0.000000   0.000000  -0.000000
    35  H   -0.000000   0.000000  -0.000000  -0.000000  -0.000000  -0.000000
    36  H   -0.000000  -0.000000   0.000000  -0.000000   0.000000  -0.000000
    37  H    0.000000  -0.000000  -0.000002  -0.000000   0.000000  -0.000000
    38  H   -0.000001  -0.000002  -0.001396   0.000098  -0.000390   0.000010
    39  H   -0.000000   0.000000   0.001686   0.000010   0.000020   0.000002
    40  H    0.000000  -0.000000  -0.000011   0.000000   0.000000   0.000000
    41  H    0.000000   0.000000  -0.000001  -0.000000   0.000000   0.000000
    42  H   -0.000000   0.000000   0.000000  -0.000000   0.000000   0.000001
    43  H   -0.000000   0.000000   0.000009  -0.000000  -0.000000   0.000012
    44  H   -0.000000  -0.000000  -0.000000   0.000000  -0.000000  -0.000000
              31         32         33         34         35         36
     1  C   -0.036903   0.019591   0.008699  -0.000135  -0.000005   0.000001
     2  C   -0.074200  -0.089870  -0.016440   0.000230   0.000033   0.000009
     3  C    0.013137  -0.017475   0.000986  -0.000008  -0.000003  -0.000004
     4  C    0.441877   0.440916  -0.000961  -0.000001  -0.000002   0.000011
     5  N   -0.001569  -0.008926  -0.009826   0.000579   0.000050  -0.000102
     6  C    0.020183   0.004655   0.106308  -0.015874  -0.000975   0.017702
     7  C    0.013086   0.003645  -0.189018   0.019503  -0.011919   0.041316
     8  C   -0.001082   0.000109   0.437848   0.010779   0.022210  -0.014031
     9  C    0.001247  -0.000263  -0.079665   0.296386   0.039547  -0.008326
    10  C   -0.000070   0.000021   0.031624  -0.001680   0.265706  -0.002447
    11  C    0.000115  -0.000261  -0.045185   0.018629   0.023811   0.143460
    12  C    0.000392  -0.000855   0.039636  -0.011192  -0.027707   0.133320
    13  N    0.000425   0.000290  -0.003201   0.000159  -0.000564  -0.014192
    14  C   -0.026178   0.015515   0.032689  -0.002963   0.000902   0.004761
    15  C   -0.003037  -0.019306  -0.007451  -0.000054  -0.000447   0.001757
    16  C   -0.000225   0.034059  -0.000479  -0.000002  -0.000035   0.001070
    17  C   -0.000020  -0.006814  -0.000104  -0.000001  -0.000003   0.000092
    18  C   -0.000405   0.011656   0.000028   0.000000   0.000001  -0.000038
    19  C   -0.016257   0.032158  -0.000267   0.000009   0.000022  -0.000606
    20  C    0.036803  -0.034096   0.003596   0.000331   0.000247  -0.001903
    21  C   -0.013626  -0.027684  -0.003624  -0.000370  -0.000204  -0.000985
    22  C    0.001368  -0.010156  -0.000487  -0.000125  -0.000053  -0.000054
    23  N    0.000054   0.000095   0.000003   0.000000  -0.000000   0.000002
    24  H    0.002579   0.000051   0.000032  -0.000000   0.000000  -0.000000
    25  H    0.000164   0.000047  -0.000001   0.000000  -0.000000  -0.000000
    26  H    0.000039  -0.000166  -0.000006   0.000000   0.000000  -0.000000
    27  H    0.000091   0.002524  -0.000000  -0.000000  -0.000000   0.000000
    28  H    0.000046   0.000245  -0.000000  -0.000000  -0.000000  -0.000000
    29  H   -0.000147   0.000030  -0.000001   0.000000  -0.000000   0.000000
    30  H   -0.028001  -0.027220  -0.000000  -0.000000  -0.000000  -0.000000
    31  H    0.547715  -0.028588  -0.000000   0.000000   0.000000   0.000000
    32  H   -0.028588   0.541202   0.000000  -0.000000  -0.000000  -0.000000
    33  H   -0.000000   0.000000   0.552758  -0.004569  -0.000153   0.000017
    34  H    0.000000  -0.000000  -0.004569   0.569712  -0.005388  -0.000148
    35  H    0.000000  -0.000000  -0.000153  -0.005388   0.572734  -0.005216
    36  H    0.000000  -0.000000   0.000017  -0.000148  -0.005216   0.581354
    37  H    0.000000  -0.000000   0.000005  -0.000000  -0.000001   0.002418
    38  H    0.000002   0.000036  -0.000004  -0.000000  -0.000000  -0.000001
    39  H    0.000000   0.000031   0.000000   0.000000   0.000000  -0.000000
    40  H    0.000000  -0.000003   0.000000   0.000000   0.000000  -0.000000
    41  H    0.000000  -0.000004   0.000000  -0.000000  -0.000000   0.000000
    42  H    0.000001   0.000018   0.000000   0.000000   0.000000  -0.000000
    43  H    0.000284  -0.000296  -0.000015   0.000000  -0.000000   0.000000
    44  H    0.000003   0.000018   0.000004  -0.000000  -0.000000   0.000015
              37         38         39         40         41         42
     1  C    0.000221  -0.003260   0.000463  -0.000002  -0.000005  -0.000043
     2  C    0.001350  -0.025436  -0.016113  -0.001217   0.000006  -0.001422
     3  C    0.000516   0.002346   0.016200   0.000778  -0.000174   0.000262
     4  C   -0.000342   0.005357   0.000713   0.000766   0.000107   0.001062
     5  N   -0.003164  -0.014619   0.001077   0.000026  -0.000010   0.000049
     6  C    0.041215   0.000189   0.005110  -0.001434   0.000019   0.001221
     7  C    0.014426   0.096862   0.004545  -0.000221   0.000019   0.000089
     8  C    0.027003   0.026226   0.000308  -0.000032  -0.000001  -0.000177
     9  C   -0.008454  -0.000442  -0.000077  -0.000000  -0.000000  -0.000010
    10  C    0.001326   0.002374   0.000149  -0.000000  -0.000001   0.000012
    11  C   -0.141775   0.030250  -0.000304   0.000070  -0.000019   0.000027
    12  C    0.011566   0.041183  -0.006194   0.000392   0.000108   0.000807
    13  N    0.222806  -0.042494  -0.002950  -0.000308   0.000059   0.000174
    14  C    0.274329   0.344190  -0.014130  -0.012611  -0.001895   0.003104
    15  C   -0.119435  -0.225448  -0.040400   0.050776  -0.005236   0.018954
    16  C    0.016624   0.075460   0.309046  -0.007456   0.007834  -0.000138
    17  C   -0.002633   0.015241   0.040499   0.260171  -0.015974   0.006474
    18  C   -0.001100   0.000913   0.001557  -0.004421   0.264311   0.091616
    19  C   -0.006052   0.004014  -0.012279   0.004995   0.026556   0.299281
    20  C   -0.034383  -0.024411  -0.006196   0.017860   0.045565  -0.035293
    21  C   -0.021745  -0.058143   0.000432   0.003528  -0.007319  -0.068176
    22  C   -0.000829  -0.003292  -0.000531  -0.000287  -0.002340  -0.013996
    23  N    0.000015  -0.000003  -0.000001   0.000004   0.000135   0.002699
    24  H   -0.000000   0.000001   0.000000   0.000000  -0.000000   0.000000
    25  H    0.000000  -0.000001  -0.000000   0.000000   0.000000  -0.000000
    26  H   -0.000000  -0.000002   0.000000  -0.000000   0.000000   0.000000
    27  H   -0.000002  -0.001396   0.001686  -0.000011  -0.000001   0.000000
    28  H   -0.000000   0.000098   0.000010   0.000000  -0.000000  -0.000000
    29  H    0.000000  -0.000390   0.000020   0.000000   0.000000   0.000000
    30  H   -0.000000   0.000010   0.000002   0.000000   0.000000   0.000001
    31  H    0.000000   0.000002   0.000000   0.000000   0.000000   0.000001
    32  H   -0.000000   0.000036   0.000031  -0.000003  -0.000004   0.000018
    33  H    0.000005  -0.000004   0.000000   0.000000   0.000000   0.000000
    34  H   -0.000000  -0.000000   0.000000   0.000000  -0.000000   0.000000
    35  H   -0.000001  -0.000000   0.000000   0.000000  -0.000000   0.000000
    36  H    0.002418  -0.000001  -0.000000  -0.000000   0.000000  -0.000000
    37  H    0.420812  -0.005354  -0.000024   0.000000  -0.000000   0.000000
    38  H   -0.005354   0.601353   0.007042  -0.000006  -0.000000   0.000002
    39  H   -0.000024   0.007042   0.603935  -0.005623  -0.000191   0.000016
    40  H    0.000000  -0.000006  -0.005623   0.568485  -0.004918  -0.000166
    41  H   -0.000000  -0.000000  -0.000191  -0.004918   0.564636  -0.005142
    42  H    0.000000   0.000002   0.000016  -0.000166  -0.005142   0.550316
    43  H    0.000004   0.000031   0.000001   0.000000   0.000002   0.000285
    44  H    0.000091   0.000050  -0.000000  -0.000000   0.000002   0.000261
              43         44
     1  C    0.000076   0.000001
     2  C   -0.024220   0.003318
     3  C    0.004963  -0.000146
     4  C    0.005142  -0.000336
     5  N   -0.001045  -0.005751
     6  C    0.002767   0.105838
     7  C   -0.087740   0.046981
     8  C    0.062319  -0.000662
     9  C   -0.007049   0.000528
    10  C    0.004319  -0.011274
    11  C    0.005200  -0.062150
    12  C   -0.016689  -0.034365
    13  N   -0.013509   0.020610
    14  C    0.175823  -0.012676
    15  C    0.009353   0.122045
    16  C   -0.006384   0.004580
    17  C    0.001985   0.003745
    18  C   -0.003744  -0.004513
    19  C   -0.061375  -0.059089
    20  C   -0.007258  -0.036256
    21  C    0.342972   0.251094
    22  C   -0.080604  -0.014801
    23  N    0.000993  -0.003567
    24  H    0.000002   0.000000
    25  H   -0.000000  -0.000000
    26  H    0.000000  -0.000000
    27  H    0.000009  -0.000000
    28  H   -0.000000   0.000000
    29  H   -0.000000  -0.000000
    30  H    0.000012  -0.000000
    31  H    0.000284   0.000003
    32  H   -0.000296   0.000018
    33  H   -0.000015   0.000004
    34  H    0.000000  -0.000000
    35  H   -0.000000  -0.000000
    36  H    0.000000   0.000015
    37  H    0.000004   0.000091
    38  H    0.000031   0.000050
    39  H    0.000001  -0.000000
    40  H    0.000000  -0.000000
    41  H    0.000002   0.000002
    42  H    0.000285   0.000261
    43  H    0.505764  -0.031479
    44  H   -0.031479   0.492467
 Mulliken charges:
               1
     1  C   -0.325029
     2  C    0.064361
     3  C   -0.489353
     4  C   -0.476885
     5  N    0.039483
     6  C   -0.023077
     7  C    1.141199
     8  C   -0.814086
     9  C   -0.055942
    10  C   -0.266617
    11  C   -0.018044
    12  C   -0.744380
    13  N   -0.329436
    14  C   -0.647090
    15  C    0.929814
    16  C   -0.159967
    17  C   -0.143791
    18  C   -0.404839
    19  C   -0.492595
    20  C    0.541542
    21  C   -0.043369
    22  C   -0.052854
    23  N   -0.517774
    24  H    0.154818
    25  H    0.136758
    26  H    0.150090
    27  H    0.135232
    28  H    0.147504
    29  H    0.150027
    30  H    0.145678
    31  H    0.150696
    32  H    0.165071
    33  H    0.147223
    34  H    0.126192
    35  H    0.127409
    36  H    0.120747
    37  H    0.310566
    38  H    0.151473
    39  H    0.112170
    40  H    0.130861
    41  H    0.133870
    42  H    0.147828
    43  H    0.219101
    44  H    0.225417
 Sum of Mulliken charges =  -0.00000
 Mulliken charges with hydrogens summed into heavy atoms:
               1
     1  C    0.116636
     2  C    0.064361
     3  C   -0.056590
     4  C   -0.015441
     5  N    0.039483
     6  C   -0.023077
     7  C    1.141199
     8  C   -0.666863
     9  C    0.070250
    10  C   -0.139208
    11  C    0.102704
    12  C   -0.744380
    13  N   -0.018871
    14  C   -0.495617
    15  C    0.929814
    16  C   -0.047798
    17  C   -0.012930
    18  C   -0.270969
    19  C   -0.344767
    20  C    0.541542
    21  C    0.401149
    22  C   -0.052854
    23  N   -0.517774
 Electronic spatial extent (au):  <R**2>=           6877.9451
 Charge=              0.0000 electrons
 Dipole moment (field-independent basis, Debye):
    X=              0.0845    Y=              2.0413    Z=             -5.1156  Tot=              5.5085
 Quadrupole moment (field-independent basis, Debye-Ang):
   XX=           -129.2025   YY=           -149.7443   ZZ=           -142.9507
   XY=              9.1128   XZ=             -5.8619   YZ=             13.7937
 Traceless Quadrupole moment (field-independent basis, Debye-Ang):
   XX=             11.4300   YY=             -9.1118   ZZ=             -2.3182
   XY=              9.1128   XZ=             -5.8619   YZ=             13.7937
 Octapole moment (field-independent basis, Debye-Ang**2):
  XXX=              4.6688  YYY=             60.8307  ZZZ=            -67.8486  XYY=            -18.9648
  XXY=            -18.6605  XXZ=             -9.4371  XZZ=            -16.0813  YZZ=             45.7269
  YYZ=            -55.6753  XYZ=              5.1514
 Hexadecapole moment (field-independent basis, Debye-Ang**3):
 XXXX=          -4501.7901 YYYY=          -3503.9845 ZZZZ=          -1661.6076 XXXY=             26.9470
 XXXZ=           -120.8597 YYYX=            132.4141 YYYZ=            205.2228 ZZZX=            -75.6680
 ZZZY=            193.1796 XXYY=          -1356.7027 XXZZ=          -1092.0710 YYZZ=           -981.2528
 XXYZ=             59.3778 YYXZ=            -25.9462 ZZXY=             91.4716
 N-N= 1.876303835567D+03 E-N=-5.926571939817D+03  KE= 9.300105871276D+02
 Unable to Open any file for archive entry.
 1\1\GINC-N1\SP\RB3LYP TD-FC\6-31+G(d,p)\C20H21N3\HPCMGAC13\25-Aug-2025
 \0\\# td=(50-50,nstates=3) b3lyp/6-31+g(d,p) geom=connectivity\\Title 
 Card Required\\0,1\C,0,0.049918,-4.085576,1.239578\C,0,-0.480893,-2.80
 1159,0.566\C,0,-1.002353,-3.169107,-0.837791\C,0,-1.610986,-2.217819,1
 .43975\N,0,0.668256,-1.881314,0.548206\C,0,0.892197,-0.844726,-0.15880
 2\C,0,2.196688,-0.153905,-0.098251\C,0,3.32759,-0.448322,0.665739\C,0,
 4.477156,0.324094,0.493524\C,0,4.485717,1.375689,-0.439227\C,0,3.35743
 ,1.685214,-1.202436\C,0,2.208138,0.908295,-1.014565\N,0,0.95412,1.0682
 61,-1.596641\C,0,0.073528,-0.073092,-1.263419\C,0,-1.33673,0.423731,-0
 .963587\C,0,-2.353608,0.09385,-1.869662\C,0,-3.664561,0.54551,-1.70361
 2\C,0,-3.973036,1.353796,-0.612322\C,0,-2.968164,1.709031,0.291555\C,0
 ,-1.652586,1.262078,0.131075\C,0,-0.562362,1.673246,1.115552\C,0,-0.99
 847,2.596191,2.165394\N,0,-1.330707,3.328602,3.003103\H,0,0.442315,-3.
 855331,2.234434\H,0,-0.745404,-4.832613,1.337635\H,0,0.863922,-4.51931
 5,0.649531\H,0,-1.520844,-2.340341,-1.321292\H,0,-1.716191,-3.996314,-
 0.760445\H,0,-0.178335,-3.498679,-1.48049\H,0,-2.399422,-2.965955,1.57
 7442\H,0,-1.225374,-1.947429,2.428097\H,0,-2.060407,-1.33235,0.985356\
 H,0,3.295751,-1.276677,1.366512\H,0,5.369464,0.11118,1.073645\H,0,5.38
 8438,1.966013,-0.569536\H,0,3.371074,2.507651,-1.911865\H,0,0.891338,1
 .438218,-2.535883\H,0,0.009093,-0.750479,-2.125564\H,0,-2.112101,-0.52
 995,-2.726779\H,0,-4.429902,0.2692,-2.422612\H,0,-4.985446,1.716181,-0
 .461859\H,0,-3.211592,2.348748,1.1341\H,0,-0.138038,0.790345,1.608681\
 H,0,0.262304,2.146931,0.571261\\Version=ES64L-G16RevC.02\State=1-A\HF=
 -939.0686535\RMSD=3.644e-09\PG=C01 [X(C20H21N3)]\\@
 The archive entry for this job was punched.


  ON THE CHOICE OF THE CORRECT LANGUAGE -
 I SPEAK SPANISH TO GOD, ITALIAN TO WOMEN,
 FRENCH TO MEN, AND GERMAN TO MY HORSE.
          -- CHARLES V
 Job cpu time:       0 days  5 hours 30 minutes 31.0 seconds.
 Elapsed time:       0 days  0 hours 21 minutes  7.1 seconds.
 File lengths (MBytes):  RWF=   1525 Int=      0 D2E=      0 Chk=     75 Scr=      2
 Normal termination of Gaussian 16 at Mon Aug 25 14:40:03 2025.
