 Entering Gaussian System, Link 0=g16
 Input=M888enew.gjf
 Output=M888enew.log
 Initial command:
 /hpc/softwares/Gaussian/g16/l1.exe "/hpc/home/hpcmgac13/pbs.13856.admin1.x8z/Gau-3536494.inp" -scrdir="/hpc/home/hpcmgac13/pbs.13856.admin1.x8z/"
 Default linda workers: n2
 Default is to use   8 SMP processors on each worker.
 Entering Link 1 = /hpc/softwares/Gaussian/g16/l1.exe PID=   3536495.
  
 Copyright (c) 1988-2021, Gaussian, Inc.  All Rights Reserved.
  
 This is part of the Gaussian(R) 16 program.  It is based on
 the Gaussian(R) 09 system (copyright 2009, Gaussian, Inc.),
 the Gaussian(R) 03 system (copyright 2003, Gaussian, Inc.),
 the Gaussian(R) 98 system (copyright 1998, Gaussian, Inc.),
 the Gaussian(R) 94 system (copyright 1995, Gaussian, Inc.),
 the Gaussian 92(TM) system (copyright 1992, Gaussian, Inc.),
 the Gaussian 90(TM) system (copyright 1990, Gaussian, Inc.),
 the Gaussian 88(TM) system (copyright 1988, Gaussian, Inc.),
 the Gaussian 86(TM) system (copyright 1986, Carnegie Mellon
 University), and the Gaussian 82(TM) system (copyright 1983,
 Carnegie Mellon University). Gaussian is a federally registered
 trademark of Gaussian, Inc.
  
 This software contains proprietary and confidential information,
 including trade secrets, belonging to Gaussian, Inc.
  
 This software is provided under written license and may be
 used, copied, transmitted, or stored only in accord with that
 written license.
  
 The following legend is applicable only to US Government
 contracts under FAR:
  
                    RESTRICTED RIGHTS LEGEND
  
 Use, reproduction and disclosure by the US Government is
 subject to restrictions as set forth in subparagraphs (a)
 and (c) of the Commercial Computer Software - Restricted
 Rights clause in FAR 52.227-19.
  
 Gaussian, Inc.
 340 Quinnipiac St., Bldg. 40, Wallingford CT 06492
  
  
 ---------------------------------------------------------------
 Warning -- This program may not be used in any manner that
 competes with the business of Gaussian, Inc. or will provide
 assistance to any competitor of Gaussian, Inc.  The licensee
 of this program is prohibited from giving any competitor of
 Gaussian, Inc. access to this program.  By using this program,
 the user acknowledges that Gaussian, Inc. is engaged in the
 business of creating and licensing software in the field of
 computational chemistry and represents and warrants to the
 licensee that it is not a competitor of Gaussian, Inc. and that
 it will not use this program in any manner prohibited above.
 ---------------------------------------------------------------
  

 Cite this work as:
 Gaussian 16, Revision C.02,
 M. J. Frisch, G. W. Trucks, H. B. Schlegel, G. E. Scuseria, 
 M. A. Robb, J. R. Cheeseman, G. Scalmani, V. Barone, 
 G. A. Petersson, H. Nakatsuji, X. Li, M. Caricato, A. V. Marenich, 
 J. Bloino, B. G. Janesko, R. Gomperts, B. Mennucci, H. P. Hratchian, 
 J. V. Ortiz, A. F. Izmaylov, J. L. Sonnenberg, D. Williams-Young, 
 F. Ding, F. Lipparini, F. Egidi, J. Goings, B. Peng, A. Petrone, 
 T. Henderson, D. Ranasinghe, V. G. Zakrzewski, J. Gao, N. Rega, 
 G. Zheng, W. Liang, M. Hada, M. Ehara, K. Toyota, R. Fukuda, 
 J. Hasegawa, M. Ishida, T. Nakajima, Y. Honda, O. Kitao, H. Nakai, 
 T. Vreven, K. Throssell, J. A. Montgomery, Jr., J. E. Peralta, 
 F. Ogliaro, M. J. Bearpark, J. J. Heyd, E. N. Brothers, K. N. Kudin, 
 V. N. Staroverov, T. A. Keith, R. Kobayashi, J. Normand, 
 K. Raghavachari, A. P. Rendell, J. C. Burant, S. S. Iyengar, 
 J. Tomasi, M. Cossi, J. M. Millam, M. Klene, C. Adamo, R. Cammi, 
 J. W. Ochterski, R. L. Martin, K. Morokuma, O. Farkas, 
 J. B. Foresman, and D. J. Fox, Gaussian, Inc., Wallingford CT, 2019.
 
 ******************************************
 Gaussian 16:  ES64L-G16RevC.02  7-Dec-2021
                 4-Sep-2025 
 ******************************************
 SetLPE:    new flags="-opt 'Tsnet.Node.lindarsharg: ssh'  -nodelist 'n2.head.cm.mguif.local' -env GAUSS_MDEF=2147483648 -env GAUSS_EXEDIR="/hpc/softwares/Gaussian/g16/bsd:/hpc/softwares/Gaussian/g16""
 Will use up to    1 processors via Linda.
 ----------------------------------------------------------
 # td=(50-50,nstates=3) b3lyp/6-31+g(d,p) geom=connectivity
 ----------------------------------------------------------
 1/38=1,57=2,172=1/1;
 2/12=2,17=6,18=5,40=1/2;
 3/5=1,6=6,7=111,11=9,25=1,30=1,74=-5/1,2,3,8;
 4//1;
 5/5=2,38=5/2;
 8/6=1,10=2,108=3/1;
 9/41=3,42=1,48=2,70=2/14;
 6/7=2,8=2,9=2,10=2/1;
 99/5=1,9=1/99;
 -------------------
 Title Card Required
 -------------------
 Symbolic Z-matrix:
 Charge =  0 Multiplicity = 1
 C                     6.42537   0.00844   0.65735 
 N                     5.03229  -0.03519   0.22944 
 C                     4.56302  -1.13767  -0.46691 
 C                     3.36017  -1.16024  -1.08409 
 C                     2.37281  -0.0102   -0.947 
 C                     1.34897  -0.61908   0.02258 
 C                     0.09507  -0.95415  -0.48992 
 C                    -1.18318  -1.65068  -0.08726 
 O                    -1.49506  -2.65595   0.51179 
 C                    -1.95857  -0.40352  -0.51663 
 C                    -3.28776   0.0276   -0.31513 
 C                    -3.83038   1.29039  -0.55657 
 C                    -5.2003    1.37616  -0.22035 
 C                    -5.70773   0.18638   0.2573 
 S                    -4.51819  -1.06163   0.32436 
 C                    -0.7205    0.23835  -0.71815 
 C                    -0.31054   1.45057   0.09662 
 O                    -0.76288   2.58066  -0.03727 
 C                     0.50299   1.04763   1.32137 
 C                     1.21843  -0.11012   1.40224 
 C                     3.11611   1.22572  -0.50391 
 C                     4.3288    1.16128   0.07492 
 H                     6.72771  -0.97861   1.01465 
 H                     7.10051   0.31232  -0.15556 
 H                     6.53197   0.71445   1.48463 
 H                     5.24185  -1.98322  -0.512 
 H                     3.05692  -2.04479  -1.63156 
 H                     1.85074   0.15497  -1.90166 
 H                    -3.23685   2.10446  -0.95575 
 H                    -5.7969    2.27364  -0.33475 
 H                    -6.72366  -0.02246   0.56535 
 H                     0.42657   1.74998   2.1491 
 H                     1.66438  -0.4882    2.31903 
 H                     2.64577   2.1951   -0.62826 
 H                     4.84286   2.04601   0.43587 
 
                          Input orientation:                          
 ---------------------------------------------------------------------
 Center     Atomic      Atomic             Coordinates (Angstroms)
 Number     Number       Type             X           Y           Z
 ---------------------------------------------------------------------
      1          6           0        6.425370    0.008440    0.657348
      2          7           0        5.032294   -0.035193    0.229441
      3          6           0        4.563017   -1.137674   -0.466914
      4          6           0        3.360174   -1.160236   -1.084091
      5          6           0        2.372807   -0.010195   -0.946995
      6          6           0        1.348971   -0.619079    0.022577
      7          6           0        0.095070   -0.954149   -0.489917
      8          6           0       -1.183182   -1.650683   -0.087259
      9          8           0       -1.495060   -2.655953    0.511789
     10          6           0       -1.958568   -0.403520   -0.516625
     11          6           0       -3.287761    0.027598   -0.315131
     12          6           0       -3.830384    1.290392   -0.556566
     13          6           0       -5.200301    1.376162   -0.220345
     14          6           0       -5.707731    0.186375    0.257298
     15         16           0       -4.518194   -1.061629    0.324361
     16          6           0       -0.720499    0.238349   -0.718147
     17          6           0       -0.310541    1.450569    0.096624
     18          8           0       -0.762880    2.580663   -0.037266
     19          6           0        0.502994    1.047627    1.321367
     20          6           0        1.218434   -0.110121    1.402242
     21          6           0        3.116113    1.225719   -0.503909
     22          6           0        4.328801    1.161275    0.074920
     23          1           0        6.727715   -0.978608    1.014648
     24          1           0        7.100512    0.312316   -0.155561
     25          1           0        6.531973    0.714445    1.484626
     26          1           0        5.241848   -1.983216   -0.511996
     27          1           0        3.056918   -2.044788   -1.631562
     28          1           0        1.850742    0.154972   -1.901664
     29          1           0       -3.236850    2.104461   -0.955751
     30          1           0       -5.796901    2.273641   -0.334746
     31          1           0       -6.723663   -0.022463    0.565347
     32          1           0        0.426574    1.749983    2.149098
     33          1           0        1.664375   -0.488203    2.319034
     34          1           0        2.645774    2.195100   -0.628258
     35          1           0        4.842860    2.046010    0.435870
 ---------------------------------------------------------------------
                    Distance matrix (angstroms):
                    1          2          3          4          5
     1  C    0.000000
     2  N    1.457967   0.000000
     3  C    2.458841   1.385856   0.000000
     4  C    3.714006   2.405634   1.352127   0.000000
     5  C    4.358616   2.908178   2.509722   1.521934   0.000000
     6  C    5.154274   3.735048   3.292208   2.358496   1.535920
     7  C    6.505036   5.073277   4.471774   3.325119   2.507600
     8  C    7.822863   6.429794   5.781533   4.677210   4.009415
     9  O    8.357834   7.039492   6.321655   5.325157   4.908002
    10  C    8.475750   7.040201   6.562966   5.402190   4.370438
    11  C    9.761711   8.338094   7.938237   6.796859   5.695850
    12  C   10.406607   8.995668   8.738004   7.614984   6.350082
    13  C   11.738707  10.339257  10.084768   8.970011   7.733173
    14  C   12.140998  10.742346  10.381033   9.264966   8.172151
    15  S   11.000796   9.605957   9.115936   8.003883   7.085743
    16  C    7.280679   5.836726   5.465537   4.329186   3.111702
    17  C    6.911342   5.547163   5.546904   4.656666   3.228518
    18  O    7.666144   6.363794   6.509670   5.664781   4.168055
    19  C    6.049411   4.783237   4.945430   4.338705   3.124205
    20  C    5.261284   3.990815   3.966843   3.445525   2.619442
    21  C    3.712340   2.408205   2.771376   2.467581   1.508745
    22  C    2.462489   1.396537   2.373522   2.769649   2.498513
    23  H    1.092401   2.093092   2.627974   3.972156   4.873509
    24  H    1.099536   2.132256   2.939097   4.125616   4.804329
    25  H    1.092793   2.094393   3.334013   4.491441   4.872017
    26  H    2.595146   2.094859   1.085258   2.131968   3.509050
    27  H    4.560847   3.376968   2.108932   1.083569   2.253044
    28  H    5.243781   3.834064   3.329546   2.162541   1.100557
    29  H   10.017679   8.623314   8.460988   7.361755   5.995006
    30  H   12.469936  11.086951  10.907907   9.808417   8.504992
    31  H   13.149391  11.760762  11.388521  10.280999   9.221339
    32  H    6.422137   5.299490   5.682626   5.246799   4.058552
    33  H    5.067043   3.989298   4.072523   3.861169   3.375991
    34  H    4.551880   3.377178   3.848277   3.460698   2.244868
    35  H    2.589417   2.099977   3.321020   3.845602   3.498779
                    6          7          8          9         10
     6  C    0.000000
     7  C    1.395417   0.000000
     8  C    2.736434   1.510371   0.000000
     9  O    3.532237   2.535363   1.211071   0.000000
    10  C    3.358127   2.126343   1.530031   2.519113   0.000000
    11  C    4.693775   3.526744   2.701445   3.331519   1.411813
    12  C    5.550424   4.522344   3.984702   4.708371   2.524803
    13  C    6.850764   5.791716   5.031575   5.524743   3.709971
    14  C    7.106398   5.960841   4.895411   5.088240   3.873391
    15  S    5.891566   4.685809   3.411557   3.422914   2.773455
    16  C    2.359356   1.462632   2.044636   3.238776   1.409050
    17  C    2.653847   2.508230   3.226930   4.294062   2.555330
    18  O    3.834298   3.665497   4.252463   5.315985   3.250354
    19  C    2.276058   2.730249   3.479697   4.285340   3.397548
    20  C    1.476331   2.356819   3.218649   3.825862   3.723100
    21  C    2.608306   3.725416   5.189530   6.112441   5.329819
    22  C    3.471568   4.766397   6.189941   6.977065   6.506114
    23  H    5.481273   6.801198   8.015496   8.407163   8.838950
    24  H    5.829190   7.126847   8.513379   9.118105   9.094488
    25  H    5.547917   6.936624   8.221209   8.760094   8.794552
    26  H    4.159463   5.248694   6.447634   6.847382   7.371665
    27  H    2.772346   3.356395   4.529750   5.068331   5.393695
    28  H    2.133924   2.511088   3.969528   4.992038   4.091588
    29  H    5.422596   4.546844   4.367257   5.277220   2.849001
    30  H    7.717447   6.719972   6.062011   6.597223   4.683276
    31  H    8.112827   6.962524   5.811534   5.854607   4.901224
    32  H    3.314417   3.792970   4.376887   5.077965   4.175231
    33  H    2.321707   3.251158   3.905149   4.236426   4.601505
    34  H    3.166210   4.054997   5.453772   6.479115   5.288218
    35  H    4.413703   5.692060   7.088892   7.891986   7.291561
                   11         12         13         14         15
    11  C    0.000000
    12  C    1.395485   0.000000
    13  C    2.342097   1.413179   0.000000
    14  C    2.491815   2.325008   1.378848   0.000000
    15  S    1.763329   2.604058   2.589363   1.725401   0.000000
    16  C    2.607235   3.286988   4.648769   5.081995   4.147198
    17  C    3.325391   3.583519   4.900588   5.545598   4.905848
    18  O    3.601441   3.368093   4.601635   5.501903   5.243992
    19  C    4.253047   4.729031   5.917126   6.359804   5.536724
    20  C    4.824327   5.593651   6.785424   7.026419   5.914059
    21  C    6.517725   6.946998   8.322607   8.917393   8.012530
    22  C    7.710342   8.184604   9.536097  10.085419   9.125396
    23  H   10.153350  10.912861  12.220790  12.512837  11.267380
    24  H   10.393399  10.981891  12.346901  12.815514  11.709500
    25  H   10.006901  10.577175  11.873965  12.312414  11.251971
    26  H    8.765635   9.644889  10.973102  11.188933   9.839067
    27  H    6.803141   7.727482   9.048541   9.239316   7.885085
    28  H    5.379361   5.947576   7.350874   7.860828   6.855556
    29  H    2.174016   1.083670   2.219545   3.354966   3.647555
    30  H    3.367622   2.209790   1.083738   2.171439   3.632291
    31  H    3.547276   3.369472   2.212260   1.081954   2.449905
    32  H    4.778632   5.064932   6.116839   6.607078   5.973739
    33  H    5.632808   6.451732   7.553018   7.684644   6.521633
    34  H    6.324789   6.539439   7.899237   8.637143   7.926929
    35  H    8.411004   8.762480  10.086843  10.714714   9.864035
                   16         17         18         19         20
    16  C    0.000000
    17  C    1.517035   0.000000
    18  O    2.439637   1.224602   0.000000
    19  C    2.512267   1.524532   2.408012   0.000000
    20  C    2.894295   2.545222   3.638421   1.363369   0.000000
    21  C    3.967416   3.486138   4.135241   3.192450   3.003176
    22  C    5.193860   4.648404   5.287009   4.025338   3.612840
    23  H    7.743349   7.502047   8.359662   6.553385   5.590767
    24  H    7.841568   7.502195   8.184884   6.800680   6.099512
    25  H    7.594552   7.020572   7.682044   6.040385   5.377768
    26  H    6.366116   6.556700   7.557190   5.916415   4.833286
    27  H    4.507319   5.152080   6.207047   4.980497   4.040659
    28  H    2.831774   3.216033   4.023801   3.605716   3.374297
    29  H    3.141791   3.177790   2.681587   4.504287   5.505821
    30  H    5.482633   5.564501   5.052141   6.628310   7.610149
    31  H    6.144376   6.596792   6.532254   7.344469   7.986550
    32  H    3.438300   2.201281   2.623932   1.088247   2.155185
    33  H    3.929373   3.549399   4.567456   2.168621   1.087344
    34  H    3.894708   3.133621   3.480927   3.115965   3.387370
    35  H    5.962412   5.198767   5.651020   4.540409   4.326574
                   21         22         23         24         25
    21  C    0.000000
    22  C    1.345291   0.000000
    23  H    4.495413   3.349175   0.000000
    24  H    4.102571   2.907961   1.781811   0.000000
    25  H    3.985445   2.653468   1.767943   1.781897   0.000000
    26  H    3.849166   3.326552   2.355351   2.975087   3.595594
    27  H    3.459960   3.848195   4.649077   4.907664   5.422177
    28  H    2.168267   3.325704   5.794372   5.534774   5.804644
    29  H    6.429346   7.693566  10.615100  10.522031  10.164521
    30  H    8.976000  10.194853  13.010150  13.046922  12.559552
    31  H    9.976094  11.126487  13.492800  13.847007  13.307892
    32  H    3.814042   4.458270   6.959638   7.205539   6.228142
    33  H    3.607503   3.854347   5.251603   6.026279   5.082923
    34  H    1.084611   2.096624   5.425293   4.859322   4.664672
    35  H    2.130192   1.085033   3.610537   2.907315   2.392918
                   26         27         28         29         30
    26  H    0.000000
    27  H    2.455838   0.000000
    28  H    4.242950   2.523244   0.000000
    29  H    9.423075   7.568653   5.529815   0.000000
    30  H   11.832423   9.935828   8.088908   2.639722   0.000000
    31  H   12.172866  10.226239   8.924015   4.358372   2.634606
    32  H    6.648689   5.967611   4.580501   4.815228   6.721260
    33  H    4.800844   4.468707   4.273488   6.439575   8.386952
    34  H    4.920512   4.376335   2.532935   5.892430   8.448141
    35  H    4.158402   4.919196   4.241799   8.198886  10.670060
                   31         32         33         34         35
    31  H    0.000000
    32  H    7.534967   0.000000
    33  H    8.582046   2.563300   0.000000
    34  H    9.701991   3.582832   4.104849   0.000000
    35  H   11.750736   4.746195   4.480101   2.445768   0.000000
 Stoichiometry    C18H13NO2S
 Framework group  C1[X(C18H13NO2S)]
 Deg. of freedom    99
 Full point group                 C1      NOp   1
 Largest Abelian subgroup         C1      NOp   1
 Largest concise Abelian subgroup C1      NOp   1
                         Standard orientation:                         
 ---------------------------------------------------------------------
 Center     Atomic      Atomic             Coordinates (Angstroms)
 Number     Number       Type             X           Y           Z
 ---------------------------------------------------------------------
      1          6           0        6.425370    0.008440    0.657348
      2          7           0        5.032294   -0.035193    0.229441
      3          6           0        4.563017   -1.137674   -0.466914
      4          6           0        3.360174   -1.160236   -1.084091
      5          6           0        2.372807   -0.010195   -0.946995
      6          6           0        1.348971   -0.619079    0.022577
      7          6           0        0.095070   -0.954149   -0.489917
      8          6           0       -1.183182   -1.650683   -0.087259
      9          8           0       -1.495060   -2.655953    0.511789
     10          6           0       -1.958568   -0.403520   -0.516625
     11          6           0       -3.287761    0.027598   -0.315131
     12          6           0       -3.830384    1.290392   -0.556566
     13          6           0       -5.200301    1.376162   -0.220345
     14          6           0       -5.707731    0.186375    0.257298
     15         16           0       -4.518194   -1.061629    0.324361
     16          6           0       -0.720499    0.238349   -0.718147
     17          6           0       -0.310541    1.450569    0.096624
     18          8           0       -0.762880    2.580663   -0.037266
     19          6           0        0.502994    1.047627    1.321367
     20          6           0        1.218434   -0.110121    1.402242
     21          6           0        3.116113    1.225719   -0.503909
     22          6           0        4.328801    1.161275    0.074920
     23          1           0        6.727715   -0.978608    1.014648
     24          1           0        7.100512    0.312316   -0.155561
     25          1           0        6.531973    0.714445    1.484626
     26          1           0        5.241848   -1.983216   -0.511996
     27          1           0        3.056918   -2.044788   -1.631562
     28          1           0        1.850742    0.154972   -1.901664
     29          1           0       -3.236850    2.104461   -0.955751
     30          1           0       -5.796901    2.273641   -0.334746
     31          1           0       -6.723663   -0.022463    0.565347
     32          1           0        0.426574    1.749983    2.149098
     33          1           0        1.664375   -0.488203    2.319034
     34          1           0        2.645774    2.195100   -0.628258
     35          1           0        4.842860    2.046010    0.435870
 ---------------------------------------------------------------------
 Rotational constants (GHZ):           0.8220976           0.1293370           0.1185294
 Standard basis: 6-31+G(d,p) (6D, 7F)
 There are   487 symmetry adapted cartesian basis functions of A   symmetry.
 There are   487 symmetry adapted basis functions of A   symmetry.
   487 basis functions,   819 primitive gaussians,   487 cartesian basis functions
    80 alpha electrons       80 beta electrons
       nuclear repulsion energy      1771.3652350036 Hartrees.
 NAtoms=   35 NActive=   35 NUniq=   35 SFac= 1.00D+00 NAtFMM=   60 NAOKFM=F Big=F
 Integral buffers will be    131072 words long.
 Regular integral format.
 Two-electron integral symmetry is turned on.
 One-electron integrals computed using PRISM.
 NBasis=   487 RedAO= T EigKep=  2.13D-06  NBF=   487
 NBsUse=   485 1.00D-06 EigRej=  8.27D-07 NBFU=   485
 ExpMin= 4.05D-02 ExpMax= 2.19D+04 ExpMxC= 3.30D+03 IAcc=3 IRadAn=         5 AccDes= 0.00D+00
 Harris functional with IExCor=  402 and IRadAn=       5 diagonalized for initial guess.
 HarFok:  IExCor=  402 AccDes= 0.00D+00 IRadAn=         5 IDoV= 1 UseB2=F ITyADJ=14
 ICtDFT=  3500011 ScaDFX=  1.000000  1.000000  1.000000  1.000000
 FoFCou: FMM=F IPFlag=           0 FMFlag=      100000 FMFlg1=           0
         NFxFlg=           0 DoJE=T BraDBF=F KetDBF=T FulRan=T
         wScrn=  0.000000 ICntrl=       500 IOpCl=  0 I1Cent=   200000004 NGrid=           0
         NMat0=    1 NMatS0=      1 NMatT0=    0 NMatD0=    1 NMtDS0=    0 NMtDT0=    0
 Petite list used in FoFCou.
 Requested convergence on RMS density matrix=1.00D-08 within 128 cycles.
 Requested convergence on MAX density matrix=1.00D-06.
 Requested convergence on             energy=1.00D-06.
 No special actions if energy rises.
 SCF Done:  E(RB3LYP) =  -1296.91261597     A.U. after   19 cycles
            NFock= 19  Conv=0.55D-08     -V/T= 2.0076
 DoSCS=F DFT=T ScalE2(SS,OS)=  1.000000  1.000000
 ExpMin= 4.05D-02 ExpMax= 2.19D+04 ExpMxC= 3.30D+03 IAcc=3 IRadAn=         5 AccDes= 0.00D+00
 HarFok:  IExCor=  205 AccDes= 0.00D+00 IRadAn=         5 IDoV=-2 UseB2=F ITyADJ=14
 ICtDFT= 12500011 ScaDFX=  1.000000  1.000000  1.000000  1.000000
 GSVD:  LWork=        -884 too small for GESVD, short by        3770 words or        3770 for optimal perf.
 Range of M.O.s used for correlation:    27   485
 NBasis=   487 NAE=    80 NBE=    80 NFC=    26 NFV=     0
 NROrb=    459 NOA=    54 NOB=    54 NVA=   405 NVB=   405

 **** Warning!!: The largest alpha MO coefficient is  0.12439047D+03


 **** Warning!!: The smallest alpha delta epsilon is  0.80577178D-01

 Orbital symmetries:
       Occupied  (A) (A) (A) (A) (A) (A) (A) (A) (A) (A) (A) (A)
                 (A) (A) (A) (A) (A) (A) (A) (A) (A) (A) (A) (A)
                 (A) (A) (A) (A) (A) (A) (A) (A) (A) (A) (A) (A)
                 (A) (A) (A) (A) (A) (A) (A) (A) (A) (A) (A) (A)
                 (A) (A) (A) (A) (A) (A) (A) (A) (A) (A) (A) (A)
                 (A) (A) (A) (A) (A) (A) (A) (A) (A) (A) (A) (A)
                 (A) (A) (A) (A) (A) (A) (A) (A)
       Virtual   (A) (A) (A) (A) (A) (A) (A) (A) (A) (A) (A) (A)
                 (A) (A) (A) (A) (A) (A) (A) (A) (A) (A) (A) (A)
                 (A) (A) (A) (A) (A) (A) (A) (A) (A) (A) (A) (A)
                 (A) (A) (A) (A) (A) (A) (A) (A) (A) (A) (A) (A)
                 (A) (A) (A) (A) (A) (A) (A) (A) (A) (A) (A) (A)
                 (A) (A) (A) (A) (A) (A) (A) (A) (A) (A) (A) (A)
                 (A) (A) (A) (A) (A) (A) (A) (A) (A) (A) (A) (A)
                 (A) (A) (A) (A) (A) (A) (A) (A) (A) (A) (A) (A)
                 (A) (A) (A) (A) (A) (A) (A) (A) (A) (A) (A) (A)
                 (A) (A) (A) (A) (A) (A) (A) (A) (A) (A) (A) (A)
                 (A) (A) (A) (A) (A) (A) (A) (A) (A) (A) (A) (A)
                 (A) (A) (A) (A) (A) (A) (A) (A) (A) (A) (A) (A)
                 (A) (A) (A) (A) (A) (A) (A) (A) (A) (A) (A) (A)
                 (A) (A) (A) (A) (A) (A) (A) (A) (A) (A) (A) (A)
                 (A) (A) (A) (A) (A) (A) (A) (A) (A) (A) (A) (A)
                 (A) (A) (A) (A) (A) (A) (A) (A) (A) (A) (A) (A)
                 (A) (A) (A) (A) (A) (A) (A) (A) (A) (A) (A) (A)
                 (A) (A) (A) (A) (A) (A) (A) (A) (A) (A) (A) (A)
                 (A) (A) (A) (A) (A) (A) (A) (A) (A) (A) (A) (A)
                 (A) (A) (A) (A) (A) (A) (A) (A) (A) (A) (A) (A)
                 (A) (A) (A) (A) (A) (A) (A) (A) (A) (A) (A) (A)
                 (A) (A) (A) (A) (A) (A) (A) (A) (A) (A) (A) (A)
                 (A) (A) (A) (A) (A) (A) (A) (A) (A) (A) (A) (A)
                 (A) (A) (A) (A) (A) (A) (A) (A) (A) (A) (A) (A)
                 (A) (A) (A) (A) (A) (A) (A) (A) (A) (A) (A) (A)
                 (A) (A) (A) (A) (A) (A) (A) (A) (A) (A) (A) (A)
                 (A) (A) (A) (A) (A) (A) (A) (A) (A) (A) (A) (A)
                 (A) (A) (A) (A) (A) (A) (A) (A) (A) (A) (A) (A)
                 (A) (A) (A) (A) (A) (A) (A) (A) (A) (A) (A) (A)
                 (A) (A) (A) (A) (A) (A) (A) (A) (A) (A) (A) (A)
                 (A) (A) (A) (A) (A) (A) (A) (A) (A) (A) (A) (A)
                 (A) (A) (A) (A) (A) (A) (A) (A) (A) (A) (A) (A)
                 (A) (A) (A) (A) (A) (A) (A) (A) (A) (A) (A) (A)
                 (A) (A) (A) (A) (A) (A) (A) (A) (A)
    24 initial guesses have been made.
 Convergence on wavefunction:    0.001000000000000
 Iteration     1 Dimension    24 NMult     0 NNew     24
 CISAX will form    24 AO SS matrices at one time.
 New state      1 was old state      4
 New state      3 was old state      1
 New state      4 was old state      8
 New state      5 was old state      6
 New state      6 was old state      7
 New state      7 was old state      5
 New state      8 was old state      3
 New state      9 was old state     10
 New state     10 was old state     12
 New state     11 was old state     14
 New state     12 was old state      9
 Vector   5 SDiff=4.52D+00 TDiff=3.44D+00 assumed to be triplet.
 Vector  11 SDiff=4.55D+00 TDiff=3.45D+00 assumed to be triplet.
 Iteration     2 Dimension    36 NMult    24 NNew     12
 New state      5 was old state      7
 Iteration     3 Dimension    48 NMult    36 NNew     12
 Iteration     4 Dimension    60 NMult    48 NNew     12
 Iteration     5 Dimension    72 NMult    60 NNew     12
 Iteration     6 Dimension    76 NMult    72 NNew      4
 Iteration     7 Dimension    80 NMult    76 NNew      4
 ***********************************************************************
 Excited states from <AA,BB:AA,BB> singles matrix:
 ***********************************************************************
 
 Ground to excited state transition densities written to RWF  633
 Ground to excited state transition electric dipole moments (Au):
       state          X           Y           Z        Dip. S.      Osc.
         1        -0.0000     -0.0000     -0.0000      0.0000     -0.0000
         2        -0.0000      0.0000     -0.0000      0.0000      0.0000
         3        -0.3095     -0.1955     -0.0055      0.1341      0.0047
         4         0.0000      0.0000     -0.0000      0.0000      0.0000
         5        -1.8004      0.0792     -0.1630      3.2743      0.1492
         6        -1.4619     -0.0267      0.1401      2.1575      0.1091
 Ground to excited state transition velocity dipole moments (Au):
       state          X           Y           Z        Dip. S.      Osc.
         1         0.0000      0.0000     -0.0000      0.0000     -0.0000
         2         0.0000     -0.0000      0.0000      0.0000      0.0000
         3         0.0164      0.0054      0.0043      0.0003      0.0041
         4        -0.0000      0.0000      0.0000      0.0000      0.0000
         5         0.1179     -0.0031      0.0118      0.0141      0.1371
         6         0.1082      0.0025     -0.0083      0.0118      0.1036
 Ground to excited state transition magnetic dipole moments (Au):
       state          X           Y           Z
         1         0.0000      0.0000     -0.0000
         2        -0.0000     -0.0000      0.0000
         3        -0.2752     -0.4319     -0.2760
         4        -0.0000     -0.0000     -0.0000
         5         0.2221     -0.1789      0.0473
         6        -0.2619     -0.1370      0.5253
 Ground to excited state transition velocity quadrupole moments (Au):
       state          XX          YY          ZZ          XY          XZ          YZ
         1         0.0000     -0.0000     -0.0000     -0.0000      0.0000      0.0000
         2        -0.0000     -0.0000     -0.0000      0.0000      0.0000     -0.0000
         3        -0.2947      0.0289      0.0078      0.0344     -0.0027     -0.0007
         4         0.0000      0.0000     -0.0000     -0.0000      0.0000     -0.0000
         5        -0.5026      0.0518      0.0083      0.0116     -0.0148     -0.0048
         6         0.4137     -0.0245      0.0082      0.0163     -0.0476     -0.0030
 <0|del|b> * <b|rxdel|0> + <0|del|b> * <b|delr+rdel|0>
 Rotatory Strengths (R) in cgs (10**-40 erg-esu-cm/Gauss)
       state          XX          YY          ZZ    R(velocity)    E-M Angle
         1        -0.0000     -0.0000     -0.0000     -0.0000       90.00
         2         0.0000     -0.0000     -0.0000      0.0000       90.00
         3       -22.6932    -39.5909    -46.4724    -36.2522      140.84
         4        -0.0000      0.0000     -0.0000      0.0000       90.00
         5         6.2196    134.7299    141.5176     94.1557       37.19
         6       -22.0447   -153.3438   -132.7542   -102.7142      120.34
 1/2[<0|r|b>*<b|rxdel|0> + (<0|rxdel|b>*<b|r|0>)*]
 Rotatory Strengths (R) in cgs (10**-40 erg-esu-cm/Gauss)
       state          XX          YY          ZZ     R(length)
         1         0.0000      0.0000     -0.0000      0.0000
         2        -0.0000      0.0000      0.0000      0.0000
         3       -60.2369    -59.7209     -1.0806    -40.3462
         4         0.0000      0.0000     -0.0000      0.0000
         5       282.8107     10.0173      5.4575     99.4285
         6      -270.7115     -2.5885    -52.0325   -108.4442
  1/2[<0|del|b>*<b|r|0> + (<0|r|b>*<b|del|0>)*] (Au)
       state          X           Y           Z        Dip. S.   Osc.(frdel)
         1        -0.0000     -0.0000      0.0000      0.0000      0.0000
         2        -0.0000     -0.0000     -0.0000      0.0000      0.0000
         3        -0.0051     -0.0011     -0.0000      0.0062      0.0041
         4        -0.0000      0.0000     -0.0000      0.0000      0.0000
         5        -0.2123     -0.0002     -0.0019      0.2145      0.1430
         6        -0.1582     -0.0001     -0.0012      0.1594      0.1063

 Excitation energies and oscillator strengths:
 
 Excited State   1:      Triplet-A      -0.7856 eV    -1578.12 nm  f=-0.0000  <S**2>=2.000
      80 -> 82         0.68905
      80 <- 82         0.13504
 This state for optimization and/or second-order correction.
 Total Energy, E(TD-HF/TD-DFT) =  -1296.94148783    
 Copying the excited state density for this state as the 1-particle RhoCI density.
 
 Excited State   2:      Triplet-A      0.7697 eV 1610.84 nm  f=0.0000  <S**2>=2.000
      80 -> 81         0.70801
      80 <- 81         0.15676
 
 Excited State   3:      Singlet-A      1.4229 eV  871.34 nm  f=0.0047  <S**2>=0.000
      80 -> 81         0.65206
      80 -> 82        -0.24811
 
 Excited State   4:      Triplet-A      1.6633 eV  745.43 nm  f=0.0000  <S**2>=2.000
      79 -> 81        -0.28937
      79 -> 82         0.63789
 
 Excited State   5:      Singlet-A      1.8601 eV  666.53 nm  f=0.1492  <S**2>=0.000
      79 -> 82        -0.14500
      80 -> 81         0.24210
      80 -> 82         0.63700
      80 <- 82        -0.12993
 
 Excited State   6:      Singlet-A      2.0636 eV  600.81 nm  f=0.1091  <S**2>=0.000
      79 -> 82         0.68600
      80 -> 82         0.14624
 SavETr:  write IOETrn=   770 NScale= 10 NData=  16 NLR=1 NState=    6 LETran=     118.

 **********************************************************************

            Population analysis using the SCF Density.

 **********************************************************************

 Orbital symmetries:
       Occupied  (A) (A) (A) (A) (A) (A) (A) (A) (A) (A) (A) (A)
                 (A) (A) (A) (A) (A) (A) (A) (A) (A) (A) (A) (A)
                 (A) (A) (A) (A) (A) (A) (A) (A) (A) (A) (A) (A)
                 (A) (A) (A) (A) (A) (A) (A) (A) (A) (A) (A) (A)
                 (A) (A) (A) (A) (A) (A) (A) (A) (A) (A) (A) (A)
                 (A) (A) (A) (A) (A) (A) (A) (A) (A) (A) (A) (A)
                 (A) (A) (A) (A) (A) (A) (A) (A)
       Virtual   (A) (A) (A) (A) (A) (A) (A) (A) (A) (A) (A) (A)
                 (A) (A) (A) (A) (A) (A) (A) (A) (A) (A) (A) (A)
                 (A) (A) (A) (A) (A) (A) (A) (A) (A) (A) (A) (A)
                 (A) (A) (A) (A) (A) (A) (A) (A) (A) (A) (A) (A)
                 (A) (A) (A) (A) (A) (A) (A) (A) (A) (A) (A) (A)
                 (A) (A) (A) (A) (A) (A) (A) (A) (A) (A) (A) (A)
                 (A) (A) (A) (A) (A) (A) (A) (A) (A) (A) (A) (A)
                 (A) (A) (A) (A) (A) (A) (A) (A) (A) (A) (A) (A)
                 (A) (A) (A) (A) (A) (A) (A) (A) (A) (A) (A) (A)
                 (A) (A) (A) (A) (A) (A) (A) (A) (A) (A) (A) (A)
                 (A) (A) (A) (A) (A) (A) (A) (A) (A) (A) (A) (A)
                 (A) (A) (A) (A) (A) (A) (A) (A) (A) (A) (A) (A)
                 (A) (A) (A) (A) (A) (A) (A) (A) (A) (A) (A) (A)
                 (A) (A) (A) (A) (A) (A) (A) (A) (A) (A) (A) (A)
                 (A) (A) (A) (A) (A) (A) (A) (A) (A) (A) (A) (A)
                 (A) (A) (A) (A) (A) (A) (A) (A) (A) (A) (A) (A)
                 (A) (A) (A) (A) (A) (A) (A) (A) (A) (A) (A) (A)
                 (A) (A) (A) (A) (A) (A) (A) (A) (A) (A) (A) (A)
                 (A) (A) (A) (A) (A) (A) (A) (A) (A) (A) (A) (A)
                 (A) (A) (A) (A) (A) (A) (A) (A) (A) (A) (A) (A)
                 (A) (A) (A) (A) (A) (A) (A) (A) (A) (A) (A) (A)
                 (A) (A) (A) (A) (A) (A) (A) (A) (A) (A) (A) (A)
                 (A) (A) (A) (A) (A) (A) (A) (A) (A) (A) (A) (A)
                 (A) (A) (A) (A) (A) (A) (A) (A) (A) (A) (A) (A)
                 (A) (A) (A) (A) (A) (A) (A) (A) (A) (A) (A) (A)
                 (A) (A) (A) (A) (A) (A) (A) (A) (A) (A) (A) (A)
                 (A) (A) (A) (A) (A) (A) (A) (A) (A) (A) (A) (A)
                 (A) (A) (A) (A) (A) (A) (A) (A) (A) (A) (A) (A)
                 (A) (A) (A) (A) (A) (A) (A) (A) (A) (A) (A) (A)
                 (A) (A) (A) (A) (A) (A) (A) (A) (A) (A) (A) (A)
                 (A) (A) (A) (A) (A) (A) (A) (A) (A) (A) (A) (A)
                 (A) (A) (A) (A) (A) (A) (A) (A) (A) (A) (A) (A)
                 (A) (A) (A) (A) (A) (A) (A) (A) (A) (A) (A) (A)
                 (A) (A) (A) (A) (A) (A) (A) (A) (A)
 The electronic state is 1-A.
 Alpha  occ. eigenvalues --  -88.92620 -19.16113 -19.15523 -14.39492 -10.29858
 Alpha  occ. eigenvalues --  -10.29545 -10.24520 -10.24187 -10.24148 -10.23942
 Alpha  occ. eigenvalues --  -10.23917 -10.23797 -10.23679 -10.23576 -10.23433
 Alpha  occ. eigenvalues --  -10.22135 -10.21965 -10.21275 -10.21227 -10.21064
 Alpha  occ. eigenvalues --  -10.20156 -10.19539  -7.98506  -5.94923  -5.94548
 Alpha  occ. eigenvalues --   -5.94230  -1.05558  -1.04960  -0.98680  -0.91947
 Alpha  occ. eigenvalues --   -0.89411  -0.85181  -0.81468  -0.77934  -0.76483
 Alpha  occ. eigenvalues --   -0.75096  -0.74929  -0.71345  -0.68602  -0.65671
 Alpha  occ. eigenvalues --   -0.64236  -0.63321  -0.60371  -0.57473  -0.54551
 Alpha  occ. eigenvalues --   -0.54068  -0.53190  -0.52051  -0.50695  -0.50006
 Alpha  occ. eigenvalues --   -0.48677  -0.47833  -0.47274  -0.46695  -0.46018
 Alpha  occ. eigenvalues --   -0.45025  -0.44891  -0.43985  -0.43372  -0.42452
 Alpha  occ. eigenvalues --   -0.42148  -0.41310  -0.40797  -0.39820  -0.39194
 Alpha  occ. eigenvalues --   -0.39006  -0.38108  -0.37568  -0.36625  -0.35767
 Alpha  occ. eigenvalues --   -0.35216  -0.31882  -0.29467  -0.28159  -0.27004
 Alpha  occ. eigenvalues --   -0.26845  -0.26559  -0.25374  -0.20601  -0.18739
 Alpha virt. eigenvalues --   -0.10682  -0.10481  -0.05277  -0.02253  -0.01006
 Alpha virt. eigenvalues --   -0.00967   0.00237   0.00792   0.01101   0.01337
 Alpha virt. eigenvalues --    0.01598   0.02085   0.02499   0.03094   0.03144
 Alpha virt. eigenvalues --    0.03505   0.03866   0.04232   0.04507   0.04794
 Alpha virt. eigenvalues --    0.05351   0.05507   0.05914   0.06460   0.06692
 Alpha virt. eigenvalues --    0.06841   0.07809   0.08245   0.08358   0.08530
 Alpha virt. eigenvalues --    0.08885   0.09365   0.09569   0.10139   0.10309
 Alpha virt. eigenvalues --    0.10970   0.11436   0.12066   0.12113   0.12493
 Alpha virt. eigenvalues --    0.13124   0.13412   0.13622   0.13921   0.13958
 Alpha virt. eigenvalues --    0.14448   0.14814   0.15162   0.15431   0.16038
 Alpha virt. eigenvalues --    0.16230   0.16635   0.16874   0.17264   0.17517
 Alpha virt. eigenvalues --    0.18045   0.18306   0.18605   0.18726   0.18909
 Alpha virt. eigenvalues --    0.19194   0.19498   0.19780   0.20151   0.20383
 Alpha virt. eigenvalues --    0.20629   0.20815   0.20993   0.21262   0.21692
 Alpha virt. eigenvalues --    0.21920   0.22290   0.22520   0.22914   0.23146
 Alpha virt. eigenvalues --    0.23379   0.23757   0.23860   0.24254   0.24668
 Alpha virt. eigenvalues --    0.24939   0.25207   0.25720   0.25784   0.26081
 Alpha virt. eigenvalues --    0.26430   0.26644   0.26871   0.27391   0.27498
 Alpha virt. eigenvalues --    0.28095   0.28585   0.29122   0.29288   0.29584
 Alpha virt. eigenvalues --    0.29792   0.30057   0.30256   0.30470   0.31354
 Alpha virt. eigenvalues --    0.32043   0.32575   0.32741   0.32999   0.33772
 Alpha virt. eigenvalues --    0.34313   0.34742   0.35253   0.35497   0.35770
 Alpha virt. eigenvalues --    0.36153   0.36565   0.36927   0.37688   0.38126
 Alpha virt. eigenvalues --    0.38948   0.39822   0.40192   0.40510   0.42078
 Alpha virt. eigenvalues --    0.42346   0.43400   0.44704   0.44826   0.45354
 Alpha virt. eigenvalues --    0.46584   0.47651   0.48607   0.50675   0.51421
 Alpha virt. eigenvalues --    0.51628   0.52454   0.53315   0.55475   0.58360
 Alpha virt. eigenvalues --    0.61913   0.64215   0.65035   0.65275   0.65530
 Alpha virt. eigenvalues --    0.65884   0.66861   0.67751   0.68507   0.69666
 Alpha virt. eigenvalues --    0.70191   0.71422   0.71592   0.71897   0.72306
 Alpha virt. eigenvalues --    0.73403   0.74054   0.74714   0.75330   0.75574
 Alpha virt. eigenvalues --    0.76408   0.77041   0.77399   0.77873   0.78489
 Alpha virt. eigenvalues --    0.79115   0.79701   0.81157   0.81279   0.82129
 Alpha virt. eigenvalues --    0.82817   0.84316   0.85217   0.85358   0.86691
 Alpha virt. eigenvalues --    0.87242   0.88181   0.88613   0.89207   0.89755
 Alpha virt. eigenvalues --    0.89947   0.90091   0.91613   0.92407   0.92802
 Alpha virt. eigenvalues --    0.93247   0.93487   0.94228   0.94592   0.95501
 Alpha virt. eigenvalues --    0.95751   0.96547   0.97376   0.97948   0.98689
 Alpha virt. eigenvalues --    0.99116   0.99792   1.00565   1.01011   1.02060
 Alpha virt. eigenvalues --    1.03609   1.05094   1.06595   1.06909   1.08384
 Alpha virt. eigenvalues --    1.09244   1.09782   1.11008   1.11974   1.13429
 Alpha virt. eigenvalues --    1.14369   1.15928   1.16055   1.17544   1.18871
 Alpha virt. eigenvalues --    1.19157   1.20777   1.21013   1.23567   1.23918
 Alpha virt. eigenvalues --    1.24934   1.25944   1.27452   1.28271   1.30181
 Alpha virt. eigenvalues --    1.30534   1.31107   1.33222   1.34219   1.34559
 Alpha virt. eigenvalues --    1.34910   1.35307   1.36012   1.36877   1.38401
 Alpha virt. eigenvalues --    1.39647   1.40363   1.40731   1.41696   1.42616
 Alpha virt. eigenvalues --    1.44472   1.45445   1.46565   1.47330   1.48408
 Alpha virt. eigenvalues --    1.50353   1.51029   1.53357   1.54451   1.55344
 Alpha virt. eigenvalues --    1.58018   1.59284   1.62408   1.64512   1.66621
 Alpha virt. eigenvalues --    1.67757   1.68483   1.70095   1.70676   1.71806
 Alpha virt. eigenvalues --    1.73088   1.74837   1.76239   1.77577   1.78357
 Alpha virt. eigenvalues --    1.79070   1.80236   1.80871   1.83092   1.86166
 Alpha virt. eigenvalues --    1.86972   1.88000   1.88995   1.89554   1.90278
 Alpha virt. eigenvalues --    1.91559   1.93059   1.93936   1.94371   1.95586
 Alpha virt. eigenvalues --    1.97005   1.97864   1.98320   1.99245   1.99459
 Alpha virt. eigenvalues --    2.00557   2.00614   2.01510   2.02490   2.03228
 Alpha virt. eigenvalues --    2.03502   2.04979   2.05926   2.06931   2.08638
 Alpha virt. eigenvalues --    2.09435   2.09796   2.10424   2.11516   2.13968
 Alpha virt. eigenvalues --    2.14897   2.15428   2.16239   2.17897   2.18969
 Alpha virt. eigenvalues --    2.20671   2.23043   2.23834   2.27087   2.29796
 Alpha virt. eigenvalues --    2.29865   2.32396   2.33487   2.34583   2.36315
 Alpha virt. eigenvalues --    2.36505   2.36587   2.39751   2.39999   2.40699
 Alpha virt. eigenvalues --    2.41945   2.42292   2.43898   2.45506   2.46055
 Alpha virt. eigenvalues --    2.46506   2.46900   2.47750   2.49938   2.50423
 Alpha virt. eigenvalues --    2.51449   2.53976   2.55244   2.56279   2.57312
 Alpha virt. eigenvalues --    2.57814   2.57940   2.58700   2.59829   2.61018
 Alpha virt. eigenvalues --    2.62203   2.62330   2.63263   2.64619   2.65437
 Alpha virt. eigenvalues --    2.67142   2.68194   2.68425   2.69439   2.69976
 Alpha virt. eigenvalues --    2.71760   2.74764   2.75168   2.76211   2.76801
 Alpha virt. eigenvalues --    2.81037   2.82910   2.86407   2.87290   2.88272
 Alpha virt. eigenvalues --    2.89527   2.91019   2.93114   2.94124   2.98956
 Alpha virt. eigenvalues --    3.01177   3.07039   3.12034   3.14097   3.18121
 Alpha virt. eigenvalues --    3.18724   3.22301   3.23340   3.24452   3.24937
 Alpha virt. eigenvalues --    3.27976   3.30398   3.30661   3.33466   3.35830
 Alpha virt. eigenvalues --    3.40162   3.42349   3.43886   3.45191   3.55644
 Alpha virt. eigenvalues --    3.61665   3.71810   3.76134   3.98019   4.23068
 Alpha virt. eigenvalues --    4.25846   4.29281   4.32472   4.36094   4.39456
 Alpha virt. eigenvalues --    4.40740   4.42792   4.46711   4.48466   4.52506
 Alpha virt. eigenvalues --    4.54858   4.55792   4.61792   4.66305   4.69572
 Alpha virt. eigenvalues --    4.74110   4.76914   4.82497   4.91979   5.01103
          Condensed to atoms (all electrons):
               1          2          3          4          5          6
     1  C    5.225040   0.106014  -0.163344   0.073075  -0.357736   0.076334
     2  N    0.106014   6.895168   0.349939  -0.149290  -0.213219   0.082573
     3  C   -0.163344   0.349939   6.964230  -0.322230  -0.692593   0.383973
     4  C    0.073075  -0.149290  -0.322230  10.679066  -2.853939   0.391668
     5  C   -0.357736  -0.213219  -0.692593  -2.853939  18.906221  -2.685486
     6  C    0.076334   0.082573   0.383973   0.391668  -2.685486  16.385383
     7  C   -0.000590  -0.037012   0.055972   1.846300  -2.235712  -4.977333
     8  C   -0.003085  -0.003366   0.000806   1.609912  -1.278217   1.252075
     9  O    0.000028   0.000099   0.000065  -0.008812   0.002971   0.089696
    10  C    0.001738   0.010133  -0.066019  -0.677773   0.155994   4.324910
    11  C    0.000217   0.000558   0.010089  -0.095481  -0.084298   0.860188
    12  C    0.000164   0.000333  -0.000633  -0.043217   0.000342  -0.122072
    13  C    0.000008   0.000003  -0.000044  -0.010156  -0.004173  -0.048825
    14  C    0.000001   0.000001   0.000035   0.001179  -0.003921  -0.017598
    15  S   -0.000033  -0.000072   0.000539   0.009387  -0.009535   0.140314
    16  C    0.004676   0.002042  -0.264545  -1.057998   0.760487  -4.836454
    17  C    0.004911  -0.002986   0.097087  -0.019773  -0.121624  -3.208578
    18  O    0.000029  -0.000033   0.001514   0.000056   0.011596   0.070863
    19  C   -0.009632   0.017557  -0.173227   0.441129   0.347944   2.844566
    20  C    0.016629   0.004957   0.451769  -2.060080  -0.503719  -5.140978
    21  C    0.104072  -0.079806  -0.575734  -1.205397  -2.035997  -0.465168
    22  C   -0.108307   0.306764  -0.463816  -0.668528  -1.215386   0.317501
    23  H    0.424069  -0.048987   0.003207  -0.010817  -0.008768   0.003206
    24  H    0.395469  -0.068778  -0.012210   0.024371   0.014495  -0.007611
    25  H    0.420031  -0.048118   0.005824  -0.013447  -0.008985   0.003425
    26  H   -0.025784  -0.090763   0.334246  -0.016453   0.103109  -0.010854
    27  H   -0.002318   0.008568   0.045609   0.273773  -0.020098   0.047769
    28  H    0.002389   0.007894   0.009643   0.021072  -0.169455   0.029383
    29  H   -0.000000  -0.000000   0.000003   0.000051  -0.000954   0.000360
    30  H   -0.000000  -0.000000  -0.000000   0.000001   0.000013  -0.000030
    31  H   -0.000000   0.000000  -0.000000  -0.000000   0.000004   0.000036
    32  H   -0.000105  -0.000298   0.000715   0.001456   0.024446  -0.013051
    33  H   -0.000874   0.000555  -0.010872   0.027779   0.074166   0.117255
    34  H   -0.000897   0.010614  -0.012299   0.036463   0.030516  -0.023717
    35  H   -0.027413  -0.087884   0.041436  -0.022251   0.114748  -0.021667
               7          8          9         10         11         12
     1  C   -0.000590  -0.003085   0.000028   0.001738   0.000217   0.000164
     2  N   -0.037012  -0.003366   0.000099   0.010133   0.000558   0.000333
     3  C    0.055972   0.000806   0.000065  -0.066019   0.010089  -0.000633
     4  C    1.846300   1.609912  -0.008812  -0.677773  -0.095481  -0.043217
     5  C   -2.235712  -1.278217   0.002971   0.155994  -0.084298   0.000342
     6  C   -4.977333   1.252075   0.089696   4.324910   0.860188  -0.122072
     7  C   18.740535  -5.308983   0.152604  -6.728481   0.175818   0.294354
     8  C   -5.308983  19.377301  -0.027988  -2.673540  -2.275911  -0.024999
     9  O    0.152604  -0.027988   8.300969  -0.039881   0.073903   0.001235
    10  C   -6.728481  -2.673540  -0.039881  14.719994   1.438671  -0.704467
    11  C    0.175818  -2.275911   0.073903   1.438671  10.067719  -2.353625
    12  C    0.294354  -0.024999   0.001235  -0.704467  -2.353625  11.694075
    13  C    0.152384  -0.464732   0.003928   0.106040   1.225880  -2.271767
    14  C    0.015513   0.097995   0.001959  -0.112901  -0.647956   0.734521
    15  S   -0.313336   0.003498  -0.028090   0.433045   0.717648  -1.335556
    16  C    2.180199  -0.396585  -0.064442  -3.235820  -2.528031  -0.406397
    17  C    2.875957   0.071495  -0.039869  -3.472954  -0.841736  -0.299566
    18  O   -0.099095   0.022304   0.000357   0.046110   0.025887  -0.031716
    19  C   -1.935042   0.569174   0.039580   1.445876   0.229711   0.070426
    20  C    1.863152  -3.455785  -0.016361  -0.619702   0.210097   0.151658
    21  C   -0.709787  -0.692035   0.007027   0.516046   0.061172   0.059933
    22  C    0.034763  -0.112383   0.000100   0.061411   0.004040   0.011615
    23  H    0.000577   0.000085  -0.000000  -0.000023  -0.000000  -0.000000
    24  H   -0.000612  -0.000041   0.000000   0.000012   0.000000   0.000000
    25  H    0.000077   0.000015   0.000000   0.000008   0.000000   0.000000
    26  H   -0.009073  -0.000397  -0.000001  -0.000061  -0.000002  -0.000000
    27  H   -0.009007   0.011507  -0.000022   0.001727   0.000020  -0.000013
    28  H    0.171667  -0.029159   0.000107  -0.040092   0.002848   0.001164
    29  H   -0.003920   0.019000  -0.000030   0.030044  -0.000269   0.299566
    30  H    0.000664  -0.001517   0.000001  -0.000631   0.020236  -0.025862
    31  H    0.001066  -0.000334   0.000007  -0.007709  -0.016086   0.045881
    32  H    0.022539   0.014676  -0.000230  -0.032075  -0.003389  -0.002143
    33  H   -0.005404   0.064348  -0.000645  -0.020113  -0.005283  -0.000522
    34  H   -0.004476  -0.000654   0.000000  -0.003645  -0.000307   0.000021
    35  H    0.001998   0.000230  -0.000000  -0.000492  -0.000013  -0.000010
              13         14         15         16         17         18
     1  C    0.000008   0.000001  -0.000033   0.004676   0.004911   0.000029
     2  N    0.000003   0.000001  -0.000072   0.002042  -0.002986  -0.000033
     3  C   -0.000044   0.000035   0.000539  -0.264545   0.097087   0.001514
     4  C   -0.010156   0.001179   0.009387  -1.057998  -0.019773   0.000056
     5  C   -0.004173  -0.003921  -0.009535   0.760487  -0.121624   0.011596
     6  C   -0.048825  -0.017598   0.140314  -4.836454  -3.208578   0.070863
     7  C    0.152384   0.015513  -0.313336   2.180199   2.875957  -0.099095
     8  C   -0.464732   0.097995   0.003498  -0.396585   0.071495   0.022304
     9  O    0.003928   0.001959  -0.028090  -0.064442  -0.039869   0.000357
    10  C    0.106040  -0.112901   0.433045  -3.235820  -3.472954   0.046110
    11  C    1.225880  -0.647956   0.717648  -2.528031  -0.841736   0.025887
    12  C   -2.271767   0.734521  -1.335556  -0.406397  -0.299566  -0.031716
    13  C    7.584119  -0.005906   0.376855  -0.456039  -0.073037  -0.009061
    14  C   -0.005906   5.677554   0.009253   0.028076   0.005417  -0.004307
    15  S    0.376855   0.009253  16.036128  -0.100470  -0.055399   0.007489
    16  C   -0.456039   0.028076  -0.100470  15.174468   0.526217  -0.368001
    17  C   -0.073037   0.005417  -0.055399   0.526217  11.087752   0.823686
    18  O   -0.009061  -0.004307   0.007489  -0.368001   0.823686   8.171344
    19  C   -0.085763   0.009073   0.036745  -1.274987  -3.112744  -0.203338
    20  C    0.053180   0.008717  -0.073614   0.520034   2.854025  -0.022081
    21  C    0.015495   0.000116  -0.009810   0.937394  -0.027027  -0.025824
    22  C    0.002166   0.000066  -0.001154   0.642370  -0.394525   0.001019
    23  H   -0.000000   0.000000   0.000000  -0.000179   0.000086  -0.000000
    24  H    0.000000  -0.000000  -0.000000   0.000146  -0.000080   0.000000
    25  H    0.000000   0.000000  -0.000000   0.000016   0.000094  -0.000000
    26  H    0.000000  -0.000000   0.000000   0.000799   0.000571  -0.000000
    27  H   -0.000001  -0.000000   0.000003  -0.016842   0.005805  -0.000006
    28  H    0.000012   0.000041  -0.000225   0.044840   0.024145  -0.000965
    29  H   -0.049898  -0.006331   0.015261  -0.015800   0.027631  -0.002398
    30  H    0.306995  -0.011269   0.018898   0.004205  -0.000748   0.000045
    31  H   -0.035936   0.342991  -0.003484   0.000192  -0.000162   0.000002
    32  H   -0.000372   0.000033   0.000011   0.019832   0.018445  -0.004220
    33  H   -0.000096  -0.000033   0.000015   0.004825  -0.022015  -0.000318
    34  H    0.000003   0.000000   0.000002   0.015521  -0.017320   0.000752
    35  H   -0.000000  -0.000000   0.000001  -0.004768   0.003998  -0.000003
              19         20         21         22         23         24
     1  C   -0.009632   0.016629   0.104072  -0.108307   0.424069   0.395469
     2  N    0.017557   0.004957  -0.079806   0.306764  -0.048987  -0.068778
     3  C   -0.173227   0.451769  -0.575734  -0.463816   0.003207  -0.012210
     4  C    0.441129  -2.060080  -1.205397  -0.668528  -0.010817   0.024371
     5  C    0.347944  -0.503719  -2.035997  -1.215386  -0.008768   0.014495
     6  C    2.844566  -5.140978  -0.465168   0.317501   0.003206  -0.007611
     7  C   -1.935042   1.863152  -0.709787   0.034763   0.000577  -0.000612
     8  C    0.569174  -3.455785  -0.692035  -0.112383   0.000085  -0.000041
     9  O    0.039580  -0.016361   0.007027   0.000100  -0.000000   0.000000
    10  C    1.445876  -0.619702   0.516046   0.061411  -0.000023   0.000012
    11  C    0.229711   0.210097   0.061172   0.004040  -0.000000   0.000000
    12  C    0.070426   0.151658   0.059933   0.011615  -0.000000   0.000000
    13  C   -0.085763   0.053180   0.015495   0.002166  -0.000000   0.000000
    14  C    0.009073   0.008717   0.000116   0.000066   0.000000  -0.000000
    15  S    0.036745  -0.073614  -0.009810  -0.001154   0.000000  -0.000000
    16  C   -1.274987   0.520034   0.937394   0.642370  -0.000179   0.000146
    17  C   -3.112744   2.854025  -0.027027  -0.394525   0.000086  -0.000080
    18  O   -0.203338  -0.022081  -0.025824   0.001019  -0.000000   0.000000
    19  C    9.436465  -3.125719  -0.410457   0.084608  -0.000041   0.000148
    20  C   -3.125719  14.612691   1.406741  -0.428814   0.000146  -0.000259
    21  C   -0.410457   1.406741   9.264941  -0.411814  -0.014146   0.021072
    22  C    0.084608  -0.428814  -0.411814   8.067819   0.010945  -0.020978
    23  H   -0.000041   0.000146  -0.014146   0.010945   0.544138  -0.034754
    24  H    0.000148  -0.000259   0.021072  -0.020978  -0.034754   0.564366
    25  H   -0.000378   0.001587   0.000355  -0.001394  -0.021058  -0.036655
    26  H   -0.000626   0.010747  -0.009581   0.019281   0.001975   0.000313
    27  H   -0.007932   0.005965   0.009668  -0.028338  -0.000007  -0.000001
    28  H   -0.034458   0.035221   0.122852   0.057453   0.000000  -0.000003
    29  H   -0.000464  -0.001150   0.000012  -0.000054   0.000000  -0.000000
    30  H   -0.000015  -0.000013  -0.000003  -0.000000  -0.000000  -0.000000
    31  H    0.000046   0.000001  -0.000000  -0.000000   0.000000   0.000000
    32  H    0.263669   0.013398  -0.002160  -0.007831  -0.000000   0.000000
    33  H    0.064305   0.041137  -0.046710   0.013888   0.000000   0.000000
    34  H    0.045476  -0.027835   0.208829   0.065776   0.000002   0.000001
    35  H   -0.001779   0.012245   0.063491   0.233888   0.000183   0.000275
              25         26         27         28         29         30
     1  C    0.420031  -0.025784  -0.002318   0.002389  -0.000000  -0.000000
     2  N   -0.048118  -0.090763   0.008568   0.007894  -0.000000  -0.000000
     3  C    0.005824   0.334246   0.045609   0.009643   0.000003  -0.000000
     4  C   -0.013447  -0.016453   0.273773   0.021072   0.000051   0.000001
     5  C   -0.008985   0.103109  -0.020098  -0.169455  -0.000954   0.000013
     6  C    0.003425  -0.010854   0.047769   0.029383   0.000360  -0.000030
     7  C    0.000077  -0.009073  -0.009007   0.171667  -0.003920   0.000664
     8  C    0.000015  -0.000397   0.011507  -0.029159   0.019000  -0.001517
     9  O    0.000000  -0.000001  -0.000022   0.000107  -0.000030   0.000001
    10  C    0.000008  -0.000061   0.001727  -0.040092   0.030044  -0.000631
    11  C    0.000000  -0.000002   0.000020   0.002848  -0.000269   0.020236
    12  C    0.000000  -0.000000  -0.000013   0.001164   0.299566  -0.025862
    13  C    0.000000   0.000000  -0.000001   0.000012  -0.049898   0.306995
    14  C    0.000000  -0.000000  -0.000000   0.000041  -0.006331  -0.011269
    15  S   -0.000000   0.000000   0.000003  -0.000225   0.015261   0.018898
    16  C    0.000016   0.000799  -0.016842   0.044840  -0.015800   0.004205
    17  C    0.000094   0.000571   0.005805   0.024145   0.027631  -0.000748
    18  O   -0.000000  -0.000000  -0.000006  -0.000965  -0.002398   0.000045
    19  C   -0.000378  -0.000626  -0.007932  -0.034458  -0.000464  -0.000015
    20  C    0.001587   0.010747   0.005965   0.035221  -0.001150  -0.000013
    21  C    0.000355  -0.009581   0.009668   0.122852   0.000012  -0.000003
    22  C   -0.001394   0.019281  -0.028338   0.057453  -0.000054  -0.000000
    23  H   -0.021058   0.001975  -0.000007   0.000000   0.000000  -0.000000
    24  H   -0.036655   0.000313  -0.000001  -0.000003  -0.000000  -0.000000
    25  H    0.544854   0.000168   0.000002   0.000001   0.000000  -0.000000
    26  H    0.000168   0.570456  -0.006103  -0.000152  -0.000000   0.000000
    27  H    0.000002  -0.006103   0.546405  -0.004579  -0.000000   0.000000
    28  H    0.000001  -0.000152  -0.004579   0.608845   0.000000  -0.000000
    29  H    0.000000  -0.000000  -0.000000   0.000000   0.525703  -0.002607
    30  H   -0.000000   0.000000   0.000000  -0.000000  -0.002607   0.552851
    31  H    0.000000  -0.000000   0.000000  -0.000000  -0.000095  -0.003099
    32  H   -0.000000  -0.000000   0.000000   0.000002   0.000002  -0.000000
    33  H   -0.000002   0.000002   0.000018  -0.000202   0.000000   0.000000
    34  H   -0.000008   0.000011  -0.000137  -0.004738  -0.000000   0.000000
    35  H    0.001623  -0.000178   0.000011  -0.000165   0.000000   0.000000
              31         32         33         34         35
     1  C   -0.000000  -0.000105  -0.000874  -0.000897  -0.027413
     2  N    0.000000  -0.000298   0.000555   0.010614  -0.087884
     3  C   -0.000000   0.000715  -0.010872  -0.012299   0.041436
     4  C   -0.000000   0.001456   0.027779   0.036463  -0.022251
     5  C    0.000004   0.024446   0.074166   0.030516   0.114748
     6  C    0.000036  -0.013051   0.117255  -0.023717  -0.021667
     7  C    0.001066   0.022539  -0.005404  -0.004476   0.001998
     8  C   -0.000334   0.014676   0.064348  -0.000654   0.000230
     9  O    0.000007  -0.000230  -0.000645   0.000000  -0.000000
    10  C   -0.007709  -0.032075  -0.020113  -0.003645  -0.000492
    11  C   -0.016086  -0.003389  -0.005283  -0.000307  -0.000013
    12  C    0.045881  -0.002143  -0.000522   0.000021  -0.000010
    13  C   -0.035936  -0.000372  -0.000096   0.000003  -0.000000
    14  C    0.342991   0.000033  -0.000033   0.000000  -0.000000
    15  S   -0.003484   0.000011   0.000015   0.000002   0.000001
    16  C    0.000192   0.019832   0.004825   0.015521  -0.004768
    17  C   -0.000162   0.018445  -0.022015  -0.017320   0.003998
    18  O    0.000002  -0.004220  -0.000318   0.000752  -0.000003
    19  C    0.000046   0.263669   0.064305   0.045476  -0.001779
    20  C    0.000001   0.013398   0.041137  -0.027835   0.012245
    21  C   -0.000000  -0.002160  -0.046710   0.208829   0.063491
    22  C   -0.000000  -0.007831   0.013888   0.065776   0.233888
    23  H    0.000000  -0.000000   0.000000   0.000002   0.000183
    24  H    0.000000   0.000000   0.000000   0.000001   0.000275
    25  H    0.000000  -0.000000  -0.000002  -0.000008   0.001623
    26  H   -0.000000  -0.000000   0.000002   0.000011  -0.000178
    27  H    0.000000   0.000000   0.000018  -0.000137   0.000011
    28  H   -0.000000   0.000002  -0.000202  -0.004738  -0.000165
    29  H   -0.000095   0.000002   0.000000  -0.000000   0.000000
    30  H   -0.003099  -0.000000   0.000000   0.000000   0.000000
    31  H    0.513479  -0.000000   0.000000   0.000000  -0.000000
    32  H   -0.000000   0.538033  -0.002567  -0.000059  -0.000002
    33  H    0.000000  -0.002567   0.567831   0.000036  -0.000002
    34  H    0.000000  -0.000059   0.000036   0.552679  -0.006279
    35  H   -0.000000  -0.000002  -0.000002  -0.006279   0.572871
 Mulliken charges:
               1
     1  C   -0.154778
     2  N    0.026841
     3  C    0.000866
     4  C   -0.201096
     5  C   -0.043238
     6  C    0.157944
     7  C   -0.208277
     8  C   -0.364709
     9  O   -0.448266
    10  C    1.144622
    11  C   -0.272318
    12  C    0.257275
    13  C   -0.311265
    14  C   -0.122320
    15  S    0.125686
    16  C    0.161017
    17  C   -0.717181
    18  O   -0.411687
    19  C    0.430102
    20  C   -0.797989
    21  C   -0.077761
    22  C   -0.072151
    23  H    0.150160
    24  H    0.161314
    25  H    0.151962
    26  H    0.128348
    27  H    0.138555
    28  H    0.144612
    29  H    0.166336
    30  H    0.141887
    31  H    0.163200
    32  H    0.151242
    33  H    0.139495
    34  H    0.135667
    35  H    0.125909
 Sum of Mulliken charges =  -0.00000
 Mulliken charges with hydrogens summed into heavy atoms:
               1
     1  C    0.308656
     2  N    0.026841
     3  C    0.129214
     4  C   -0.062540
     5  C    0.101374
     6  C    0.157944
     7  C   -0.208277
     8  C   -0.364709
     9  O   -0.448266
    10  C    1.144622
    11  C   -0.272318
    12  C    0.423610
    13  C   -0.169378
    14  C    0.040880
    15  S    0.125686
    16  C    0.161017
    17  C   -0.717181
    18  O   -0.411687
    19  C    0.581343
    20  C   -0.658494
    21  C    0.057906
    22  C    0.053758
 Electronic spatial extent (au):  <R**2>=           8752.1397
 Charge=              0.0000 electrons
 Dipole moment (field-independent basis, Debye):
    X=              4.2008    Y=              1.0720    Z=              0.8984  Tot=              4.4275
 Quadrupole moment (field-independent basis, Debye-Ang):
   XX=            -87.3564   YY=           -147.9612   ZZ=           -135.1672
   XY=             -6.4646   XZ=              5.9325   YZ=              3.3216
 Traceless Quadrupole moment (field-independent basis, Debye-Ang):
   XX=             36.1385   YY=            -24.4663   ZZ=            -11.6723
   XY=             -6.4646   XZ=              5.9325   YZ=              3.3216
 Octapole moment (field-independent basis, Debye-Ang**2):
  XXX=             72.3027  YYY=              7.9463  ZZZ=             18.5479  XYY=             27.6717
  XXY=             14.9555  XXZ=             48.6069  XZZ=              9.0134  YZZ=              1.4144
  YYZ=             -7.6567  XYZ=              8.5555
 Hexadecapole moment (field-independent basis, Debye-Ang**3):
 XXXX=          -7979.7172 YYYY=          -1511.5662 ZZZZ=           -531.4967 XXXY=           -138.8597
 XXXZ=             92.9284 YYYX=            -41.5934 YYYZ=             20.3176 ZZZX=             30.5860
 ZZZY=              0.7779 XXYY=          -1819.6566 XXZZ=          -1869.9773 YYZZ=           -314.4451
 XXYZ=              0.1982 YYXZ=             26.4730 ZZXY=              3.8637
 N-N= 1.771365235004D+03 E-N=-6.575197878755D+03  KE= 1.287093149439D+03
 Unable to Open any file for archive entry.
 1\1\GINC-N2\SP\RB3LYP TD-FC\6-31+G(d,p)\C18H13N1O2S1\HPCMGAC13\04-Sep-
 2025\0\\# td=(50-50,nstates=3) b3lyp/6-31+g(d,p) geom=connectivity\\Ti
 tle Card Required\\0,1\C,0,6.42537,0.00844,0.657348\N,0,5.032294,-0.03
 5193,0.229441\C,0,4.563017,-1.137674,-0.466914\C,0,3.360174,-1.160236,
 -1.084091\C,0,2.372807,-0.010195,-0.946995\C,0,1.348971,-0.619079,0.02
 2577\C,0,0.09507,-0.954149,-0.489917\C,0,-1.183182,-1.650683,-0.087259
 \O,0,-1.49506,-2.655953,0.511789\C,0,-1.958568,-0.40352,-0.516625\C,0,
 -3.287761,0.027598,-0.315131\C,0,-3.830384,1.290392,-0.556566\C,0,-5.2
 00301,1.376162,-0.220345\C,0,-5.707731,0.186375,0.257298\S,0,-4.518194
 ,-1.061629,0.324361\C,0,-0.720499,0.238349,-0.718147\C,0,-0.310541,1.4
 50569,0.096624\O,0,-0.76288,2.580663,-0.037266\C,0,0.502994,1.047627,1
 .321367\C,0,1.218434,-0.110121,1.402242\C,0,3.116113,1.225719,-0.50390
 9\C,0,4.328801,1.161275,0.07492\H,0,6.727715,-0.978608,1.014648\H,0,7.
 100512,0.312316,-0.155561\H,0,6.531973,0.714445,1.484626\H,0,5.241848,
 -1.983216,-0.511996\H,0,3.056918,-2.044788,-1.631562\H,0,1.850742,0.15
 4972,-1.901664\H,0,-3.23685,2.104461,-0.955751\H,0,-5.796901,2.273641,
 -0.334746\H,0,-6.723663,-0.022463,0.565347\H,0,0.426574,1.749983,2.149
 098\H,0,1.664375,-0.488203,2.319034\H,0,2.645774,2.1951,-0.628258\H,0,
 4.84286,2.04601,0.43587\\Version=ES64L-G16RevC.02\State=1-A\HF=-1296.9
 12616\RMSD=5.452e-09\PG=C01 [X(C18H13N1O2S1)]\\@
 The archive entry for this job was punched.


     ON THE SURVIVAL OF THE FITTEST -
 "STRONG REPRESENTATIVES FROM EACH PAST ERA THRIVE TODAY,
 SUCH AS PROGRAMMING IN THE THIRTY YEAR OLD LANGUAGE KNOWN
 AS FORTRAN, AND EVEN IN THE ANCIENT SCRIPT KNOWN AS DIRECT
 MACHINE CODE. SOME PEOPLE MIGHT LOOK ON SUCH RELICS AS LIVING
 FOSSILS; OTHERS WOULD POINT OUT THAT EVEN A VERY OLD SPECIES
 MIGHT STILL BE FILLING A PARTICULAR ECOLOGICAL NICHE."
     -- ALAN KAY, SCI.AM. SEPTEMBER 1984
 Job cpu time:       0 days  1 hours 12 minutes 57.1 seconds.
 Elapsed time:       0 days  0 hours  9 minutes 15.8 seconds.
 File lengths (MBytes):  RWF=   1316 Int=      0 D2E=      0 Chk=     61 Scr=      2
 Normal termination of Gaussian 16 at Thu Sep  4 15:48:19 2025.
