 Entering Gaussian System, Link 0=g16
 Input=M891enew.gjf
 Output=M891enew.log
 Initial command:
 /hpc/softwares/Gaussian/g16/l1.exe "/hpc/home/hpcmgac13/pbs.13742.admin1.x8z/Gau-983399.inp" -scrdir="/hpc/home/hpcmgac13/pbs.13742.admin1.x8z/"
 Default linda workers: n1
 Default is to use  16 SMP processors on each worker.
 Entering Link 1 = /hpc/softwares/Gaussian/g16/l1.exe PID=    983400.
  
 Copyright (c) 1988-2021, Gaussian, Inc.  All Rights Reserved.
  
 This is part of the Gaussian(R) 16 program.  It is based on
 the Gaussian(R) 09 system (copyright 2009, Gaussian, Inc.),
 the Gaussian(R) 03 system (copyright 2003, Gaussian, Inc.),
 the Gaussian(R) 98 system (copyright 1998, Gaussian, Inc.),
 the Gaussian(R) 94 system (copyright 1995, Gaussian, Inc.),
 the Gaussian 92(TM) system (copyright 1992, Gaussian, Inc.),
 the Gaussian 90(TM) system (copyright 1990, Gaussian, Inc.),
 the Gaussian 88(TM) system (copyright 1988, Gaussian, Inc.),
 the Gaussian 86(TM) system (copyright 1986, Carnegie Mellon
 University), and the Gaussian 82(TM) system (copyright 1983,
 Carnegie Mellon University). Gaussian is a federally registered
 trademark of Gaussian, Inc.
  
 This software contains proprietary and confidential information,
 including trade secrets, belonging to Gaussian, Inc.
  
 This software is provided under written license and may be
 used, copied, transmitted, or stored only in accord with that
 written license.
  
 The following legend is applicable only to US Government
 contracts under FAR:
  
                    RESTRICTED RIGHTS LEGEND
  
 Use, reproduction and disclosure by the US Government is
 subject to restrictions as set forth in subparagraphs (a)
 and (c) of the Commercial Computer Software - Restricted
 Rights clause in FAR 52.227-19.
  
 Gaussian, Inc.
 340 Quinnipiac St., Bldg. 40, Wallingford CT 06492
  
  
 ---------------------------------------------------------------
 Warning -- This program may not be used in any manner that
 competes with the business of Gaussian, Inc. or will provide
 assistance to any competitor of Gaussian, Inc.  The licensee
 of this program is prohibited from giving any competitor of
 Gaussian, Inc. access to this program.  By using this program,
 the user acknowledges that Gaussian, Inc. is engaged in the
 business of creating and licensing software in the field of
 computational chemistry and represents and warrants to the
 licensee that it is not a competitor of Gaussian, Inc. and that
 it will not use this program in any manner prohibited above.
 ---------------------------------------------------------------
  

 Cite this work as:
 Gaussian 16, Revision C.02,
 M. J. Frisch, G. W. Trucks, H. B. Schlegel, G. E. Scuseria, 
 M. A. Robb, J. R. Cheeseman, G. Scalmani, V. Barone, 
 G. A. Petersson, H. Nakatsuji, X. Li, M. Caricato, A. V. Marenich, 
 J. Bloino, B. G. Janesko, R. Gomperts, B. Mennucci, H. P. Hratchian, 
 J. V. Ortiz, A. F. Izmaylov, J. L. Sonnenberg, D. Williams-Young, 
 F. Ding, F. Lipparini, F. Egidi, J. Goings, B. Peng, A. Petrone, 
 T. Henderson, D. Ranasinghe, V. G. Zakrzewski, J. Gao, N. Rega, 
 G. Zheng, W. Liang, M. Hada, M. Ehara, K. Toyota, R. Fukuda, 
 J. Hasegawa, M. Ishida, T. Nakajima, Y. Honda, O. Kitao, H. Nakai, 
 T. Vreven, K. Throssell, J. A. Montgomery, Jr., J. E. Peralta, 
 F. Ogliaro, M. J. Bearpark, J. J. Heyd, E. N. Brothers, K. N. Kudin, 
 V. N. Staroverov, T. A. Keith, R. Kobayashi, J. Normand, 
 K. Raghavachari, A. P. Rendell, J. C. Burant, S. S. Iyengar, 
 J. Tomasi, M. Cossi, J. M. Millam, M. Klene, C. Adamo, R. Cammi, 
 J. W. Ochterski, R. L. Martin, K. Morokuma, O. Farkas, 
 J. B. Foresman, and D. J. Fox, Gaussian, Inc., Wallingford CT, 2019.
 
 ******************************************
 Gaussian 16:  ES64L-G16RevC.02  7-Dec-2021
                 4-Sep-2025 
 ******************************************
 SetLPE:    new flags="-opt 'Tsnet.Node.lindarsharg: ssh'  -nodelist 'n1' -env GAUSS_MDEF=2147483648 -env GAUSS_EXEDIR="/hpc/softwares/Gaussian/g16/bsd:/hpc/softwares/Gaussian/g16""
 Will use up to    1 processors via Linda.
 ----------------------------------------------------------
 # td=(50-50,nstates=3) b3lyp/6-31+g(d,p) geom=connectivity
 ----------------------------------------------------------
 1/38=1,57=2,172=1/1;
 2/12=2,17=6,18=5,40=1/2;
 3/5=1,6=6,7=111,11=9,25=1,30=1,74=-5/1,2,3,8;
 4//1;
 5/5=2,38=5/2;
 8/6=1,10=2,108=3/1;
 9/41=3,42=1,48=2,70=2/14;
 6/7=2,8=2,9=2,10=2/1;
 99/5=1,9=1/99;
 -------------------
 Title Card Required
 -------------------
 Symbolic Z-matrix:
 Charge =  0 Multiplicity = 1
 C                    -9.53017  -1.68487   0.00045 
 O                    -8.54037  -0.67043   0.00036 
 C                    -7.221    -1.1834    0.00019 
 C                    -6.28415   0.01717   0.00007 
 O                    -4.96359  -0.54252  -0.0001 
 C                    -3.78907   0.12756  -0.00011 
 C                    -2.64845  -0.70606  -0.00009 
 Br                   -2.89412  -2.59269  -0.00016 
 C                    -1.34965  -0.21447  -0.00013 
 C                    -1.11393   1.16382  -0.00011 
 C                     0.27749   1.77125  -0.00013 
 C                     1.42525   0.75971  -0.00007 
 N                     2.6886    1.48696  -0.00001 
 C                     3.99618   1.04226   0.00005 
 C                     4.99968   2.04579   0.00007 
 C                     6.35585   1.76531   0.00009 
 C                     6.77514   0.43441   0.00003 
 Br                    8.6329    0.00969   0.00012 
 C                     5.83391  -0.58438   0.00002 
 C                     4.46718  -0.28868   0.00004 
 Br                    3.32007  -1.82725  -0.00004 
 C                    -2.22591   2.00734  -0.0001 
 C                    -3.5321    1.51304  -0.00011 
 Br                   -4.89813   2.86148  -0.00005 
 H                    -10.50084  -1.18487   0.0006 
 H                    -9.45163  -2.3208   -0.89419 
 H                    -9.4514   -2.32087   0.89502 
 H                    -7.03756  -1.80396   0.89107 
 H                    -7.03779  -1.80396  -0.89073 
 H                    -6.45124   0.62589  -0.8914 
 H                    -6.45101   0.62589   0.89159 
 H                    -0.53278  -0.92516  -0.00015 
 H                     0.37938   2.42118  -0.88066 
 H                     0.37935   2.42126   0.88035 
 H                     1.34947   0.11895   0.88473 
 H                     1.34957   0.11896  -0.88488 
 H                     2.60333   2.49175   0.0001 
 H                     4.68138   3.08579   0.00008 
 H                     7.07774   2.57419   0.00013 
 H                     6.14824  -1.62063  0. 
 H                    -2.08563   3.08341  -0.00008 
 
                          Input orientation:                          
 ---------------------------------------------------------------------
 Center     Atomic      Atomic             Coordinates (Angstroms)
 Number     Number       Type             X           Y           Z
 ---------------------------------------------------------------------
      1          6           0       -9.530166   -1.684874    0.000453
      2          8           0       -8.540367   -0.670425    0.000363
      3          6           0       -7.220997   -1.183400    0.000191
      4          6           0       -6.284154    0.017170    0.000070
      5          8           0       -4.963588   -0.542520   -0.000099
      6          6           0       -3.789074    0.127556   -0.000108
      7          6           0       -2.648454   -0.706064   -0.000088
      8         35           0       -2.894119   -2.592687   -0.000164
      9          6           0       -1.349653   -0.214468   -0.000127
     10          6           0       -1.113929    1.163815   -0.000113
     11          6           0        0.277489    1.771248   -0.000128
     12          6           0        1.425247    0.759712   -0.000070
     13          7           0        2.688600    1.486962   -0.000006
     14          6           0        3.996177    1.042265    0.000047
     15          6           0        4.999682    2.045787    0.000073
     16          6           0        6.355846    1.765312    0.000085
     17          6           0        6.775143    0.434411    0.000030
     18         35           0        8.632901    0.009693    0.000118
     19          6           0        5.833905   -0.584376    0.000015
     20          6           0        4.467177   -0.288681    0.000042
     21         35           0        3.320073   -1.827252   -0.000040
     22          6           0       -2.225906    2.007342   -0.000096
     23          6           0       -3.532098    1.513037   -0.000113
     24         35           0       -4.898129    2.861476   -0.000046
     25          1           0      -10.500840   -1.184867    0.000597
     26          1           0       -9.451627   -2.320802   -0.894187
     27          1           0       -9.451396   -2.320870    0.895024
     28          1           0       -7.037559   -1.803961    0.891065
     29          1           0       -7.037790   -1.803959   -0.890732
     30          1           0       -6.451235    0.625887   -0.891404
     31          1           0       -6.451005    0.625887    0.891588
     32          1           0       -0.532784   -0.925163   -0.000146
     33          1           0        0.379378    2.421184   -0.880662
     34          1           0        0.379351    2.421260    0.880353
     35          1           0        1.349467    0.118954    0.884733
     36          1           0        1.349568    0.118955   -0.884879
     37          1           0        2.603327    2.491754    0.000103
     38          1           0        4.681382    3.085792    0.000082
     39          1           0        7.077743    2.574188    0.000125
     40          1           0        6.148244   -1.620631   -0.000002
     41          1           0       -2.085626    3.083406   -0.000075
 ---------------------------------------------------------------------
                    Distance matrix (angstroms):
                    1          2          3          4          5
     1  C    0.000000
     2  O    1.417325   0.000000
     3  C    2.362993   1.415585   0.000000
     4  C    3.665180   2.358661   1.522840   0.000000
     5  O    4.707293   3.579065   2.346619   1.434276   0.000000
     6  C    6.020385   4.817838   3.673786   2.497521   1.352215
     7  C    6.950973   5.892021   4.597390   3.706937   2.320903
     8  Br   6.697854   5.964496   4.550600   4.278281   2.913055
     9  C    8.311612   7.205155   5.950757   4.939935   3.628794
    10  C    8.885273   7.649602   6.542606   5.295849   4.210873
    11  C   10.398792   9.149664   8.059605   6.792050   5.729085
    12  C   11.224842  10.067708   8.861897   7.745078   6.520201
    13  N   12.623739  11.434335  10.263087   9.092338   7.916740
    14  C   13.798523  12.652993  11.435846  10.331313   9.098842
    15  C   15.001144  13.809806  12.640120  11.464739  10.293983
    16  C   16.256358  15.094038  13.893364  12.760313  11.552302
    17  C   16.442459  15.355309  14.089331  13.065961  11.779312
    18  Br  18.241945  17.186730  15.898728  14.917057  13.607698
    19  C   15.403434  14.374530  13.068638  12.132980  10.797574
    20  C   14.066804  13.013144  11.722369  10.755681   9.434181
    21  Br  12.851028  11.916723  10.560715   9.779727   8.382695
    22  C    8.184416   6.858779   5.927206   4.519974   3.741216
    23  C    6.797312   5.463540   4.569327   3.132320   2.504891
    24  Br   6.490383   5.073482   4.664412   3.164039   3.404625
    25  H    1.091886   2.026846   3.279843   4.384670   5.574385
    26  H    1.100433   2.086710   2.658817   4.037164   4.909600
    27  H    1.100433   2.086711   2.658805   4.037177   4.909602
    28  H    2.649615   2.082471   1.101091   2.162871   2.585877
    29  H    2.649591   2.082471   1.101091   2.162870   2.585879
    30  H    3.951562   2.615367   2.158934   1.092327   2.091099
    31  H    3.951578   2.615366   2.158934   1.092328   2.091098
    32  H    9.029399   8.011634   6.693197   5.828057   4.447296
    33  H   10.762673   9.481356   8.457815   7.138461   6.173023
    34  H   10.762578   9.481259   8.457751   7.138406   6.173021
    35  H   11.063551   9.960625   8.713862   7.685386   6.408989
    36  H   11.063735   9.960803   8.714015   7.685519   6.409081
    37  H   12.832220  11.583665  10.489237   9.225556   8.152608
    38  H   14.990909  13.744956  12.644866  11.386809  10.304858
    39  H   17.145327  15.951579  14.784229  13.604361  12.438148
    40  H   15.678542  14.719313  13.376389  12.539813  11.164011
    41  H    8.840683   7.466922   6.676651   5.198985   4.629255
                    6          7          8          9         10
     6  C    0.000000
     7  C    1.412776   0.000000
     8  Br   2.863681   1.902550   0.000000
     9  C    2.463281   1.388723   2.835719   0.000000
    10  C    2.868838   2.418928   4.156968   1.398295   0.000000
    11  C    4.386189   3.833825   5.394722   2.567228   1.518229
    12  C    5.252501   4.329381   5.467678   2.940935   2.571131
    13  N    6.618780   5.770053   6.914498   4.382049   3.816235
    14  C    7.838803   6.870791   7.790318   5.491564   5.111551
    15  C    8.995657   8.128141   9.155738   6.739644   6.176902
    16  C   10.276266   9.337297  10.225165   7.955768   7.493953
    17  C   10.568673   9.492358  10.132026   8.150666   7.922720
    18  Br  12.422534  11.304038  11.817130   9.985070   9.814922
    19  C    9.649278   8.483232   8.956099   7.193076   7.164396
    20  C    8.266737   7.127862   7.713438   5.817303   5.767017
    21  Br   7.373008   6.072922   6.261156   4.940386   5.348538
    22  C    2.444809   2.746110   4.648309   2.388359   1.395719
    23  C    1.409111   2.388564   4.154995   2.783404   2.443255
    24  Br   2.950309   4.217627   5.810676   4.696074   4.147556
    25  H    6.838878   7.866970   7.735901   9.202494   9.676281
    26  H    6.233646   7.049110   6.623753   8.418905   9.080701
    27  H    6.233614   7.049031   6.623679   8.418816   9.080620
    28  H    3.882989   4.611266   4.310971   5.972687   6.685154
    29  H    3.883055   4.611387   4.311057   5.972819   6.685283
    30  H    2.851288   4.126703   4.879201   5.246590   5.437886
    31  H    2.851198   4.126569   4.879127   5.246441   5.437727
    32  H    3.422228   2.126985   2.890768   1.082757   2.168308
    33  H    4.838605   4.441042   6.052269   3.272851   2.141567
    34  H    4.838601   4.441051   6.052320   3.272883   2.141559
    35  H    5.214175   4.176953   5.113126   2.859964   2.818334
    36  H    5.214263   4.177043   5.113179   2.860026   2.818397
    37  H    6.815587   6.148760   7.488221   4.790583   3.947330
    38  H    8.972167   8.252555   9.467489   6.874962   6.105704
    39  H   11.138838  10.264451  11.230967   8.876802   8.312198
    40  H   10.089918   8.844113   9.094461   7.628614   7.777679
    41  H    3.411566   3.831039   5.733384   3.378998   2.151517
                   11         12         13         14         15
    11  C    0.000000
    12  C    1.529887   0.000000
    13  N    2.427813   1.457722   0.000000
    14  C    3.789467   2.586410   1.381127   0.000000
    15  C    4.730167   3.798760   2.377685   1.419182   0.000000
    16  C    6.078360   5.032101   3.677794   2.467962   1.384864
    17  C    6.633750   5.359777   4.219917   2.844668   2.397664
    18  Br   8.539086   7.246572   6.125115   4.750307   4.164848
    19  C    6.035124   4.608995   3.766083   2.454222   2.759291
    20  C    4.668704   3.217525   2.513214   1.411828   2.394432
    21  Br   4.712379   3.206672   3.373836   2.948092   4.221554
    22  C    2.514503   3.858432   4.941980   6.296482   7.225690
    23  C    3.818328   5.014256   6.220753   7.542980   8.548397
    24  Br   5.289198   6.663520   7.710236   9.078447   9.931365
    25  H   11.176359  12.083581  13.457340  14.667093  15.833613
    26  H   10.592446  11.339991  12.754754  13.890763  15.123066
    27  H   10.592352  11.339865  12.754614  13.890604  15.122906
    28  H    8.190621   8.887386  10.306423  11.429709  12.669238
    29  H    8.190762   8.887558  10.306610  11.429913  12.669444
    30  H    6.883455   7.927885   9.223482  10.493640  11.573001
    31  H    6.883287   7.927693   9.223273  10.493418  11.572776
    32  H    2.815524   2.583155   4.024383   4.937840   6.279707
    33  H    1.099153   2.151691   2.642126   3.969673   4.718456
    34  H    1.099153   2.151693   2.642078   3.969634   4.718403
    35  H    2.159211   1.095075   2.108906   2.939430   4.221301
    36  H    2.159215   1.095073   2.108898   2.939411   4.221274
    37  H    2.434882   2.094718   1.008404   2.010236   2.437500
    38  H    4.595900   4.001633   2.554885   2.155344   1.087624
    39  H    6.847493   5.936584   4.521796   3.441342   2.144189
    40  H    6.780163   5.288926   4.650405   3.423800   3.842111
    41  H    2.702974   4.210200   5.034071   6.415184   7.160883
                   16         17         18         19         20
    16  C    0.000000
    17  C    1.395388   0.000000
    18  Br   2.875270   1.905689   0.000000
    19  C    2.406960   1.387031   2.861345   0.000000
    20  C    2.790333   2.418588   4.176396   1.398349   0.000000
    21  Br   4.703449   4.129483   5.621433   2.804299   1.919127
    22  C    8.585164   9.137450  11.041028   8.466260   7.075951
    23  C    9.891162  10.363525  12.257538   9.597977   8.199670
    24  Br  11.307233  11.922916  13.828284  11.271666   9.880913
    25  H   17.112902  17.351705  19.170994  16.345779  14.994822
    26  H   16.351521  16.483291  18.255989  15.409811  14.094760
    27  H   16.351352  16.483117  18.255798  15.409636  14.094590
    28  H   13.889451  14.021234  15.800204  12.959782  11.638254
    29  H   13.889663  14.021443  15.800427  12.959990  11.638463
    30  H   12.888536  13.257767  15.123018  12.376754  10.992854
    31  H   12.888309  13.257546  15.122785  12.376536  10.992633
    32  H    7.395396   7.433319   9.213237   6.375803   5.040309
    33  H    6.076517   6.754902   8.643593   6.289741   4.982882
    34  H    6.076482   6.754901   8.643585   6.289754   4.982876
    35  H    5.343868   5.506376   7.337772   4.624671   3.266337
    36  H    5.343826   5.506309   7.337717   4.624607   3.266303
    37  H    3.822187   4.651528   6.520459   4.460853   3.347351
    38  H    2.132486   3.378410   5.007683   3.846874   3.381265
    39  H    1.084166   2.161067   2.999192   3.394652   3.874413
    40  H    3.392301   2.148534   2.971780   1.082882   2.144779
    41  H    8.543759   9.248265  11.150540   8.727634   7.369545
                   21         22         23         24         25
    21  Br   0.000000
    22  C    6.742551   0.000000
    23  C    7.622977   1.396594   0.000000
    24  Br   9.461660   2.805409   1.919460   0.000000
    25  H   13.835834   8.869314   7.472754   6.911097   0.000000
    26  H   12.812471   8.470140   7.109044   6.956280   1.786571
    27  H   12.812307   8.470086   7.109023   6.956299   1.786571
    28  H   10.395920   6.202596   4.907640   5.209371   3.629122
    29  H   10.396115   6.202699   4.907702   5.209391   3.629113
    30  H   10.113895   4.533900   3.178490   2.864353   4.524798
    31  H   10.113696   4.533760   3.178393   2.864314   4.524805
    32  H    3.957053   3.386185   3.865321   5.778830   9.971439
    33  H    5.241411   2.781037   4.110930   5.368559  11.496059
    34  H    5.241449   2.780986   4.110903   5.368490  11.495942
    35  H    2.907547   4.139109   5.153261   6.880168  11.954557
    36  H    2.907499   4.139186   5.153342   6.880267  11.954756
    37  H    4.378075   4.853467   6.212997   7.510562  13.610170
    38  H    5.098153   6.990971   8.362704   9.582137  15.771442
    39  H    5.787293   9.320901  10.662775  11.979317  17.976014
    40  H    2.835709   9.126258  10.174915  11.921059  16.654786
    41  H    7.303160   1.085169   2.135027   2.821245   9.435782
                   26         27         28         29         30
    26  H    0.000000
    27  H    1.789211   0.000000
    28  H    3.046633   2.468566   0.000000
    29  H    2.468552   3.046574   1.781797   0.000000
    30  H    4.205394   4.568990   3.070038   2.499640   0.000000
    31  H    4.568993   4.205441   2.499641   3.070038   1.782992
    32  H    9.071542   9.071437   6.624095   6.624238   6.182892
    33  H   10.914911  11.058221   8.717902   8.536177   7.062611
    34  H   11.058222  10.914742   8.535992   8.717981   7.281442
    35  H   11.215195  11.073007   8.604641   8.786123   8.016395
    36  H   11.073315  11.215241   8.786096   8.604964   7.817260
    37  H   13.010856  13.010710  10.592151  10.592350   9.287698
    38  H   15.158262  15.158111  12.729380  12.729580  11.435954
    39  H   17.262120  17.261949  14.805530  14.805744  13.697589
    40  H   15.641157  15.640977  13.217148  13.217356  12.829198
    41  H    9.179481   9.179432   7.014423   7.014523   5.088458
                   31         32         33         34         35
    31  H    0.000000
    32  H    6.182741   0.000000
    33  H    7.281352   3.578461   0.000000
    34  H    7.062383   3.578521   1.761015   0.000000
    35  H    7.816930   2.327243   3.059077   2.498351   0.000000
    36  H    8.016343   2.327270   2.498308   3.059080   1.769612
    37  H    9.287472   4.637943   2.393047   2.392881   2.825759
    38  H   11.435732   6.578395   4.441244   4.441165   4.548230
    39  H   13.697358   8.376490   6.757758   6.757710   6.294748
    40  H   12.828985   6.717128   7.098707   7.098735   5.180461
    41  H    5.088320   4.298831   2.700040   2.699945   4.622848
                   36         37         38         39         40
    36  H    0.000000
    37  H    2.825824   0.000000
    38  H    4.548215   2.161294   0.000000
    39  H    6.294711   4.475175   2.450364   0.000000
    40  H    5.180392   5.429378   4.929716   4.296565   0.000000
    41  H    4.622922   4.726133   6.767008   9.177507   9.482857
                   41
    41  H    0.000000
 Stoichiometry    C17H17Br4NO2
 Framework group  C1[X(C17H17Br4NO2)]
 Deg. of freedom   117
 Full point group                 C1      NOp   1
 Largest Abelian subgroup         C1      NOp   1
 Largest concise Abelian subgroup C1      NOp   1
                         Standard orientation:                         
 ---------------------------------------------------------------------
 Center     Atomic      Atomic             Coordinates (Angstroms)
 Number     Number       Type             X           Y           Z
 ---------------------------------------------------------------------
      1          6           0       -9.530166   -1.684874    0.000453
      2          8           0       -8.540367   -0.670425    0.000363
      3          6           0       -7.220997   -1.183400    0.000191
      4          6           0       -6.284154    0.017170    0.000070
      5          8           0       -4.963588   -0.542520   -0.000099
      6          6           0       -3.789074    0.127556   -0.000108
      7          6           0       -2.648454   -0.706064   -0.000088
      8         35           0       -2.894119   -2.592687   -0.000164
      9          6           0       -1.349653   -0.214468   -0.000127
     10          6           0       -1.113929    1.163815   -0.000113
     11          6           0        0.277489    1.771248   -0.000128
     12          6           0        1.425247    0.759712   -0.000070
     13          7           0        2.688600    1.486962   -0.000006
     14          6           0        3.996177    1.042265    0.000047
     15          6           0        4.999682    2.045787    0.000073
     16          6           0        6.355846    1.765312    0.000085
     17          6           0        6.775143    0.434411    0.000030
     18         35           0        8.632901    0.009693    0.000118
     19          6           0        5.833905   -0.584376    0.000015
     20          6           0        4.467177   -0.288681    0.000042
     21         35           0        3.320073   -1.827252   -0.000040
     22          6           0       -2.225906    2.007342   -0.000096
     23          6           0       -3.532098    1.513037   -0.000113
     24         35           0       -4.898129    2.861476   -0.000046
     25          1           0      -10.500840   -1.184867    0.000597
     26          1           0       -9.451627   -2.320802   -0.894187
     27          1           0       -9.451396   -2.320870    0.895024
     28          1           0       -7.037559   -1.803961    0.891065
     29          1           0       -7.037790   -1.803959   -0.890732
     30          1           0       -6.451235    0.625887   -0.891404
     31          1           0       -6.451005    0.625887    0.891588
     32          1           0       -0.532784   -0.925163   -0.000146
     33          1           0        0.379378    2.421184   -0.880662
     34          1           0        0.379351    2.421260    0.880353
     35          1           0        1.349467    0.118954    0.884733
     36          1           0        1.349568    0.118955   -0.884879
     37          1           0        2.603327    2.491754    0.000103
     38          1           0        4.681382    3.085792    0.000082
     39          1           0        7.077743    2.574188    0.000125
     40          1           0        6.148244   -1.620631   -0.000002
     41          1           0       -2.085626    3.083406   -0.000075
 ---------------------------------------------------------------------
 Rotational constants (GHZ):           0.2721814           0.0306977           0.0276104
 Standard basis: 6-31+G(d,p) (6D, 7F)
 There are   601 symmetry adapted cartesian basis functions of A   symmetry.
 There are   601 symmetry adapted basis functions of A   symmetry.
   601 basis functions,  1107 primitive gaussians,   601 cartesian basis functions
   141 alpha electrons      141 beta electrons
       nuclear repulsion energy      3786.9463439220 Hartrees.
 NAtoms=   41 NActive=   41 NUniq=   41 SFac= 1.00D+00 NAtFMM=   60 NAOKFM=F Big=F
 Integral buffers will be    131072 words long.
 Regular integral format.
 Two-electron integral symmetry is turned on.
 One-electron integrals computed using PRISM.
 NBasis=   601 RedAO= T EigKep=  1.32D-06  NBF=   601
 NBsUse=   598 1.00D-06 EigRej=  5.60D-07 NBFU=   598
 ExpMin= 3.50D-02 ExpMax= 5.74D+05 ExpMxC= 5.74D+03 IAcc=3 IRadAn=         5 AccDes= 0.00D+00
 Harris functional with IExCor=  402 and IRadAn=       5 diagonalized for initial guess.
 HarFok:  IExCor=  402 AccDes= 0.00D+00 IRadAn=         5 IDoV= 1 UseB2=F ITyADJ=14
 ICtDFT=  3500011 ScaDFX=  1.000000  1.000000  1.000000  1.000000
 FoFCou: FMM=F IPFlag=           0 FMFlag=      100000 FMFlg1=           0
         NFxFlg=           0 DoJE=T BraDBF=F KetDBF=T FulRan=T
         wScrn=  0.000000 ICntrl=       500 IOpCl=  0 I1Cent=   200000004 NGrid=           0
         NMat0=    1 NMatS0=      1 NMatT0=    0 NMatD0=    1 NMtDS0=    0 NMtDT0=    0
 Petite list used in FoFCou.
 Requested convergence on RMS density matrix=1.00D-08 within 128 cycles.
 Requested convergence on MAX density matrix=1.00D-06.
 Requested convergence on             energy=1.00D-06.
 No special actions if energy rises.
 SCF Done:  E(RB3LYP) =  -11150.1794580     A.U. after   16 cycles
            NFock= 16  Conv=0.74D-08     -V/T= 2.0067
 DoSCS=F DFT=T ScalE2(SS,OS)=  1.000000  1.000000
 ExpMin= 3.50D-02 ExpMax= 5.74D+05 ExpMxC= 5.74D+03 IAcc=3 IRadAn=         5 AccDes= 0.00D+00
 HarFok:  IExCor=  205 AccDes= 0.00D+00 IRadAn=         5 IDoV=-2 UseB2=F ITyADJ=14
 ICtDFT= 12500011 ScaDFX=  1.000000  1.000000  1.000000  1.000000
 GSVD:  LWork=       -6384 too small for GESVD, short by       30020 words or       30020 for optimal perf.
 Range of M.O.s used for correlation:    77   598
 NBasis=   601 NAE=   141 NBE=   141 NFC=    76 NFV=     0
 NROrb=    522 NOA=    65 NOB=    65 NVA=   457 NVB=   457

 **** Warning!!: The largest alpha MO coefficient is  0.12765966D+03

 Orbital symmetries:
       Occupied  (A) (A) (A) (A) (A) (A) (A) (A) (A) (A) (A) (A)
                 (A) (A) (A) (A) (A) (A) (A) (A) (A) (A) (A) (A)
                 (A) (A) (A) (A) (A) (A) (A) (A) (A) (A) (A) (A)
                 (A) (A) (A) (A) (A) (A) (A) (A) (A) (A) (A) (A)
                 (A) (A) (A) (A) (A) (A) (A) (A) (A) (A) (A) (A)
                 (A) (A) (A) (A) (A) (A) (A) (A) (A) (A) (A) (A)
                 (A) (A) (A) (A) (A) (A) (A) (A) (A) (A) (A) (A)
                 (A) (A) (A) (A) (A) (A) (A) (A) (A) (A) (A) (A)
                 (A) (A) (A) (A) (A) (A) (A) (A) (A) (A) (A) (A)
                 (A) (A) (A) (A) (A) (A) (A) (A) (A) (A) (A) (A)
                 (A) (A) (A) (A) (A) (A) (A) (A) (A) (A) (A) (A)
                 (A) (A) (A) (A) (A) (A) (A) (A) (A)
       Virtual   (A) (A) (A) (A) (A) (A) (A) (A) (A) (A) (A) (A)
                 (A) (A) (A) (A) (A) (A) (A) (A) (A) (A) (A) (A)
                 (A) (A) (A) (A) (A) (A) (A) (A) (A) (A) (A) (A)
                 (A) (A) (A) (A) (A) (A) (A) (A) (A) (A) (A) (A)
                 (A) (A) (A) (A) (A) (A) (A) (A) (A) (A) (A) (A)
                 (A) (A) (A) (A) (A) (A) (A) (A) (A) (A) (A) (A)
                 (A) (A) (A) (A) (A) (A) (A) (A) (A) (A) (A) (A)
                 (A) (A) (A) (A) (A) (A) (A) (A) (A) (A) (A) (A)
                 (A) (A) (A) (A) (A) (A) (A) (A) (A) (A) (A) (A)
                 (A) (A) (A) (A) (A) (A) (A) (A) (A) (A) (A) (A)
                 (A) (A) (A) (A) (A) (A) (A) (A) (A) (A) (A) (A)
                 (A) (A) (A) (A) (A) (A) (A) (A) (A) (A) (A) (A)
                 (A) (A) (A) (A) (A) (A) (A) (A) (A) (A) (A) (A)
                 (A) (A) (A) (A) (A) (A) (A) (A) (A) (A) (A) (A)
                 (A) (A) (A) (A) (A) (A) (A) (A) (A) (A) (A) (A)
                 (A) (A) (A) (A) (A) (A) (A) (A) (A) (A) (A) (A)
                 (A) (A) (A) (A) (A) (A) (A) (A) (A) (A) (A) (A)
                 (A) (A) (A) (A) (A) (A) (A) (A) (A) (A) (A) (A)
                 (A) (A) (A) (A) (A) (A) (A) (A) (A) (A) (A) (A)
                 (A) (A) (A) (A) (A) (A) (A) (A) (A) (A) (A) (A)
                 (A) (A) (A) (A) (A) (A) (A) (A) (A) (A) (A) (A)
                 (A) (A) (A) (A) (A) (A) (A) (A) (A) (A) (A) (A)
                 (A) (A) (A) (A) (A) (A) (A) (A) (A) (A) (A) (A)
                 (A) (A) (A) (A) (A) (A) (A) (A) (A) (A) (A) (A)
                 (A) (A) (A) (A) (A) (A) (A) (A) (A) (A) (A) (A)
                 (A) (A) (A) (A) (A) (A) (A) (A) (A) (A) (A) (A)
                 (A) (A) (A) (A) (A) (A) (A) (A) (A) (A) (A) (A)
                 (A) (A) (A) (A) (A) (A) (A) (A) (A) (A) (A) (A)
                 (A) (A) (A) (A) (A) (A) (A) (A) (A) (A) (A) (A)
                 (A) (A) (A) (A) (A) (A) (A) (A) (A) (A) (A) (A)
                 (A) (A) (A) (A) (A) (A) (A) (A) (A) (A) (A) (A)
                 (A) (A) (A) (A) (A) (A) (A) (A) (A) (A) (A) (A)
                 (A) (A) (A) (A) (A) (A) (A) (A) (A) (A) (A) (A)
                 (A) (A) (A) (A) (A) (A) (A) (A) (A) (A) (A) (A)
                 (A) (A) (A) (A) (A) (A) (A) (A) (A) (A) (A) (A)
                 (A) (A) (A) (A) (A) (A) (A) (A) (A) (A) (A) (A)
                 (A) (A) (A) (A) (A) (A) (A) (A) (A) (A) (A) (A)
                 (A) (A) (A) (A) (A) (A) (A) (A) (A) (A) (A) (A)
                 (A)
    24 initial guesses have been made.
 Convergence on wavefunction:    0.001000000000000
 Iteration     1 Dimension    24 NMult     0 NNew     24
 CISAX will form    24 AO SS matrices at one time.
 New state      1 was old state      6
 New state      2 was old state     12
 New state      3 was old state      8
 New state      4 was old state     14
 New state      5 was old state      7
 New state      6 was old state      1
 New state      7 was old state      2
 New state      8 was old state      4
 New state      9 was old state      3
 New state     10 was old state     18
 New state     11 was old state     17
 New state     12 was old state     10
 Vector   4 SDiff=6.22D-04 TDiff=6.01D+00 assumed to be singlet.
 Vector  10 SDiff=6.28D-04 TDiff=5.63D+00 assumed to be singlet.
 Iteration     2 Dimension    36 NMult    24 NNew     12
 New state      4 was old state      5
 New state      5 was old state      6
 New state      6 was old state      9
 Iteration     3 Dimension    48 NMult    36 NNew     12
 Iteration     4 Dimension    60 NMult    48 NNew     12
 Iteration     5 Dimension    72 NMult    60 NNew     12
 Iteration     6 Dimension    82 NMult    72 NNew     10
 No map to state      6
 Iteration     7 Dimension    86 NMult    82 NNew      4
 New state      5 was old state      6
 New state      6 was old state      5
 Iteration     8 Dimension    90 NMult    86 NNew      4
 Iteration     9 Dimension    94 NMult    90 NNew      4
 Iteration    10 Dimension    98 NMult    94 NNew      4
 Iteration    11 Dimension   102 NMult    98 NNew      4
 ***********************************************************************
 Excited states from <AA,BB:AA,BB> singles matrix:
 ***********************************************************************
 
 Ground to excited state transition densities written to RWF  633
 Ground to excited state transition electric dipole moments (Au):
       state          X           Y           Z        Dip. S.      Osc.
         1         0.0000      0.0000      0.0000      0.0000      0.0000
         2         0.0000     -0.0000     -0.0000      0.0000      0.0000
         3         0.0000     -0.0000     -0.0000      0.0000      0.0000
         4         0.0000     -0.0001      0.0214      0.0005      0.0000
         5         0.3451      0.5699      0.0000      0.4438      0.0450
         6         0.8023     -0.0232      0.0000      0.6442      0.0656
 Ground to excited state transition velocity dipole moments (Au):
       state          X           Y           Z        Dip. S.      Osc.
         1        -0.0000      0.0000     -0.0000      0.0000      0.0000
         2        -0.0000     -0.0000     -0.0000      0.0000      0.0000
         3         0.0000      0.0000      0.0000      0.0000      0.0000
         4        -0.0000      0.0000      0.0008      0.0000      0.0000
         5        -0.0590     -0.0904     -0.0000      0.0117      0.0512
         6        -0.1175      0.0027     -0.0000      0.0138      0.0603
 Ground to excited state transition magnetic dipole moments (Au):
       state          X           Y           Z
         1         0.0000     -0.0000      0.0000
         2        -0.0000     -0.0000      0.0000
         3        -0.0000     -0.0000      0.0000
         4        -0.0005     -0.0618      0.0002
         5         0.0001      0.0000     -1.2097
         6         0.0000      0.0000      0.0479
 Ground to excited state transition velocity quadrupole moments (Au):
       state          XX          YY          ZZ          XY          XZ          YZ
         1        -0.0000      0.0000      0.0000      0.0000      0.0000      0.0000
         2         0.0000      0.0000      0.0000      0.0000      0.0000      0.0000
         3        -0.0000      0.0000      0.0000      0.0000      0.0000     -0.0000
         4         0.0000      0.0000     -0.0000      0.0001     -0.0610     -0.0396
         5        -1.2045     -0.1168      0.0147     -0.8546     -0.0001      0.0000
         6        -0.9133      0.0642      0.0208     -0.2781     -0.0000      0.0000
 <0|del|b> * <b|rxdel|0> + <0|del|b> * <b|delr+rdel|0>
 Rotatory Strengths (R) in cgs (10**-40 erg-esu-cm/Gauss)
       state          XX          YY          ZZ    R(velocity)    E-M Angle
         1        -0.0000     -0.0000     -0.0000     -0.0000       90.00
         2         0.0000      0.0000      0.0000      0.0000       90.00
         3        -0.0000     -0.0000     -0.0000     -0.0000       90.00
         4         0.0007      0.0004     -0.0057     -0.0015       90.00
         5         0.0200     -0.0033     -0.0006      0.0053       90.00
         6         0.0014     -0.0151     -0.0005     -0.0048       90.00
 1/2[<0|r|b>*<b|rxdel|0> + (<0|rxdel|b>*<b|r|0>)*]
 Rotatory Strengths (R) in cgs (10**-40 erg-esu-cm/Gauss)
       state          XX          YY          ZZ     R(length)
         1        -0.0000      0.0000     -0.0000     -0.0000
         2         0.0000     -0.0000      0.0000     -0.0000
         3         0.0000     -0.0000      0.0000     -0.0000
         4         0.0000     -0.0048     -0.0038     -0.0029
         5        -0.0130     -0.0146      0.0236     -0.0013
         6        -0.0152      0.0008     -0.0006     -0.0050
  1/2[<0|del|b>*<b|r|0> + (<0|r|b>*<b|del|0>)*] (Au)
       state          X           Y           Z        Dip. S.   Osc.(frdel)
         1        -0.0000      0.0000     -0.0000      0.0000      0.0000
         2        -0.0000      0.0000      0.0000      0.0000      0.0000
         3         0.0000     -0.0000     -0.0000      0.0000      0.0000
         4        -0.0000     -0.0000      0.0000     -0.0000     -0.0000
         5        -0.0204     -0.0515     -0.0000      0.0719      0.0479
         6        -0.0943     -0.0001     -0.0000      0.0943      0.0629

 Excitation energies and oscillator strengths:
 
 Excited State   1:      Triplet-A      3.2779 eV  378.24 nm  f=0.0000  <S**2>=2.000
     138 ->144         0.24570
     141 ->144        -0.44565
     141 ->147         0.45638
 This state for optimization and/or second-order correction.
 Total Energy, E(TD-HF/TD-DFT) =  -11150.0589971    
 Copying the excited state density for this state as the 1-particle RhoCI density.
 
 Excited State   2:      Triplet-A      3.4047 eV  364.15 nm  f=0.0000  <S**2>=2.000
     138 ->144         0.12588
     141 ->144         0.53196
     141 ->146         0.14138
     141 ->147         0.39546
 
 Excited State   3:      Triplet-A      3.7569 eV  330.02 nm  f=0.0000  <S**2>=2.000
     141 ->145         0.68549
 
 Excited State   4:      Singlet-A      4.0113 eV  309.08 nm  f=0.0000  <S**2>=0.000
     141 ->145         0.70091
 
 Excited State   5:      Singlet-A      4.1338 eV  299.93 nm  f=0.0450  <S**2>=0.000
     138 ->147        -0.14788
     141 ->142        -0.15339
     141 ->144         0.66885
 
 Excited State   6:      Singlet-A      4.1559 eV  298.34 nm  f=0.0656  <S**2>=0.000
     141 ->142         0.68774
     141 ->144         0.15011
 SavETr:  write IOETrn=   770 NScale= 10 NData=  16 NLR=1 NState=    6 LETran=     118.

 **********************************************************************

            Population analysis using the SCF Density.

 **********************************************************************

 Orbital symmetries:
       Occupied  (A) (A) (A) (A) (A) (A) (A) (A) (A) (A) (A) (A)
                 (A) (A) (A) (A) (A) (A) (A) (A) (A) (A) (A) (A)
                 (A) (A) (A) (A) (A) (A) (A) (A) (A) (A) (A) (A)
                 (A) (A) (A) (A) (A) (A) (A) (A) (A) (A) (A) (A)
                 (A) (A) (A) (A) (A) (A) (A) (A) (A) (A) (A) (A)
                 (A) (A) (A) (A) (A) (A) (A) (A) (A) (A) (A) (A)
                 (A) (A) (A) (A) (A) (A) (A) (A) (A) (A) (A) (A)
                 (A) (A) (A) (A) (A) (A) (A) (A) (A) (A) (A) (A)
                 (A) (A) (A) (A) (A) (A) (A) (A) (A) (A) (A) (A)
                 (A) (A) (A) (A) (A) (A) (A) (A) (A) (A) (A) (A)
                 (A) (A) (A) (A) (A) (A) (A) (A) (A) (A) (A) (A)
                 (A) (A) (A) (A) (A) (A) (A) (A) (A)
       Virtual   (A) (A) (A) (A) (A) (A) (A) (A) (A) (A) (A) (A)
                 (A) (A) (A) (A) (A) (A) (A) (A) (A) (A) (A) (A)
                 (A) (A) (A) (A) (A) (A) (A) (A) (A) (A) (A) (A)
                 (A) (A) (A) (A) (A) (A) (A) (A) (A) (A) (A) (A)
                 (A) (A) (A) (A) (A) (A) (A) (A) (A) (A) (A) (A)
                 (A) (A) (A) (A) (A) (A) (A) (A) (A) (A) (A) (A)
                 (A) (A) (A) (A) (A) (A) (A) (A) (A) (A) (A) (A)
                 (A) (A) (A) (A) (A) (A) (A) (A) (A) (A) (A) (A)
                 (A) (A) (A) (A) (A) (A) (A) (A) (A) (A) (A) (A)
                 (A) (A) (A) (A) (A) (A) (A) (A) (A) (A) (A) (A)
                 (A) (A) (A) (A) (A) (A) (A) (A) (A) (A) (A) (A)
                 (A) (A) (A) (A) (A) (A) (A) (A) (A) (A) (A) (A)
                 (A) (A) (A) (A) (A) (A) (A) (A) (A) (A) (A) (A)
                 (A) (A) (A) (A) (A) (A) (A) (A) (A) (A) (A) (A)
                 (A) (A) (A) (A) (A) (A) (A) (A) (A) (A) (A) (A)
                 (A) (A) (A) (A) (A) (A) (A) (A) (A) (A) (A) (A)
                 (A) (A) (A) (A) (A) (A) (A) (A) (A) (A) (A) (A)
                 (A) (A) (A) (A) (A) (A) (A) (A) (A) (A) (A) (A)
                 (A) (A) (A) (A) (A) (A) (A) (A) (A) (A) (A) (A)
                 (A) (A) (A) (A) (A) (A) (A) (A) (A) (A) (A) (A)
                 (A) (A) (A) (A) (A) (A) (A) (A) (A) (A) (A) (A)
                 (A) (A) (A) (A) (A) (A) (A) (A) (A) (A) (A) (A)
                 (A) (A) (A) (A) (A) (A) (A) (A) (A) (A) (A) (A)
                 (A) (A) (A) (A) (A) (A) (A) (A) (A) (A) (A) (A)
                 (A) (A) (A) (A) (A) (A) (A) (A) (A) (A) (A) (A)
                 (A) (A) (A) (A) (A) (A) (A) (A) (A) (A) (A) (A)
                 (A) (A) (A) (A) (A) (A) (A) (A) (A) (A) (A) (A)
                 (A) (A) (A) (A) (A) (A) (A) (A) (A) (A) (A) (A)
                 (A) (A) (A) (A) (A) (A) (A) (A) (A) (A) (A) (A)
                 (A) (A) (A) (A) (A) (A) (A) (A) (A) (A) (A) (A)
                 (A) (A) (A) (A) (A) (A) (A) (A) (A) (A) (A) (A)
                 (A) (A) (A) (A) (A) (A) (A) (A) (A) (A) (A) (A)
                 (A) (A) (A) (A) (A) (A) (A) (A) (A) (A) (A) (A)
                 (A) (A) (A) (A) (A) (A) (A) (A) (A) (A) (A) (A)
                 (A) (A) (A) (A) (A) (A) (A) (A) (A) (A) (A) (A)
                 (A) (A) (A) (A) (A) (A) (A) (A) (A) (A) (A) (A)
                 (A) (A) (A) (A) (A) (A) (A) (A) (A) (A) (A) (A)
                 (A) (A) (A) (A) (A) (A) (A) (A) (A) (A) (A) (A)
                 (A)
 The electronic state is 1-A.
 Alpha  occ. eigenvalues -- -482.94807-482.94051-482.93934-482.93281 -61.90664
 Alpha  occ. eigenvalues --  -61.89907 -61.89762 -61.89178 -56.42194 -56.41807
 Alpha  occ. eigenvalues --  -56.41757 -56.41419 -56.41295 -56.41053 -56.40993
 Alpha  occ. eigenvalues --  -56.40911 -56.40868 -56.40742 -56.40369 -56.40318
 Alpha  occ. eigenvalues --  -19.20638 -19.17126 -14.37506 -10.29323 -10.27019
 Alpha  occ. eigenvalues --  -10.26691 -10.26213 -10.25952 -10.25696 -10.25019
 Alpha  occ. eigenvalues --  -10.24706 -10.24258 -10.24050 -10.22733 -10.22229
 Alpha  occ. eigenvalues --  -10.22075 -10.21994 -10.21924 -10.21687 -10.21425
 Alpha  occ. eigenvalues --   -8.60925  -8.60157  -8.60004  -8.59533  -6.56113
 Alpha  occ. eigenvalues --   -6.55323  -6.55194  -6.54805  -6.54781  -6.54714
 Alpha  occ. eigenvalues --   -6.54039  -6.54029  -6.53907  -6.53835  -6.53434
 Alpha  occ. eigenvalues --   -6.53429  -2.67651  -2.67280  -2.67263  -2.66866
 Alpha  occ. eigenvalues --   -2.66734  -2.66497  -2.66491  -2.66377  -2.66322
 Alpha  occ. eigenvalues --   -2.66262  -2.66219  -2.66218  -2.65890  -2.65888
 Alpha  occ. eigenvalues --   -2.65466  -2.65466  -2.65294  -2.65292  -2.64865
 Alpha  occ. eigenvalues --   -2.64865  -1.09229  -1.05018  -0.96342  -0.90147
 Alpha  occ. eigenvalues --   -0.88604  -0.83877  -0.83310  -0.82437  -0.80315
 Alpha  occ. eigenvalues --   -0.79204  -0.77542  -0.74689  -0.74340  -0.73562
 Alpha  occ. eigenvalues --   -0.71634  -0.69122  -0.66343  -0.63889  -0.63262
 Alpha  occ. eigenvalues --   -0.61764  -0.60013  -0.59903  -0.55854  -0.55312
 Alpha  occ. eigenvalues --   -0.52610  -0.51509  -0.50479  -0.49798  -0.49356
 Alpha  occ. eigenvalues --   -0.48240  -0.47312  -0.47166  -0.46803  -0.45921
 Alpha  occ. eigenvalues --   -0.45071  -0.44906  -0.43523  -0.43284  -0.43200
 Alpha  occ. eigenvalues --   -0.42153  -0.41013  -0.39932  -0.39461  -0.38952
 Alpha  occ. eigenvalues --   -0.38650  -0.38036  -0.37185  -0.36997  -0.35482
 Alpha  occ. eigenvalues --   -0.35265  -0.34583  -0.33831  -0.33826  -0.32948
 Alpha  occ. eigenvalues --   -0.30721  -0.30082  -0.29849  -0.29250  -0.29173
 Alpha  occ. eigenvalues --   -0.28656  -0.27456  -0.26150  -0.25573  -0.23834
 Alpha  occ. eigenvalues --   -0.21127
 Alpha virt. eigenvalues --   -0.04237  -0.03985  -0.03531  -0.03138  -0.02655
 Alpha virt. eigenvalues --   -0.01743  -0.01522  -0.00397  -0.00193  -0.00079
 Alpha virt. eigenvalues --    0.00452   0.00766   0.01502   0.01851   0.02066
 Alpha virt. eigenvalues --    0.02406   0.03015   0.03188   0.03275   0.03577
 Alpha virt. eigenvalues --    0.04017   0.04607   0.05039   0.05453   0.05575
 Alpha virt. eigenvalues --    0.05688   0.06027   0.06430   0.06571   0.06684
 Alpha virt. eigenvalues --    0.06970   0.07423   0.07776   0.07916   0.08551
 Alpha virt. eigenvalues --    0.08679   0.08909   0.09257   0.09642   0.09982
 Alpha virt. eigenvalues --    0.10070   0.10289   0.10308   0.10895   0.11090
 Alpha virt. eigenvalues --    0.11605   0.11934   0.12542   0.12608   0.12867
 Alpha virt. eigenvalues --    0.12930   0.13051   0.13640   0.13727   0.14586
 Alpha virt. eigenvalues --    0.14861   0.15027   0.15076   0.15434   0.15988
 Alpha virt. eigenvalues --    0.15992   0.16173   0.16777   0.16922   0.17246
 Alpha virt. eigenvalues --    0.17419   0.17552   0.18105   0.18313   0.18537
 Alpha virt. eigenvalues --    0.18641   0.18963   0.19087   0.19164   0.19221
 Alpha virt. eigenvalues --    0.19694   0.19973   0.20377   0.20614   0.21153
 Alpha virt. eigenvalues --    0.21513   0.21783   0.21959   0.22438   0.22815
 Alpha virt. eigenvalues --    0.23011   0.23053   0.23402   0.23773   0.24060
 Alpha virt. eigenvalues --    0.24284   0.24957   0.25124   0.25336   0.25572
 Alpha virt. eigenvalues --    0.25911   0.26295   0.26701   0.27008   0.27223
 Alpha virt. eigenvalues --    0.27435   0.27810   0.27958   0.28021   0.28466
 Alpha virt. eigenvalues --    0.28756   0.28940   0.29036   0.29385   0.29946
 Alpha virt. eigenvalues --    0.30202   0.30664   0.30726   0.31316   0.31610
 Alpha virt. eigenvalues --    0.32185   0.32356   0.33509   0.33544   0.34416
 Alpha virt. eigenvalues --    0.34637   0.34850   0.35596   0.36597   0.37148
 Alpha virt. eigenvalues --    0.37879   0.38488   0.39543   0.39652   0.41060
 Alpha virt. eigenvalues --    0.41670   0.42456   0.43288   0.44171   0.46059
 Alpha virt. eigenvalues --    0.47005   0.47034   0.47655   0.48044   0.48287
 Alpha virt. eigenvalues --    0.48380   0.48493   0.48552   0.48859   0.49135
 Alpha virt. eigenvalues --    0.49781   0.51330   0.51950   0.53118   0.54060
 Alpha virt. eigenvalues --    0.55644   0.56089   0.56820   0.57096   0.57348
 Alpha virt. eigenvalues --    0.58120   0.59653   0.60177   0.60561   0.61690
 Alpha virt. eigenvalues --    0.62533   0.62890   0.63646   0.63749   0.63944
 Alpha virt. eigenvalues --    0.64232   0.64239   0.64702   0.65557   0.65783
 Alpha virt. eigenvalues --    0.65914   0.66778   0.67249   0.67570   0.67645
 Alpha virt. eigenvalues --    0.69031   0.69267   0.69550   0.70213   0.71261
 Alpha virt. eigenvalues --    0.71620   0.71708   0.71899   0.72786   0.72961
 Alpha virt. eigenvalues --    0.73385   0.73709   0.74912   0.75053   0.75461
 Alpha virt. eigenvalues --    0.76897   0.77531   0.78505   0.78750   0.79473
 Alpha virt. eigenvalues --    0.80162   0.81221   0.82748   0.83308   0.83546
 Alpha virt. eigenvalues --    0.83686   0.84778   0.86727   0.87092   0.87651
 Alpha virt. eigenvalues --    0.88058   0.89401   0.89415   0.90133   0.90539
 Alpha virt. eigenvalues --    0.91091   0.91741   0.93105   0.93158   0.93787
 Alpha virt. eigenvalues --    0.94367   0.94633   0.95917   0.97454   0.97930
 Alpha virt. eigenvalues --    0.98112   0.98754   0.99157   1.01007   1.01231
 Alpha virt. eigenvalues --    1.03007   1.03073   1.04367   1.04639   1.07410
 Alpha virt. eigenvalues --    1.07910   1.08899   1.09034   1.11143   1.12636
 Alpha virt. eigenvalues --    1.13457   1.13847   1.15138   1.16103   1.17007
 Alpha virt. eigenvalues --    1.17080   1.18142   1.19180   1.20174   1.20352
 Alpha virt. eigenvalues --    1.20423   1.21442   1.21995   1.23851   1.23914
 Alpha virt. eigenvalues --    1.25155   1.25192   1.25802   1.27510   1.27868
 Alpha virt. eigenvalues --    1.28598   1.30458   1.30852   1.31247   1.34504
 Alpha virt. eigenvalues --    1.35798   1.36326   1.37919   1.38418   1.38653
 Alpha virt. eigenvalues --    1.38756   1.40129   1.41944   1.42384   1.43442
 Alpha virt. eigenvalues --    1.43741   1.44636   1.46601   1.47336   1.49336
 Alpha virt. eigenvalues --    1.49589   1.50996   1.54372   1.54373   1.54681
 Alpha virt. eigenvalues --    1.57513   1.59619   1.61113   1.61798   1.62150
 Alpha virt. eigenvalues --    1.63677   1.69972   1.70775   1.72587   1.73598
 Alpha virt. eigenvalues --    1.76563   1.76851   1.79327   1.80651   1.81222
 Alpha virt. eigenvalues --    1.82174   1.83420   1.85126   1.86103   1.87437
 Alpha virt. eigenvalues --    1.87789   1.87823   1.88063   1.88670   1.89599
 Alpha virt. eigenvalues --    1.89924   1.90390   1.92154   1.93217   1.93886
 Alpha virt. eigenvalues --    1.94259   1.95240   1.95917   1.96965   1.97255
 Alpha virt. eigenvalues --    1.97800   1.98884   1.99961   2.00715   2.01063
 Alpha virt. eigenvalues --    2.01856   2.02603   2.02858   2.03210   2.04470
 Alpha virt. eigenvalues --    2.04764   2.04887   2.05270   2.05938   2.07162
 Alpha virt. eigenvalues --    2.07720   2.09235   2.09757   2.11453   2.12102
 Alpha virt. eigenvalues --    2.12151   2.13763   2.13809   2.15425   2.17189
 Alpha virt. eigenvalues --    2.21159   2.21332   2.22489   2.24777   2.25715
 Alpha virt. eigenvalues --    2.25855   2.26823   2.28278   2.30838   2.31577
 Alpha virt. eigenvalues --    2.33974   2.36950   2.37040   2.37891   2.38864
 Alpha virt. eigenvalues --    2.42097   2.45519   2.46805   2.49088   2.49131
 Alpha virt. eigenvalues --    2.49396   2.50092   2.51695   2.52396   2.53201
 Alpha virt. eigenvalues --    2.53715   2.56052   2.56551   2.56680   2.58775
 Alpha virt. eigenvalues --    2.60214   2.60858   2.61650   2.61854   2.63474
 Alpha virt. eigenvalues --    2.64139   2.65770   2.65846   2.67917   2.68932
 Alpha virt. eigenvalues --    2.69707   2.71260   2.71519   2.71966   2.73109
 Alpha virt. eigenvalues --    2.74245   2.76158   2.77816   2.78172   2.79105
 Alpha virt. eigenvalues --    2.80270   2.82045   2.83294   2.84341   2.84546
 Alpha virt. eigenvalues --    2.87387   2.87486   2.89501   2.91351   2.94001
 Alpha virt. eigenvalues --    2.97624   2.98088   2.99693   3.02294   3.05596
 Alpha virt. eigenvalues --    3.08326   3.10774   3.15848   3.18675   3.22111
 Alpha virt. eigenvalues --    3.24248   3.26063   3.27582   3.30604   3.31526
 Alpha virt. eigenvalues --    3.34223   3.37738   3.38815   3.39105   3.40216
 Alpha virt. eigenvalues --    3.41513   3.42064   3.44351   3.46816   3.52778
 Alpha virt. eigenvalues --    3.53102   3.54252   3.63871   3.70879   4.25269
 Alpha virt. eigenvalues --    4.25798   4.27668   4.28056   4.30125   4.34304
 Alpha virt. eigenvalues --    4.35498   4.38073   4.43809   4.45556   4.48206
 Alpha virt. eigenvalues --    4.50258   4.52545   4.53608   4.56703   4.62244
 Alpha virt. eigenvalues --    4.71901   4.77771   4.80067   4.84692   9.00195
 Alpha virt. eigenvalues --    9.02427   9.05608   9.06669  80.96034  81.56601
 Alpha virt. eigenvalues --   82.18127  82.37555
          Condensed to atoms (all electrons):
               1          2          3          4          5          6
     1  C    4.977981   0.056135  -0.071897  -0.028009   0.002128  -0.003628
     2  O    0.056135   8.415347  -0.052420   0.155274  -0.001035   0.023514
     3  C   -0.071897  -0.052420   6.801099  -1.051040  -0.039570   0.311851
     4  C   -0.028009   0.155274  -1.051040   7.099231  -0.208507   0.174804
     5  O    0.002128  -0.001035  -0.039570  -0.208507   8.692784  -0.471087
     6  C   -0.003628   0.023514   0.311851   0.174804  -0.471087  64.702750
     7  C    0.030005   0.002827  -0.153811  -1.735146  -0.185508 -13.995157
     8  Br  -0.000665   0.000445   0.014892  -0.039895  -0.054576  -0.609055
     9  C    0.003140   0.000988   0.000720  -0.889320   0.217443 -19.813530
    10  C    0.000404  -0.000005  -0.038419  -0.330248   0.014980  -0.862544
    11  C   -0.000014   0.000009   0.009764  -0.040985  -0.000727   1.602888
    12  C    0.000014   0.000001   0.000753  -0.043647   0.001516   0.359752
    13  N   -0.000000   0.000000   0.000005   0.000074   0.000015  -0.010151
    14  C    0.000000  -0.000000  -0.000174  -0.001481   0.000071  -0.071967
    15  C    0.000000  -0.000000  -0.000013  -0.000086  -0.000020   0.032179
    16  C    0.000000  -0.000000   0.000001   0.000006  -0.000000   0.001616
    17  C    0.000000   0.000000  -0.000000  -0.000005   0.000000  -0.000254
    18  Br  -0.000000   0.000000  -0.000000  -0.000000   0.000000  -0.000012
    19  C   -0.000000   0.000000   0.000009   0.000016  -0.000002   0.008453
    20  C   -0.000000   0.000000   0.000091   0.000123   0.000010  -0.021006
    21  Br   0.000000   0.000000   0.000013   0.000064  -0.000024   0.021065
    22  C   -0.001670   0.000168  -0.147149   0.240477   0.182215 -12.750502
    23  C   -0.026703   0.006320  -0.252783   2.068520   0.270320 -10.531637
    24  Br   0.001019   0.003153   0.051537  -0.009081   0.018500  -0.506148
    25  H    0.420509  -0.060673   0.035834  -0.031144  -0.000025   0.000340
    26  H    0.407497  -0.051959  -0.024115   0.015670  -0.000029  -0.000069
    27  H    0.407498  -0.051957  -0.024118   0.015670  -0.000029  -0.000069
    28  H   -0.007184  -0.053575   0.436561  -0.078019  -0.000603   0.004990
    29  H   -0.007187  -0.053577   0.436562  -0.077994  -0.000604   0.005023
    30  H   -0.000558   0.003346   0.016326   0.340451  -0.050277   0.087734
    31  H   -0.000559   0.003346   0.016326   0.340479  -0.050288   0.087769
    32  H    0.000001   0.000000   0.000007  -0.000472  -0.000254   0.023146
    33  H   -0.000000   0.000000  -0.000005   0.000040   0.000000   0.006967
    34  H   -0.000000   0.000000  -0.000005   0.000040   0.000000   0.006972
    35  H   -0.000000   0.000000  -0.000004  -0.000016   0.000001   0.005694
    36  H   -0.000000   0.000000  -0.000004  -0.000016   0.000001   0.005693
    37  H    0.000000  -0.000000  -0.000000   0.000001   0.000000   0.000670
    38  H   -0.000000   0.000000   0.000000   0.000000   0.000000  -0.000005
    39  H    0.000000  -0.000000  -0.000000  -0.000000   0.000000  -0.000000
    40  H   -0.000000  -0.000000  -0.000000  -0.000000   0.000000  -0.000001
    41  H   -0.000000   0.000000   0.000141   0.003012  -0.000396  -0.038097
               7          8          9         10         11         12
     1  C    0.030005  -0.000665   0.003140   0.000404  -0.000014   0.000014
     2  O    0.002827   0.000445   0.000988  -0.000005   0.000009   0.000001
     3  C   -0.153811   0.014892   0.000720  -0.038419   0.009764   0.000753
     4  C   -1.735146  -0.039895  -0.889320  -0.330248  -0.040985  -0.043647
     5  O   -0.185508  -0.054576   0.217443   0.014980  -0.000727   0.001516
     6  C  -13.995157  -0.609055 -19.813530  -0.862544   1.602888   0.359752
     7  C   28.414956   0.766708   6.879984  -2.131205  -1.139863  -0.066077
     8  Br   0.766708  35.010450  -0.325506  -0.008458  -0.092011  -0.030483
     9  C    6.879984  -0.325506  25.678520  -0.953094   1.518202   0.398533
    10  C   -2.131205  -0.008458  -0.953094  18.941701  -2.279875  -2.049927
    11  C   -1.139863  -0.092011   1.518202  -2.279875  11.373735   0.246458
    12  C   -0.066077  -0.030483   0.398533  -2.049927   0.246458  10.192538
    13  N    0.000275   0.000234  -0.056344   0.164598  -0.035265   0.177912
    14  C    0.032133   0.014300  -0.339793  -0.233770   0.504125  -1.087008
    15  C    0.079600   0.000933   0.398263  -0.373649  -0.876652  -1.507707
    16  C   -0.007330  -0.000247   0.018677  -0.003327   0.095675   0.670599
    17  C    0.010345  -0.000284   0.007893  -0.045440  -0.095852  -0.469614
    18  Br  -0.000038  -0.000000  -0.000444  -0.002616   0.002436  -0.041302
    19  C   -0.024653  -0.004224   0.004388  -0.225227   0.269869  -0.164353
    20  C   -0.079173  -0.006124  -0.266815   0.206293  -0.012281   1.227910
    21  Br   0.068408  -0.008153  -0.000303  -0.076173  -0.052246   0.054499
    22  C    0.135060   0.186817  -1.704402   0.443097  -3.790758  -0.859721
    23  C  -10.868396   0.148430  -5.647557  -4.346365  -1.163097  -1.344340
    24  Br   0.338575  -0.018189   0.284707  -0.167031  -0.026998  -0.013795
    25  H   -0.000018   0.000017   0.000002  -0.000001   0.000000   0.000000
    26  H    0.000643  -0.000074   0.000033   0.000005   0.000000   0.000000
    27  H    0.000643  -0.000074   0.000033   0.000005   0.000000   0.000000
    28  H    0.020352  -0.000616   0.004140   0.000672   0.000037   0.000008
    29  H    0.020289  -0.000615   0.004129   0.000670   0.000037   0.000008
    30  H    0.001740  -0.000431   0.002935   0.003045   0.000559   0.000050
    31  H    0.001637  -0.000431   0.002919   0.003043   0.000559   0.000050
    32  H   -0.021017  -0.001582   0.202143   0.091804  -0.104283   0.047542
    33  H    0.021604   0.000065   0.144208  -0.084723   0.424670  -0.049558
    34  H    0.021606   0.000065   0.144203  -0.084740   0.424631  -0.049531
    35  H    0.037734   0.000243   0.074592  -0.061991  -0.044247   0.408641
    36  H    0.037736   0.000242   0.074575  -0.062064  -0.044228   0.408700
    37  H    0.002167   0.000016   0.023125   0.017420   0.049482  -0.105100
    38  H    0.000024  -0.000000  -0.000313   0.001574   0.003828   0.001317
    39  H   -0.000000   0.000000  -0.000007  -0.000006  -0.000112  -0.000033
    40  H   -0.000005   0.000001  -0.000002  -0.000058  -0.000029  -0.001342
    41  H   -0.021491  -0.000707   0.066837   0.004151   0.094526  -0.021082
              13         14         15         16         17         18
     1  C   -0.000000   0.000000   0.000000   0.000000   0.000000  -0.000000
     2  O    0.000000  -0.000000  -0.000000  -0.000000   0.000000   0.000000
     3  C    0.000005  -0.000174  -0.000013   0.000001  -0.000000  -0.000000
     4  C    0.000074  -0.001481  -0.000086   0.000006  -0.000005  -0.000000
     5  O    0.000015   0.000071  -0.000020  -0.000000   0.000000   0.000000
     6  C   -0.010151  -0.071967   0.032179   0.001616  -0.000254  -0.000012
     7  C    0.000275   0.032133   0.079600  -0.007330   0.010345  -0.000038
     8  Br   0.000234   0.014300   0.000933  -0.000247  -0.000284  -0.000000
     9  C   -0.056344  -0.339793   0.398263   0.018677   0.007893  -0.000444
    10  C    0.164598  -0.233770  -0.373649  -0.003327  -0.045440  -0.002616
    11  C   -0.035265   0.504125  -0.876652   0.095675  -0.095852   0.002436
    12  C    0.177912  -1.087008  -1.507707   0.670599  -0.469614  -0.041302
    13  N    7.236121  -0.800083   0.390943  -0.042582   0.060053  -0.003138
    14  C   -0.800083  31.602205 -12.327980   0.947898  -3.010495   0.163324
    15  C    0.390943 -12.327980  27.238958  -4.965147   3.517229   0.054693
    16  C   -0.042582   0.947898  -4.965147  12.123303  -1.104440  -0.273555
    17  C    0.060053  -3.010495   3.517229  -1.104440   9.634301   0.402581
    18  Br  -0.003138   0.163324   0.054693  -0.273555   0.402581  34.992779
    19  C   -0.074237   4.164861  -3.315413  -2.512233  -4.678332   0.148094
    20  C    0.110610 -11.917993  -3.157911   1.183036   1.466770  -0.404826
    21  Br   0.026818  -0.872844   0.538061   0.039007  -0.041621  -0.029436
    22  C    0.040854   0.093223  -0.090394   0.010448  -0.010647  -0.000003
    23  C    0.016663  -0.102560  -0.072801   0.003671  -0.002513  -0.000027
    24  Br   0.000267   0.000457  -0.000365  -0.000019   0.000001  -0.000000
    25  H    0.000000  -0.000000  -0.000000  -0.000000   0.000000   0.000000
    26  H   -0.000000   0.000000   0.000000   0.000000  -0.000000   0.000000
    27  H   -0.000000   0.000000   0.000000   0.000000  -0.000000   0.000000
    28  H    0.000000  -0.000000  -0.000000   0.000000  -0.000000   0.000000
    29  H    0.000000  -0.000000  -0.000000   0.000000  -0.000000   0.000000
    30  H    0.000000  -0.000000  -0.000000   0.000000  -0.000000   0.000000
    31  H    0.000000  -0.000000  -0.000000   0.000000  -0.000000   0.000000
    32  H    0.000302   0.002503  -0.000296  -0.000172   0.000167  -0.000001
    33  H    0.001366  -0.001665   0.015750  -0.000261   0.000255  -0.000002
    34  H    0.001355  -0.001678   0.015718  -0.000262   0.000255  -0.000002
    35  H   -0.071347   0.048151   0.025160   0.000495   0.001072   0.000004
    36  H   -0.071322   0.048021   0.025076   0.000495   0.001076   0.000004
    37  H    0.313195  -0.045869   0.032331   0.046995  -0.001608  -0.000047
    38  H   -0.038439   0.291374  -0.081214   0.060822  -0.036747  -0.001331
    39  H    0.000213   0.000457   0.044070   0.173173   0.071700  -0.001328
    40  H   -0.000206  -0.009441  -0.006668   0.043490   0.050435  -0.007132
    41  H    0.000443  -0.000503   0.000140   0.000016  -0.000000  -0.000000
              19         20         21         22         23         24
     1  C   -0.000000  -0.000000   0.000000  -0.001670  -0.026703   0.001019
     2  O    0.000000   0.000000   0.000000   0.000168   0.006320   0.003153
     3  C    0.000009   0.000091   0.000013  -0.147149  -0.252783   0.051537
     4  C    0.000016   0.000123   0.000064   0.240477   2.068520  -0.009081
     5  O   -0.000002   0.000010  -0.000024   0.182215   0.270320   0.018500
     6  C    0.008453  -0.021006   0.021065 -12.750502 -10.531637  -0.506148
     7  C   -0.024653  -0.079173   0.068408   0.135060 -10.868396   0.338575
     8  Br  -0.004224  -0.006124  -0.008153   0.186817   0.148430  -0.018189
     9  C    0.004388  -0.266815  -0.000303  -1.704402  -5.647557   0.284707
    10  C   -0.225227   0.206293  -0.076173   0.443097  -4.346365  -0.167031
    11  C    0.269869  -0.012281  -0.052246  -3.790758  -1.163097  -0.026998
    12  C   -0.164353   1.227910   0.054499  -0.859721  -1.344340  -0.013795
    13  N   -0.074237   0.110610   0.026818   0.040854   0.016663   0.000267
    14  C    4.164861 -11.917993  -0.872844   0.093223  -0.102560   0.000457
    15  C   -3.315413  -3.157911   0.538061  -0.090394  -0.072801  -0.000365
    16  C   -2.512233   1.183036   0.039007   0.010448   0.003671  -0.000019
    17  C   -4.678332   1.466770  -0.041621  -0.010647  -0.002513   0.000001
    18  Br   0.148094  -0.404826  -0.029436  -0.000003  -0.000027  -0.000000
    19  C   22.841580  -9.962954  -0.236163   0.032875   0.002922  -0.000042
    20  C   -9.962954  26.203551   0.437739  -0.083216   0.042321  -0.000030
    21  Br  -0.236163   0.437739  35.126543  -0.044825  -0.008277   0.000028
    22  C    0.032875  -0.083216  -0.044825  16.332771   6.915773  -0.199296
    23  C    0.002922   0.042321  -0.008277   6.915773  30.260950   0.170284
    24  Br  -0.000042  -0.000030   0.000028  -0.199296   0.170284  35.045731
    25  H    0.000000   0.000000   0.000000  -0.000005  -0.000282  -0.000055
    26  H   -0.000000  -0.000000  -0.000000  -0.000001  -0.000115   0.000065
    27  H   -0.000000  -0.000000  -0.000000  -0.000001  -0.000116   0.000065
    28  H    0.000000   0.000000  -0.000000  -0.000639  -0.013230   0.000012
    29  H    0.000000   0.000000  -0.000000  -0.000639  -0.013208   0.000012
    30  H    0.000000   0.000000  -0.000000  -0.007034  -0.066361  -0.009097
    31  H    0.000000   0.000000  -0.000000  -0.007036  -0.066288  -0.009102
    32  H    0.000381   0.001913   0.004189   0.056180  -0.010860  -0.000444
    33  H   -0.001379  -0.013810   0.000407  -0.122299  -0.032152   0.000170
    34  H   -0.001378  -0.013781   0.000407  -0.122290  -0.032117   0.000170
    35  H   -0.020359  -0.052057  -0.005374  -0.033299  -0.006872   0.000007
    36  H   -0.020349  -0.051866  -0.005370  -0.033305  -0.006864   0.000007
    37  H   -0.003176  -0.062443  -0.001654  -0.004889  -0.001280  -0.000003
    38  H   -0.044144   0.136205  -0.000998   0.000111   0.000051   0.000000
    39  H    0.062177  -0.041553  -0.000764   0.000003  -0.000000  -0.000000
    40  H    0.187631   0.044586  -0.001689  -0.000008  -0.000000  -0.000000
    41  H   -0.000016  -0.000115  -0.000005   0.309538  -0.105398   0.002104
              25         26         27         28         29         30
     1  C    0.420509   0.407497   0.407498  -0.007184  -0.007187  -0.000558
     2  O   -0.060673  -0.051959  -0.051957  -0.053575  -0.053577   0.003346
     3  C    0.035834  -0.024115  -0.024118   0.436561   0.436562   0.016326
     4  C   -0.031144   0.015670   0.015670  -0.078019  -0.077994   0.340451
     5  O   -0.000025  -0.000029  -0.000029  -0.000603  -0.000604  -0.050277
     6  C    0.000340  -0.000069  -0.000069   0.004990   0.005023   0.087734
     7  C   -0.000018   0.000643   0.000643   0.020352   0.020289   0.001740
     8  Br   0.000017  -0.000074  -0.000074  -0.000616  -0.000615  -0.000431
     9  C    0.000002   0.000033   0.000033   0.004140   0.004129   0.002935
    10  C   -0.000001   0.000005   0.000005   0.000672   0.000670   0.003045
    11  C    0.000000   0.000000   0.000000   0.000037   0.000037   0.000559
    12  C    0.000000   0.000000   0.000000   0.000008   0.000008   0.000050
    13  N    0.000000  -0.000000  -0.000000   0.000000   0.000000   0.000000
    14  C   -0.000000   0.000000   0.000000  -0.000000  -0.000000  -0.000000
    15  C   -0.000000   0.000000   0.000000  -0.000000  -0.000000  -0.000000
    16  C   -0.000000   0.000000   0.000000   0.000000   0.000000   0.000000
    17  C    0.000000  -0.000000  -0.000000  -0.000000  -0.000000  -0.000000
    18  Br   0.000000   0.000000   0.000000   0.000000   0.000000   0.000000
    19  C    0.000000  -0.000000  -0.000000   0.000000   0.000000   0.000000
    20  C    0.000000  -0.000000  -0.000000   0.000000   0.000000   0.000000
    21  Br   0.000000  -0.000000  -0.000000  -0.000000  -0.000000  -0.000000
    22  C   -0.000005  -0.000001  -0.000001  -0.000639  -0.000639  -0.007034
    23  C   -0.000282  -0.000115  -0.000116  -0.013230  -0.013208  -0.066361
    24  Br  -0.000055   0.000065   0.000065   0.000012   0.000012  -0.009097
    25  H    0.548624  -0.029830  -0.029830  -0.000133  -0.000133   0.000009
    26  H   -0.029830   0.594417  -0.047127  -0.002280   0.008884  -0.000019
    27  H   -0.029830  -0.047127   0.594417   0.008884  -0.002280   0.000001
    28  H   -0.000133  -0.002280   0.008884   0.599205  -0.050260   0.004585
    29  H   -0.000133   0.008884  -0.002280  -0.050260   0.599207  -0.007319
    30  H    0.000009  -0.000019   0.000001   0.004585  -0.007319   0.561419
    31  H    0.000009   0.000001  -0.000019  -0.007320   0.004585  -0.041629
    32  H    0.000000   0.000000   0.000000   0.000000   0.000000   0.000000
    33  H   -0.000000   0.000000  -0.000000   0.000000  -0.000000   0.000000
    34  H   -0.000000  -0.000000   0.000000  -0.000000   0.000000  -0.000000
    35  H   -0.000000   0.000000  -0.000000  -0.000000  -0.000000   0.000000
    36  H   -0.000000  -0.000000   0.000000  -0.000000  -0.000000  -0.000000
    37  H   -0.000000   0.000000   0.000000   0.000000   0.000000   0.000000
    38  H    0.000000   0.000000   0.000000   0.000000   0.000000   0.000000
    39  H    0.000000   0.000000   0.000000   0.000000   0.000000  -0.000000
    40  H    0.000000   0.000000   0.000000   0.000000   0.000000  -0.000000
    41  H    0.000000  -0.000000  -0.000000  -0.000000  -0.000000   0.000002
              31         32         33         34         35         36
     1  C   -0.000559   0.000001  -0.000000  -0.000000  -0.000000  -0.000000
     2  O    0.003346   0.000000   0.000000   0.000000   0.000000   0.000000
     3  C    0.016326   0.000007  -0.000005  -0.000005  -0.000004  -0.000004
     4  C    0.340479  -0.000472   0.000040   0.000040  -0.000016  -0.000016
     5  O   -0.050288  -0.000254   0.000000   0.000000   0.000001   0.000001
     6  C    0.087769   0.023146   0.006967   0.006972   0.005694   0.005693
     7  C    0.001637  -0.021017   0.021604   0.021606   0.037734   0.037736
     8  Br  -0.000431  -0.001582   0.000065   0.000065   0.000243   0.000242
     9  C    0.002919   0.202143   0.144208   0.144203   0.074592   0.074575
    10  C    0.003043   0.091804  -0.084723  -0.084740  -0.061991  -0.062064
    11  C    0.000559  -0.104283   0.424670   0.424631  -0.044247  -0.044228
    12  C    0.000050   0.047542  -0.049558  -0.049531   0.408641   0.408700
    13  N    0.000000   0.000302   0.001366   0.001355  -0.071347  -0.071322
    14  C   -0.000000   0.002503  -0.001665  -0.001678   0.048151   0.048021
    15  C   -0.000000  -0.000296   0.015750   0.015718   0.025160   0.025076
    16  C    0.000000  -0.000172  -0.000261  -0.000262   0.000495   0.000495
    17  C   -0.000000   0.000167   0.000255   0.000255   0.001072   0.001076
    18  Br   0.000000  -0.000001  -0.000002  -0.000002   0.000004   0.000004
    19  C    0.000000   0.000381  -0.001379  -0.001378  -0.020359  -0.020349
    20  C    0.000000   0.001913  -0.013810  -0.013781  -0.052057  -0.051866
    21  Br  -0.000000   0.004189   0.000407   0.000407  -0.005374  -0.005370
    22  C   -0.007036   0.056180  -0.122299  -0.122290  -0.033299  -0.033305
    23  C   -0.066288  -0.010860  -0.032152  -0.032117  -0.006872  -0.006864
    24  Br  -0.009102  -0.000444   0.000170   0.000170   0.000007   0.000007
    25  H    0.000009   0.000000  -0.000000  -0.000000  -0.000000  -0.000000
    26  H    0.000001   0.000000   0.000000  -0.000000   0.000000  -0.000000
    27  H   -0.000019   0.000000  -0.000000   0.000000  -0.000000   0.000000
    28  H   -0.007320   0.000000   0.000000  -0.000000  -0.000000  -0.000000
    29  H    0.004585   0.000000  -0.000000   0.000000  -0.000000  -0.000000
    30  H   -0.041629   0.000000   0.000000  -0.000000   0.000000  -0.000000
    31  H    0.561428   0.000000  -0.000000   0.000000  -0.000000   0.000000
    32  H    0.000000   0.558779   0.000127   0.000127  -0.000418  -0.000419
    33  H   -0.000000   0.000127   0.559210  -0.040555   0.005315  -0.007549
    34  H    0.000000   0.000127  -0.040555   0.559232  -0.007549   0.005315
    35  H   -0.000000  -0.000418   0.005315  -0.007549   0.579905  -0.050595
    36  H    0.000000  -0.000419  -0.007549   0.005315  -0.050595   0.579889
    37  H    0.000000  -0.000004   0.001651   0.001654   0.003408   0.003410
    38  H    0.000000   0.000000   0.000003   0.000003  -0.000009  -0.000009
    39  H   -0.000000  -0.000000   0.000000   0.000000   0.000000   0.000000
    40  H   -0.000000  -0.000000  -0.000000  -0.000000   0.000001   0.000001
    41  H    0.000002  -0.000160   0.000809   0.000810  -0.000002  -0.000002
              37         38         39         40         41
     1  C    0.000000  -0.000000   0.000000  -0.000000  -0.000000
     2  O   -0.000000   0.000000  -0.000000  -0.000000   0.000000
     3  C   -0.000000   0.000000  -0.000000  -0.000000   0.000141
     4  C    0.000001   0.000000  -0.000000  -0.000000   0.003012
     5  O    0.000000   0.000000   0.000000   0.000000  -0.000396
     6  C    0.000670  -0.000005  -0.000000  -0.000001  -0.038097
     7  C    0.002167   0.000024  -0.000000  -0.000005  -0.021491
     8  Br   0.000016  -0.000000   0.000000   0.000001  -0.000707
     9  C    0.023125  -0.000313  -0.000007  -0.000002   0.066837
    10  C    0.017420   0.001574  -0.000006  -0.000058   0.004151
    11  C    0.049482   0.003828  -0.000112  -0.000029   0.094526
    12  C   -0.105100   0.001317  -0.000033  -0.001342  -0.021082
    13  N    0.313195  -0.038439   0.000213  -0.000206   0.000443
    14  C   -0.045869   0.291374   0.000457  -0.009441  -0.000503
    15  C    0.032331  -0.081214   0.044070  -0.006668   0.000140
    16  C    0.046995   0.060822   0.173173   0.043490   0.000016
    17  C   -0.001608  -0.036747   0.071700   0.050435  -0.000000
    18  Br  -0.000047  -0.001331  -0.001328  -0.007132  -0.000000
    19  C   -0.003176  -0.044144   0.062177   0.187631  -0.000016
    20  C   -0.062443   0.136205  -0.041553   0.044586  -0.000115
    21  Br  -0.001654  -0.000998  -0.000764  -0.001689  -0.000005
    22  C   -0.004889   0.000111   0.000003  -0.000008   0.309538
    23  C   -0.001280   0.000051  -0.000000  -0.000000  -0.105398
    24  Br  -0.000003   0.000000  -0.000000  -0.000000   0.002104
    25  H   -0.000000   0.000000   0.000000   0.000000   0.000000
    26  H    0.000000   0.000000   0.000000   0.000000  -0.000000
    27  H    0.000000   0.000000   0.000000   0.000000  -0.000000
    28  H    0.000000   0.000000   0.000000   0.000000  -0.000000
    29  H    0.000000   0.000000   0.000000   0.000000  -0.000000
    30  H    0.000000   0.000000  -0.000000  -0.000000   0.000002
    31  H    0.000000   0.000000  -0.000000  -0.000000   0.000002
    32  H   -0.000004   0.000000  -0.000000  -0.000000  -0.000160
    33  H    0.001651   0.000003   0.000000  -0.000000   0.000809
    34  H    0.001654   0.000003   0.000000  -0.000000   0.000810
    35  H    0.003408  -0.000009   0.000000   0.000001  -0.000002
    36  H    0.003410  -0.000009   0.000000   0.000001  -0.000002
    37  H    0.428894   0.010168  -0.000019   0.000002   0.000003
    38  H    0.010168   0.594315  -0.006358   0.000011  -0.000000
    39  H   -0.000019  -0.006358   0.554021  -0.000150  -0.000000
    40  H    0.000002   0.000011  -0.000150   0.541633  -0.000000
    41  H    0.000003  -0.000000  -0.000000  -0.000000   0.566936
 Mulliken charges:
               1
     1  C   -0.158255
     2  O   -0.345674
     3  C   -0.276963
     4  C    0.111156
     5  O   -0.336425
     6  C   -1.788954
     7  C   -0.496165
     8  Br   0.058540
     9  C   -0.157903
    10  C    0.527493
    11  C   -0.821969
    12  C   -0.292186
    13  N   -0.339204
    14  C   -1.087800
    15  C    0.367209
    16  C   -0.509847
    17  C    0.273719
    18  Br   0.001328
    19  C   -0.434622
    20  C    1.086797
    21  Br   0.068671
    22  C    1.034419
    23  C    0.815972
    24  Br   0.042820
    25  H    0.146784
    26  H    0.128404
    27  H    0.128403
    28  H    0.134412
    29  H    0.134410
    30  H    0.160524
    31  H    0.160518
    32  H    0.151073
    33  H    0.171339
    34  H    0.171323
    35  H    0.163714
    36  H    0.163718
    37  H    0.291500
    38  H    0.109761
    39  H    0.144516
    40  H    0.158939
    41  H    0.138506
 Sum of Mulliken charges =  -0.00000
 Mulliken charges with hydrogens summed into heavy atoms:
               1
     1  C    0.245337
     2  O   -0.345674
     3  C   -0.008142
     4  C    0.432198
     5  O   -0.336425
     6  C   -1.788954
     7  C   -0.496165
     8  Br   0.058540
     9  C   -0.006831
    10  C    0.527493
    11  C   -0.479306
    12  C    0.035246
    13  N   -0.047705
    14  C   -1.087800
    15  C    0.476970
    16  C   -0.365331
    17  C    0.273719
    18  Br   0.001328
    19  C   -0.275683
    20  C    1.086797
    21  Br   0.068671
    22  C    1.172925
    23  C    0.815972
    24  Br   0.042820
 Electronic spatial extent (au):  <R**2>=          32167.5720
 Charge=             -0.0000 electrons
 Dipole moment (field-independent basis, Debye):
    X=             -2.8778    Y=              2.2537    Z=              0.0002  Tot=              3.6553
 Quadrupole moment (field-independent basis, Debye-Ang):
   XX=           -201.8891   YY=           -182.8219   ZZ=           -197.9010
   XY=             18.4970   XZ=             -0.0009   YZ=              0.0000
 Traceless Quadrupole moment (field-independent basis, Debye-Ang):
   XX=             -7.6851   YY=             11.3821   ZZ=             -3.6970
   XY=             18.4970   XZ=             -0.0009   YZ=              0.0000
 Octapole moment (field-independent basis, Debye-Ang**2):
  XXX=           -315.5762  YYY=            -34.5513  ZZZ=             -0.0027  XYY=             36.8627
  XXY=           -102.6755  XXZ=              0.0102  XZZ=              3.4365  YZZ=            -22.7084
  YYZ=              0.0017  XYZ=              0.0072
 Hexadecapole moment (field-independent basis, Debye-Ang**3):
 XXXX=         -31607.3816 YYYY=          -3249.6472 ZZZZ=           -270.8974 XXXY=            770.5156
 XXXZ=             -0.0357 YYYX=           -218.6288 YYYZ=              0.0201 ZZZX=              0.0314
 ZZZY=              0.0091 XXYY=          -5570.9397 XXZZ=          -5550.9132 YYZZ=           -638.2713
 XXYZ=             -0.0333 YYXZ=              0.0067 ZZXY=           -119.9130
 N-N= 3.786946343922D+03 E-N=-3.410727208379D+04  KE= 1.107642596975D+04
 Unable to Open any file for archive entry.
 1\1\GINC-N1\SP\RB3LYP TD-FC\6-31+G(d,p)\C17H17Br4N1O2\HPCMGAC13\04-Sep
 -2025\0\\# td=(50-50,nstates=3) b3lyp/6-31+g(d,p) geom=connectivity\\T
 itle Card Required\\0,1\C,0,-9.530166,-1.684874,0.000453\O,0,-8.540367
 ,-0.670425,0.000363\C,0,-7.220997,-1.1834,0.000191\C,0,-6.284154,0.017
 17,0.00007\O,0,-4.963588,-0.54252,-0.000099\C,0,-3.789074,0.127556,-0.
 000108\C,0,-2.648454,-0.706064,-0.000088\Br,0,-2.894119,-2.592687,-0.0
 00164\C,0,-1.349653,-0.214468,-0.000127\C,0,-1.113929,1.163815,-0.0001
 13\C,0,0.277489,1.771248,-0.000128\C,0,1.425247,0.759712,-0.00007\N,0,
 2.6886,1.486962,-0.000006\C,0,3.996177,1.042265,0.000047\C,0,4.999682,
 2.045787,0.000073\C,0,6.355846,1.765312,0.000085\C,0,6.775143,0.434411
 ,0.00003\Br,0,8.632901,0.009693,0.000118\C,0,5.833905,-0.584376,0.0000
 15\C,0,4.467177,-0.288681,0.000042\Br,0,3.320073,-1.827252,-0.00004\C,
 0,-2.225906,2.007342,-0.000096\C,0,-3.532098,1.513037,-0.000113\Br,0,-
 4.898129,2.861476,-0.000046\H,0,-10.50084,-1.184867,0.000597\H,0,-9.45
 1627,-2.320802,-0.894187\H,0,-9.451396,-2.32087,0.895024\H,0,-7.037559
 ,-1.803961,0.891065\H,0,-7.03779,-1.803959,-0.890732\H,0,-6.451235,0.6
 25887,-0.891404\H,0,-6.451005,0.625887,0.891588\H,0,-0.532784,-0.92516
 3,-0.000146\H,0,0.379378,2.421184,-0.880662\H,0,0.379351,2.42126,0.880
 353\H,0,1.349467,0.118954,0.884733\H,0,1.349568,0.118955,-0.884879\H,0
 ,2.603327,2.491754,0.000103\H,0,4.681382,3.085792,0.000082\H,0,7.07774
 3,2.574188,0.000125\H,0,6.148244,-1.620631,-0.000002\H,0,-2.085626,3.0
 83406,-0.000075\\Version=ES64L-G16RevC.02\State=1-A\HF=-11150.179458\R
 MSD=7.381e-09\PG=C01 [X(C17H17Br4N1O2)]\\@
 The archive entry for this job was punched.


 ALL SCIENCE IS EITHER PHYSICS, OR STAMP COLLECTING.
   --ERNEST RUTHERFORD, 1871-1937.
 Job cpu time:       0 days  2 hours  8 minutes 36.8 seconds.
 Elapsed time:       0 days  0 hours  8 minutes 18.1 seconds.
 File lengths (MBytes):  RWF=   1697 Int=      0 D2E=      0 Chk=     89 Scr=      2
 Normal termination of Gaussian 16 at Thu Sep  4 20:37:46 2025.
