 Entering Gaussian System, Link 0=g16
 Input=M892enew.gjf
 Output=M892enew.log
 Initial command:
 /hpc/softwares/Gaussian/g16/l1.exe "/hpc/home/hpcmgac13/pbs.13858.admin1.x8z/Gau-3536831.inp" -scrdir="/hpc/home/hpcmgac13/pbs.13858.admin1.x8z/"
 Default linda workers: n2
 Default is to use   8 SMP processors on each worker.
 Entering Link 1 = /hpc/softwares/Gaussian/g16/l1.exe PID=   3536832.
  
 Copyright (c) 1988-2021, Gaussian, Inc.  All Rights Reserved.
  
 This is part of the Gaussian(R) 16 program.  It is based on
 the Gaussian(R) 09 system (copyright 2009, Gaussian, Inc.),
 the Gaussian(R) 03 system (copyright 2003, Gaussian, Inc.),
 the Gaussian(R) 98 system (copyright 1998, Gaussian, Inc.),
 the Gaussian(R) 94 system (copyright 1995, Gaussian, Inc.),
 the Gaussian 92(TM) system (copyright 1992, Gaussian, Inc.),
 the Gaussian 90(TM) system (copyright 1990, Gaussian, Inc.),
 the Gaussian 88(TM) system (copyright 1988, Gaussian, Inc.),
 the Gaussian 86(TM) system (copyright 1986, Carnegie Mellon
 University), and the Gaussian 82(TM) system (copyright 1983,
 Carnegie Mellon University). Gaussian is a federally registered
 trademark of Gaussian, Inc.
  
 This software contains proprietary and confidential information,
 including trade secrets, belonging to Gaussian, Inc.
  
 This software is provided under written license and may be
 used, copied, transmitted, or stored only in accord with that
 written license.
  
 The following legend is applicable only to US Government
 contracts under FAR:
  
                    RESTRICTED RIGHTS LEGEND
  
 Use, reproduction and disclosure by the US Government is
 subject to restrictions as set forth in subparagraphs (a)
 and (c) of the Commercial Computer Software - Restricted
 Rights clause in FAR 52.227-19.
  
 Gaussian, Inc.
 340 Quinnipiac St., Bldg. 40, Wallingford CT 06492
  
  
 ---------------------------------------------------------------
 Warning -- This program may not be used in any manner that
 competes with the business of Gaussian, Inc. or will provide
 assistance to any competitor of Gaussian, Inc.  The licensee
 of this program is prohibited from giving any competitor of
 Gaussian, Inc. access to this program.  By using this program,
 the user acknowledges that Gaussian, Inc. is engaged in the
 business of creating and licensing software in the field of
 computational chemistry and represents and warrants to the
 licensee that it is not a competitor of Gaussian, Inc. and that
 it will not use this program in any manner prohibited above.
 ---------------------------------------------------------------
  

 Cite this work as:
 Gaussian 16, Revision C.02,
 M. J. Frisch, G. W. Trucks, H. B. Schlegel, G. E. Scuseria, 
 M. A. Robb, J. R. Cheeseman, G. Scalmani, V. Barone, 
 G. A. Petersson, H. Nakatsuji, X. Li, M. Caricato, A. V. Marenich, 
 J. Bloino, B. G. Janesko, R. Gomperts, B. Mennucci, H. P. Hratchian, 
 J. V. Ortiz, A. F. Izmaylov, J. L. Sonnenberg, D. Williams-Young, 
 F. Ding, F. Lipparini, F. Egidi, J. Goings, B. Peng, A. Petrone, 
 T. Henderson, D. Ranasinghe, V. G. Zakrzewski, J. Gao, N. Rega, 
 G. Zheng, W. Liang, M. Hada, M. Ehara, K. Toyota, R. Fukuda, 
 J. Hasegawa, M. Ishida, T. Nakajima, Y. Honda, O. Kitao, H. Nakai, 
 T. Vreven, K. Throssell, J. A. Montgomery, Jr., J. E. Peralta, 
 F. Ogliaro, M. J. Bearpark, J. J. Heyd, E. N. Brothers, K. N. Kudin, 
 V. N. Staroverov, T. A. Keith, R. Kobayashi, J. Normand, 
 K. Raghavachari, A. P. Rendell, J. C. Burant, S. S. Iyengar, 
 J. Tomasi, M. Cossi, J. M. Millam, M. Klene, C. Adamo, R. Cammi, 
 J. W. Ochterski, R. L. Martin, K. Morokuma, O. Farkas, 
 J. B. Foresman, and D. J. Fox, Gaussian, Inc., Wallingford CT, 2019.
 
 ******************************************
 Gaussian 16:  ES64L-G16RevC.02  7-Dec-2021
                 4-Sep-2025 
 ******************************************
 SetLPE:    new flags="-opt 'Tsnet.Node.lindarsharg: ssh'  -nodelist 'n2.head.cm.mguif.local' -env GAUSS_MDEF=2147483648 -env GAUSS_EXEDIR="/hpc/softwares/Gaussian/g16/bsd:/hpc/softwares/Gaussian/g16""
 Will use up to    1 processors via Linda.
 ----------------------------------------------------------
 # td=(50-50,nstates=3) b3lyp/6-31+g(d,p) geom=connectivity
 ----------------------------------------------------------
 1/38=1,57=2,172=1/1;
 2/12=2,17=6,18=5,40=1/2;
 3/5=1,6=6,7=111,11=9,25=1,30=1,74=-5/1,2,3,8;
 4//1;
 5/5=2,38=5/2;
 8/6=1,10=2,108=3/1;
 9/41=3,42=1,48=2,70=2/14;
 6/7=2,8=2,9=2,10=2/1;
 99/5=1,9=1/99;
 -------------------
 Title Card Required
 -------------------
 Symbolic Z-matrix:
 Charge =  0 Multiplicity = 1
 C                    -2.28572  -2.39605  -1.94597 
 C                    -0.96126  -2.46192  -1.24124 
 C                    -0.23771  -1.47806  -0.65018 
 C                     1.12524  -1.73873  -0.19475 
 C                     2.00512  -0.73776  -0.05124 
 C                     3.47214  -0.79986   0.33636 
 C                     3.91865  -2.25923   0.54115 
 C                     4.32484  -0.16403  -0.78882 
 C                     3.68986  -0.01737   1.65463 
 O                     1.59928   0.57309  -0.2897 
 C                     0.2835    0.91943  -0.36414 
 C                     0.11843   2.45271  -0.31055 
 C                     1.48645   3.14245  -0.10087 
 C                    -0.45903   2.95002  -1.66115 
 C                    -0.79602   2.88376   0.86336 
 C                    -0.66365  -0.06762  -0.46172 
 C                    -2.10112   0.2075   -0.23703 
 O                    -2.81135   0.99464  -0.83361 
 C                    -2.79278  -0.5254    0.97232 
 F                    -3.28344   0.42001   1.80793 
 F                    -3.83243  -1.28282   0.56492 
 F                    -1.96943  -1.30661   1.70047 
 H                    -2.20096  -2.88722  -2.92348 
 H                    -3.07256  -2.92768  -1.3962 
 H                    -2.63605  -1.37738  -2.12327 
 H                    -0.48663  -3.44303  -1.2594 
 H                     1.43783  -2.76215  -0.02836 
 H                     4.97866  -2.27895   0.81365 
 H                     3.35974  -2.74581   1.34725 
 H                     3.7987   -2.85203  -0.37165 
 H                     5.38487  -0.19476  -0.51432 
 H                     4.04758   0.87961  -0.95814 
 H                     4.20068  -0.70881  -1.73086 
 H                     3.40389   1.03198   1.54658 
 H                     3.10261  -0.45202   2.47056 
 H                     4.74718  -0.05285   1.93918 
 H                     1.32616   4.22502  -0.0943 
 H                     1.94588   2.864     0.85149 
 H                     2.1926    2.9104   -0.90177 
 H                    -0.53534   4.04292  -1.63942 
 H                    -1.44789   2.53487  -1.8554 
 H                     0.2044    2.67649  -2.48925 
 H                    -0.41681   2.50133   1.81703 
 H                    -0.80204   3.97741   0.9217 
 H                    -1.82995   2.5625    0.74397 
 
                          Input orientation:                          
 ---------------------------------------------------------------------
 Center     Atomic      Atomic             Coordinates (Angstroms)
 Number     Number       Type             X           Y           Z
 ---------------------------------------------------------------------
      1          6           0       -2.285722   -2.396050   -1.945965
      2          6           0       -0.961259   -2.461922   -1.241243
      3          6           0       -0.237708   -1.478057   -0.650175
      4          6           0        1.125242   -1.738730   -0.194753
      5          6           0        2.005121   -0.737764   -0.051243
      6          6           0        3.472143   -0.799863    0.336357
      7          6           0        3.918653   -2.259225    0.541153
      8          6           0        4.324845   -0.164028   -0.788815
      9          6           0        3.689864   -0.017369    1.654630
     10          8           0        1.599279    0.573091   -0.289704
     11          6           0        0.283499    0.919432   -0.364138
     12          6           0        0.118426    2.452710   -0.310549
     13          6           0        1.486447    3.142447   -0.100865
     14          6           0       -0.459031    2.950022   -1.661153
     15          6           0       -0.796022    2.883760    0.863362
     16          6           0       -0.663647   -0.067618   -0.461724
     17          6           0       -2.101117    0.207495   -0.237028
     18          8           0       -2.811354    0.994642   -0.833606
     19          6           0       -2.792777   -0.525400    0.972324
     20          9           0       -3.283440    0.420013    1.807927
     21          9           0       -3.832428   -1.282824    0.564920
     22          9           0       -1.969433   -1.306607    1.700468
     23          1           0       -2.200959   -2.887223   -2.923478
     24          1           0       -3.072564   -2.927678   -1.396199
     25          1           0       -2.636048   -1.377382   -2.123274
     26          1           0       -0.486626   -3.443027   -1.259401
     27          1           0        1.437829   -2.762145   -0.028357
     28          1           0        4.978656   -2.278954    0.813645
     29          1           0        3.359737   -2.745810    1.347245
     30          1           0        3.798703   -2.852027   -0.371650
     31          1           0        5.384869   -0.194755   -0.514318
     32          1           0        4.047582    0.879606   -0.958143
     33          1           0        4.200684   -0.708814   -1.730861
     34          1           0        3.403891    1.031979    1.546582
     35          1           0        3.102613   -0.452018    2.470562
     36          1           0        4.747185   -0.052846    1.939183
     37          1           0        1.326159    4.225019   -0.094295
     38          1           0        1.945875    2.863996    0.851487
     39          1           0        2.192605    2.910404   -0.901767
     40          1           0       -0.535335    4.042919   -1.639415
     41          1           0       -1.447889    2.534869   -1.855397
     42          1           0        0.204397    2.676488   -2.489245
     43          1           0       -0.416806    2.501331    1.817026
     44          1           0       -0.802036    3.977405    0.921695
     45          1           0       -1.829949    2.562496    0.743974
 ---------------------------------------------------------------------
                    Distance matrix (angstroms):
                    1          2          3          4          5
     1  C    0.000000
     2  C    1.501724   0.000000
     3  C    2.591552   1.356790   0.000000
     4  C    3.890178   2.443693   1.460477   0.000000
     5  C    4.975060   3.631560   2.436603   1.340416   0.000000
     6  C    6.396078   4.990623   3.898229   2.582923   1.518632
     7  C    6.685712   5.199189   4.393725   2.935237   2.515429
     8  C    7.072518   5.781687   4.750030   3.615253   2.500861
     9  C    7.370891   5.999572   4.782422   3.600082   2.503464
    10  O    5.162580   4.083269   2.776989   2.361830   1.392807
    11  C    4.482800   3.708408   2.470107   2.793394   2.410017
    12  C    5.653759   5.117179   3.961453   4.312222   3.715640
    13  C    6.950439   6.220987   4.962208   4.895424   3.915038
    14  C    5.656713   5.451394   4.547411   5.161845   4.718434
    15  C    6.163434   5.747433   4.650587   5.116471   4.668869
    16  C    3.202451   2.535530   1.485354   2.462522   2.782070
    17  C    3.119774   3.071402   2.546384   3.768152   4.217727
    18  O    3.606997   3.941682   3.573729   4.834899   5.178007
    19  C    3.503262   3.464745   3.173080   4.264400   4.910460
    20  F    4.797641   4.795364   4.349876   5.301639   5.724145
    21  F    3.152160   3.591115   3.799550   5.036213   5.895229
    22  F    3.818822   3.317353   2.924686   3.654532   4.380543
    23  H    1.097254   2.132522   3.317832   4.452930   5.528202
    24  H    1.097265   2.167614   3.270223   4.525334   5.691003
    25  H    1.091719   2.181542   2.816415   4.242295   5.122780
    26  H    2.191866   1.090034   2.072251   2.576087   3.871291
    27  H    4.204293   2.704968   2.200674   1.082948   2.102490
    28  H    7.771766   6.287975   5.476738   4.019640   3.459076
    29  H    6.545133   5.044985   4.305635   2.895675   2.796963
    30  H    6.301318   4.854443   4.272936   2.901399   2.791004
    31  H    8.107606   6.778039   5.768769   4.542070   3.454272
    32  H    7.198365   6.027806   4.900727   3.997314   2.758623
    33  H    6.705706   5.473460   4.632380   3.588690   2.764498
    34  H    7.504729   6.247707   4.938346   3.987646   2.764343
    35  H    7.233196   5.859374   4.685029   3.559428   2.765075
    36  H    8.369394   6.964560   5.795270   4.529278   3.456852
    37  H    7.766139   7.159815   5.939677   5.967978   5.009197
    38  H    7.307546   6.418438   5.086890   4.790944   3.713638
    39  H    7.021696   6.238909   5.022779   4.822197   3.750689
    40  H    6.679682   6.530919   5.616792   6.186439   5.641909
    41  H    5.002412   5.057857   4.361270   5.257603   5.088062
    42  H    5.676838   5.414750   4.564853   5.060316   4.565477
    43  H    6.452696   5.855196   4.685583   4.939968   4.455098
    44  H    7.144629   6.794747   5.705375   6.134742   5.573110
    45  H    5.659565   5.471790   4.561244   5.302349   5.121704
                    6          7          8          9         10
     6  C    0.000000
     7  C    1.539821   0.000000
     8  C    1.548354   2.514688   0.000000
     9  C    1.548400   2.513582   2.528860   0.000000
    10  O    2.405114   3.753909   2.867258   2.915411   0.000000
    11  C    3.689732   4.913019   4.205557   4.068949   1.362633
    12  C    4.716475   6.113056   4.976949   4.766381   2.392975
    13  C    4.435759   5.958681   4.411639   4.233349   2.578756
    14  C    5.788421   7.151959   5.774405   6.083844   3.430352
    15  C    5.662512   6.984431   6.184010   5.400540   3.522246
    16  C    4.275263   5.177487   5.000134   4.840923   2.358163
    17  C    5.692519   6.551939   6.460301   6.096261   3.718786
    18  O    6.638629   7.600698   7.229790   7.034296   4.463991
    19  C    6.303095   6.945167   7.341168   6.538216   4.699952
    20  F    7.020792   7.788015   8.060408   6.988689   5.316431
    21  F    7.324087   7.812374   8.344184   7.705435   5.803296
    22  F    5.632791   6.076269   6.864397   5.804471   4.497750
    23  H    6.867873   7.060290   7.386386   7.993556   5.775149
    24  H    7.096657   7.285415   7.920122   7.969184   5.941871
    25  H    6.610092   7.130282   7.190761   7.492620   5.010421
    26  H    5.020419   4.904066   5.841536   6.137571   4.628230
    27  H    2.849912   2.594563   3.957698   3.929110   3.349353
    28  H    2.164508   1.094645   2.732812   2.735509   4.557601
    29  H    2.195732   1.094960   3.487088   2.765476   4.098038
    30  H    2.195289   1.094994   2.770594   3.486107   4.071316
    31  H    2.179065   2.743327   1.095419   2.758413   3.869203
    32  H    2.197152   3.480915   1.093032   2.785518   2.556355
    33  H    2.193730   2.765025   1.095289   3.492933   3.238444
    34  H    2.196576   3.479640   2.780768   1.092971   2.615177
    35  H    2.193714   2.766683   3.492897   1.095230   3.306044
    36  H    2.180096   2.740267   2.762735   1.095517   3.907563
    37  H    5.480889   7.012149   5.360803   5.161753   3.667337
    38  H    4.002339   5.498687   4.185573   3.462485   2.582768
    39  H    4.115368   5.637936   3.743172   4.165190   2.487909
    40  H    6.589089   8.019346   6.484078   6.722275   4.291620
    41  H    6.334898   7.584627   6.461122   6.725378   3.947810
    42  H    5.545016   6.880427   5.285649   6.047896   3.347828
    43  H    5.311703   6.564065   6.031401   4.820266   3.495857
    44  H    6.436887   7.831045   6.808981   6.055789   4.338566
    45  H    6.291565   7.505768   6.903975   6.160628   4.097051
                   11         12         13         14         15
    11  C    0.000000
    12  C    1.543069   0.000000
    13  C    2.541297   1.546346   0.000000
    14  C    2.521288   1.550776   2.501282   0.000000
    15  C    2.555525   1.549221   2.491248   2.547770   0.000000
    16  C    1.371450   2.643207   3.880418   3.253713   3.237902
    17  C    2.491868   3.157969   4.637143   3.499433   3.174354
    18  O    3.131161   3.314085   4.860151   3.168875   3.241918
    19  C    3.652006   4.357752   5.737299   4.945718   3.952376
    20  F    4.205989   4.493605   5.814375   5.139333   3.626224
    21  F    4.759615   5.507260   6.951023   5.852537   5.164228
    22  F    3.780681   4.747190   5.914557   5.630338   4.431345
    23  H    5.216644   6.381366   7.610587   6.221029   7.044022
    24  H    5.208509   6.348986   7.701226   6.438021   6.637851
    25  H    4.110191   5.053979   6.443133   4.866147   5.519332
    26  H    4.519473   6.002177   6.971635   6.405719   6.680575
    27  H    3.872885   5.386573   5.905237   6.236421   6.136896
    28  H    5.801840   6.875630   6.513328   7.939474   7.746160
    29  H    5.081936   6.346573   6.346480   7.488388   7.014024
    30  H    5.155639   6.456656   6.430674   7.311285   7.452248
    31  H    5.223786   5.897967   5.148355   6.734688   7.041212
    32  H    3.810872   4.281624   3.523462   5.009032   5.549325
    33  H    4.456844   5.355124   4.985597   5.924937   6.678597
    34  H    3.660651   4.032579   3.293137   5.374999   4.640598
    35  H    4.226559   5.007734   4.705785   6.428861   5.376789
    36  H    5.116161   5.724030   5.000411   7.006020   6.364604
    37  H    3.476616   2.155566   1.094394   2.695842   2.686956
    38  H    2.832414   2.204326   1.093427   3.479128   2.741994
    39  H    2.810285   2.204822   1.092679   2.758516   3.471063
    40  H    3.471742   2.173029   2.695476   1.095773   2.770469
    41  H    2.798427   2.201510   3.472443   1.089919   2.817500
    42  H    2.758547   2.191845   2.750478   1.095762   3.504821
    43  H    2.783937   2.194405   2.776996   3.507255   1.095231
    44  H    3.490409   2.165726   2.641957   2.800763   1.095216
    45  H    2.897280   2.218161   3.471106   2.795394   1.089252
                   16         17         18         19         20
    16  C    0.000000
    17  C    1.480708   0.000000
    18  O    2.424735   1.216529   0.000000
    19  C    2.607538   1.574186   2.360563   0.000000
    20  F    3.500345   2.371686   2.744223   1.353805   0.000000
    21  F    3.545687   2.421076   2.861000   1.349275   2.178556
    22  F    2.813405   2.462465   3.525069   1.348471   2.172413
    23  H    4.046447   4.099300   4.450733   4.594097   5.873310
    24  H    3.854357   3.480905   3.971062   3.385132   4.638742
    25  H    2.892507   2.521093   2.705637   3.214524   4.370822
    26  H    3.472897   4.120454   5.027780   4.337220   5.670427
    27  H    3.444486   4.624548   5.728650   4.889010   5.982345
    28  H    6.192912   7.576908   8.608956   7.968394   8.748443
    29  H    5.160688   6.407250   7.538531   6.551657   7.373362
    30  H    5.260572   6.647306   7.661796   7.118080   8.100219
    31  H    6.050081   7.501912   8.288225   8.318252   8.995018
    32  H    4.831081   6.227218   6.861031   7.245085   7.848965
    33  H    5.067895   6.540937   7.271555   7.499956   8.355201
    34  H    4.667684   5.845182   6.655521   6.415130   6.720357
    35  H    4.788609   5.902949   6.927146   6.083233   6.479290
    36  H    5.919601   7.190474   8.118935   7.616374   8.045605
    37  H    4.745636   5.282716   5.301031   6.377287   6.272553
    38  H    4.138658   4.961855   5.381937   5.827300   5.850946
    39  H    4.149750   5.116996   5.358581   6.338060   6.597845
    40  H    4.277842   4.373653   3.888648   5.725973   5.706286
    41  H    3.054554   2.909037   2.296822   4.378353   4.611053
    42  H    3.520577   4.060025   3.829426   5.587271   5.976820
    43  H    3.442838   3.509662   3.876831   3.939525   3.542536
    44  H    4.277290   4.152406   4.001914   4.923501   4.426941
    45  H    3.119530   2.565527   2.431066   3.242574   2.799083
                   21         22         23         24         25
    21  F    0.000000
    22  F    2.181922   0.000000
    23  H    4.171895   4.892119   0.000000
    24  H    2.670005   3.665258   1.758952   0.000000
    25  H    2.943918   3.882060   1.763306   1.767089   0.000000
    26  H    4.380527   3.940029   2.452959   2.640336   3.103737
    27  H    5.505995   4.088626   4.651682   4.716147   4.785679
    28  H    8.870701   7.071623   8.116831   8.374151   8.211093
    29  H    7.381030   5.531376   7.012875   6.995288   7.061624
    30  H    7.846892   6.320869   6.519893   6.947642   6.829992
    31  H    9.343833   7.760622   8.402275   8.931671   8.265740
    32  H    8.312062   6.931970   7.556177   8.086024   7.149995
    33  H    8.374425   7.085317   6.866501   7.611537   6.880543
    34  H    7.660697   5.862190   8.170430   8.141456   7.466842
    35  H    7.239924   5.200867   7.946934   7.695034   7.408904
    36  H    8.775603   6.836802   8.941805   8.974291   8.530538
    37  H    7.575085   6.684384   8.427860   8.497340   7.155609
    38  H    7.118077   5.783108   8.032628   7.986258   6.916105
    39  H    7.485677   6.471273   7.550046   7.877161   6.572144
    40  H    6.640290   6.467525   7.242236   7.421988   5.833248
    41  H    5.110650   5.260525   5.577364   5.717504   4.097461
    42  H    6.426510   6.176105   6.076938   6.583305   4.963459
    43  H    5.249197   4.113955   7.395410   6.844852   5.957803
    44  H    6.081165   5.467183   7.991587   7.629423   6.427222
    45  H    4.339178   3.988019   6.579308   6.022163   4.938982
                   26         27         28         29         30
    26  H    0.000000
    27  H    2.383820   0.000000
    28  H    5.960025   3.671498   0.000000
    29  H    4.698428   2.363531   1.767366   0.000000
    30  H    4.416042   2.387395   1.767944   1.777238   0.000000
    31  H    6.751361   4.733579   2.504472   3.751594   3.097962
    32  H    6.271758   4.575769   3.739336   4.351044   3.785631
    33  H    5.446932   3.840320   3.089513   3.785668   2.569515
    34  H    6.560133   4.554252   3.738898   3.783302   4.349827
    35  H    5.978411   3.788507   3.098807   2.566990   3.784541
    36  H    7.008355   4.707797   2.505189   3.086658   3.751664
    37  H    7.965086   6.988367   7.514436   7.403103   7.501665
    38  H    7.081769   5.717141   5.970689   5.806437   6.132043
    39  H    6.904511   5.788812   6.134668   6.197823   6.005513
    40  H    7.495744   7.266208   8.740004   8.377265   8.242050
    41  H    6.083953   6.302682   8.461510   7.826606   7.664651
    42  H    6.280007   6.095577   7.632761   7.353648   6.925873
    43  H    6.693629   5.877864   7.277974   6.481933   7.156763
    44  H    7.740767   7.165272   8.518809   7.918527   8.335507
    45  H    6.471811   6.294972   8.354735   7.448147   7.889449
                   31         32         33         34         35
    31  H    0.000000
    32  H    1.771883   0.000000
    33  H    1.773845   1.773023   0.000000
    34  H    3.110701   2.590599   3.795639   0.000000
    35  H    3.766216   3.797658   4.350133   1.773909   0.000000
    36  H    2.538985   3.123045   3.768047   1.770712   1.773787
    37  H    6.015310   4.398200   5.940029   4.147885   5.622184
    38  H    4.800840   3.410240   4.951531   2.442387   3.867221
    39  H    4.470199   2.751047   4.221199   3.315133   4.848360
    40  H    7.366990   5.610152   6.709486   5.893542   7.094437
    41  H    7.479032   5.809059   6.514857   6.113257   6.952876
    42  H    6.243530   4.510336   5.292044   5.406392   6.541169
    43  H    6.809073   5.501119   6.649342   4.102421   4.640656
    44  H    7.599135   6.053837   7.350096   5.172605   6.104512
    45  H    7.825556   6.346234   7.293477   5.511782   6.033123
                   36         37         38         39         40
    36  H    0.000000
    37  H    5.842823   0.000000
    38  H    4.187886   1.769445   0.000000
    39  H    4.835052   1.769450   1.771138   0.000000
    40  H    7.581997   2.426049   3.708215   3.044400   0.000000
    41  H    7.711942   3.695055   4.353525   3.782014   1.775843
    42  H    6.906313   3.064651   3.772055   2.554951   1.771030
    43  H    5.762425   3.108404   2.577994   3.790541   3.786493
    44  H    6.933402   2.371236   2.965742   3.664885   2.575792
    45  H    7.178247   3.664382   3.789368   4.360097   3.090020
                   41         42         43         44         45
    41  H    0.000000
    42  H    1.775350   0.000000
    43  H    3.814570   4.354371   0.000000
    44  H    3.195352   3.786793   1.768845   0.000000
    45  H    2.627444   3.821683   1.775431   1.757884   0.000000
 Stoichiometry    C17H23F3O2
 Framework group  C1[X(C17H23F3O2)]
 Deg. of freedom   129
 Full point group                 C1      NOp   1
 Largest Abelian subgroup         C1      NOp   1
 Largest concise Abelian subgroup C1      NOp   1
                         Standard orientation:                         
 ---------------------------------------------------------------------
 Center     Atomic      Atomic             Coordinates (Angstroms)
 Number     Number       Type             X           Y           Z
 ---------------------------------------------------------------------
      1          6           0       -2.285722   -2.396050   -1.945965
      2          6           0       -0.961259   -2.461922   -1.241243
      3          6           0       -0.237708   -1.478057   -0.650175
      4          6           0        1.125242   -1.738730   -0.194753
      5          6           0        2.005121   -0.737764   -0.051243
      6          6           0        3.472143   -0.799863    0.336357
      7          6           0        3.918653   -2.259225    0.541153
      8          6           0        4.324845   -0.164028   -0.788815
      9          6           0        3.689864   -0.017369    1.654630
     10          8           0        1.599279    0.573091   -0.289704
     11          6           0        0.283499    0.919432   -0.364138
     12          6           0        0.118426    2.452710   -0.310549
     13          6           0        1.486447    3.142447   -0.100865
     14          6           0       -0.459031    2.950022   -1.661153
     15          6           0       -0.796022    2.883760    0.863362
     16          6           0       -0.663647   -0.067618   -0.461724
     17          6           0       -2.101117    0.207495   -0.237028
     18          8           0       -2.811354    0.994642   -0.833606
     19          6           0       -2.792777   -0.525400    0.972324
     20          9           0       -3.283440    0.420013    1.807927
     21          9           0       -3.832428   -1.282824    0.564920
     22          9           0       -1.969433   -1.306607    1.700468
     23          1           0       -2.200959   -2.887223   -2.923478
     24          1           0       -3.072564   -2.927678   -1.396199
     25          1           0       -2.636048   -1.377382   -2.123274
     26          1           0       -0.486626   -3.443027   -1.259401
     27          1           0        1.437829   -2.762145   -0.028357
     28          1           0        4.978656   -2.278954    0.813645
     29          1           0        3.359737   -2.745810    1.347245
     30          1           0        3.798703   -2.852027   -0.371650
     31          1           0        5.384869   -0.194755   -0.514318
     32          1           0        4.047582    0.879606   -0.958143
     33          1           0        4.200684   -0.708814   -1.730861
     34          1           0        3.403891    1.031979    1.546582
     35          1           0        3.102613   -0.452018    2.470562
     36          1           0        4.747185   -0.052846    1.939183
     37          1           0        1.326159    4.225019   -0.094295
     38          1           0        1.945875    2.863996    0.851487
     39          1           0        2.192605    2.910404   -0.901767
     40          1           0       -0.535335    4.042919   -1.639415
     41          1           0       -1.447889    2.534869   -1.855397
     42          1           0        0.204397    2.676488   -2.489245
     43          1           0       -0.416806    2.501331    1.817026
     44          1           0       -0.802036    3.977405    0.921695
     45          1           0       -1.829949    2.562496    0.743974
 ---------------------------------------------------------------------
 Rotational constants (GHZ):           0.3901065           0.2171151           0.1744168
 Standard basis: 6-31+G(d,p) (6D, 7F)
 There are   533 symmetry adapted cartesian basis functions of A   symmetry.
 There are   533 symmetry adapted basis functions of A   symmetry.
   533 basis functions,   865 primitive gaussians,   533 cartesian basis functions
    84 alpha electrons       84 beta electrons
       nuclear repulsion energy      2040.2541797541 Hartrees.
 NAtoms=   45 NActive=   45 NUniq=   45 SFac= 1.00D+00 NAtFMM=   60 NAOKFM=F Big=F
 Integral buffers will be    131072 words long.
 Regular integral format.
 Two-electron integral symmetry is turned on.
 One-electron integrals computed using PRISM.
 NBasis=   533 RedAO= T EigKep=  1.68D-06  NBF=   533
 NBsUse=   530 1.00D-06 EigRej=  8.13D-07 NBFU=   530
 ExpMin= 4.38D-02 ExpMax= 7.00D+03 ExpMxC= 1.05D+03 IAcc=3 IRadAn=         5 AccDes= 0.00D+00
 Harris functional with IExCor=  402 and IRadAn=       5 diagonalized for initial guess.
 HarFok:  IExCor=  402 AccDes= 0.00D+00 IRadAn=         5 IDoV= 1 UseB2=F ITyADJ=14
 ICtDFT=  3500011 ScaDFX=  1.000000  1.000000  1.000000  1.000000
 FoFCou: FMM=F IPFlag=           0 FMFlag=      100000 FMFlg1=           0
         NFxFlg=           0 DoJE=T BraDBF=F KetDBF=T FulRan=T
         wScrn=  0.000000 ICntrl=       500 IOpCl=  0 I1Cent=   200000004 NGrid=           0
         NMat0=    1 NMatS0=      1 NMatT0=    0 NMatD0=    1 NMtDS0=    0 NMtDT0=    0
 Petite list used in FoFCou.
 Requested convergence on RMS density matrix=1.00D-08 within 128 cycles.
 Requested convergence on MAX density matrix=1.00D-06.
 Requested convergence on             energy=1.00D-06.
 No special actions if energy rises.
 SCF Done:  E(RB3LYP) =  -1111.66645653     A.U. after   15 cycles
            NFock= 15  Conv=0.54D-08     -V/T= 2.0091
 DoSCS=F DFT=T ScalE2(SS,OS)=  1.000000  1.000000
 ExpMin= 4.38D-02 ExpMax= 7.00D+03 ExpMxC= 1.05D+03 IAcc=3 IRadAn=         5 AccDes= 0.00D+00
 HarFok:  IExCor=  205 AccDes= 0.00D+00 IRadAn=         5 IDoV=-2 UseB2=F ITyADJ=14
 ICtDFT= 12500011 ScaDFX=  1.000000  1.000000  1.000000  1.000000
 GSVD:  LWork=        -660 too small for GESVD, short by        2750 words or        2750 for optimal perf.
 Range of M.O.s used for correlation:    23   530
 NBasis=   533 NAE=    84 NBE=    84 NFC=    22 NFV=     0
 NROrb=    508 NOA=    62 NOB=    62 NVA=   446 NVB=   446

 **** Warning!!: The largest alpha MO coefficient is  0.13665441D+03

 Orbital symmetries:
       Occupied  (A) (A) (A) (A) (A) (A) (A) (A) (A) (A) (A) (A)
                 (A) (A) (A) (A) (A) (A) (A) (A) (A) (A) (A) (A)
                 (A) (A) (A) (A) (A) (A) (A) (A) (A) (A) (A) (A)
                 (A) (A) (A) (A) (A) (A) (A) (A) (A) (A) (A) (A)
                 (A) (A) (A) (A) (A) (A) (A) (A) (A) (A) (A) (A)
                 (A) (A) (A) (A) (A) (A) (A) (A) (A) (A) (A) (A)
                 (A) (A) (A) (A) (A) (A) (A) (A) (A) (A) (A) (A)
       Virtual   (A) (A) (A) (A) (A) (A) (A) (A) (A) (A) (A) (A)
                 (A) (A) (A) (A) (A) (A) (A) (A) (A) (A) (A) (A)
                 (A) (A) (A) (A) (A) (A) (A) (A) (A) (A) (A) (A)
                 (A) (A) (A) (A) (A) (A) (A) (A) (A) (A) (A) (A)
                 (A) (A) (A) (A) (A) (A) (A) (A) (A) (A) (A) (A)
                 (A) (A) (A) (A) (A) (A) (A) (A) (A) (A) (A) (A)
                 (A) (A) (A) (A) (A) (A) (A) (A) (A) (A) (A) (A)
                 (A) (A) (A) (A) (A) (A) (A) (A) (A) (A) (A) (A)
                 (A) (A) (A) (A) (A) (A) (A) (A) (A) (A) (A) (A)
                 (A) (A) (A) (A) (A) (A) (A) (A) (A) (A) (A) (A)
                 (A) (A) (A) (A) (A) (A) (A) (A) (A) (A) (A) (A)
                 (A) (A) (A) (A) (A) (A) (A) (A) (A) (A) (A) (A)
                 (A) (A) (A) (A) (A) (A) (A) (A) (A) (A) (A) (A)
                 (A) (A) (A) (A) (A) (A) (A) (A) (A) (A) (A) (A)
                 (A) (A) (A) (A) (A) (A) (A) (A) (A) (A) (A) (A)
                 (A) (A) (A) (A) (A) (A) (A) (A) (A) (A) (A) (A)
                 (A) (A) (A) (A) (A) (A) (A) (A) (A) (A) (A) (A)
                 (A) (A) (A) (A) (A) (A) (A) (A) (A) (A) (A) (A)
                 (A) (A) (A) (A) (A) (A) (A) (A) (A) (A) (A) (A)
                 (A) (A) (A) (A) (A) (A) (A) (A) (A) (A) (A) (A)
                 (A) (A) (A) (A) (A) (A) (A) (A) (A) (A) (A) (A)
                 (A) (A) (A) (A) (A) (A) (A) (A) (A) (A) (A) (A)
                 (A) (A) (A) (A) (A) (A) (A) (A) (A) (A) (A) (A)
                 (A) (A) (A) (A) (A) (A) (A) (A) (A) (A) (A) (A)
                 (A) (A) (A) (A) (A) (A) (A) (A) (A) (A) (A) (A)
                 (A) (A) (A) (A) (A) (A) (A) (A) (A) (A) (A) (A)
                 (A) (A) (A) (A) (A) (A) (A) (A) (A) (A) (A) (A)
                 (A) (A) (A) (A) (A) (A) (A) (A) (A) (A) (A) (A)
                 (A) (A) (A) (A) (A) (A) (A) (A) (A) (A) (A) (A)
                 (A) (A) (A) (A) (A) (A) (A) (A) (A) (A) (A) (A)
                 (A) (A) (A) (A) (A) (A) (A) (A) (A) (A) (A) (A)
                 (A) (A) (A) (A) (A) (A) (A) (A) (A) (A) (A) (A)
                 (A) (A) (A) (A) (A) (A) (A) (A) (A) (A) (A) (A)
                 (A) (A) (A) (A) (A) (A) (A) (A) (A) (A) (A) (A)
                 (A) (A) (A) (A) (A) (A) (A) (A) (A) (A) (A) (A)
                 (A) (A) (A) (A) (A) (A) (A) (A) (A) (A) (A) (A)
                 (A) (A) (A) (A) (A) (A) (A) (A) (A) (A) (A) (A)
                 (A) (A)
    24 initial guesses have been made.
 Convergence on wavefunction:    0.001000000000000
 Iteration     1 Dimension    24 NMult     0 NNew     24
 CISAX will form    24 AO SS matrices at one time.
 New state      1 was old state      2
 New state      2 was old state      4
 New state      3 was old state      1
 New state      4 was old state     12
 New state      5 was old state      6
 New state      6 was old state     11
 New state      7 was old state      3
 New state      9 was old state     10
 New state     10 was old state      9
 New state     11 was old state      7
 New state     12 was old state     14
 Vector   5 SDiff=1.98D+00 TDiff=1.79D+00 assumed to be triplet.
 Vector  11 SDiff=3.51D+00 TDiff=3.30D-01 assumed to be triplet.
 Iteration     2 Dimension    36 NMult    24 NNew     12
 New state      5 was old state      6
 New state      6 was old state      7
 Iteration     3 Dimension    48 NMult    36 NNew     12
 Iteration     4 Dimension    60 NMult    48 NNew     12
 Iteration     5 Dimension    72 NMult    60 NNew     12
 Iteration     6 Dimension    80 NMult    72 NNew      8
 Iteration     7 Dimension    82 NMult    80 NNew      2
 Convergence on energies, max DE= 3.57D-06.
 ***********************************************************************
 Excited states from <AA,BB:AA,BB> singles matrix:
 ***********************************************************************
 
 Ground to excited state transition densities written to RWF  633
 Ground to excited state transition electric dipole moments (Au):
       state          X           Y           Z        Dip. S.      Osc.
         1         0.0000     -0.0000     -0.0000      0.0000      0.0000
         2        -0.0000     -0.0000     -0.0000      0.0000      0.0000
         3        -0.6913      0.2792      0.1081      0.5676      0.0404
         4        -0.0000     -0.0000     -0.0000      0.0000      0.0000
         5         0.0244     -0.0711     -0.0952      0.0147      0.0014
         6        -0.0216     -0.3423     -0.1454      0.1387      0.0138
 Ground to excited state transition velocity dipole moments (Au):
       state          X           Y           Z        Dip. S.      Osc.
         1         0.0000      0.0000      0.0000      0.0000      0.0000
         2        -0.0000      0.0000     -0.0000      0.0000      0.0000
         3         0.0699     -0.0246     -0.0154      0.0057      0.0358
         4         0.0000      0.0000      0.0000      0.0000      0.0000
         5        -0.0034      0.0084      0.0139      0.0003      0.0013
         6         0.0071      0.0463      0.0220      0.0027      0.0119
 Ground to excited state transition magnetic dipole moments (Au):
       state          X           Y           Z
         1        -0.0000     -0.0000      0.0000
         2         0.0000     -0.0000     -0.0000
         3         0.0582     -0.0297     -0.2597
         4        -0.0000     -0.0000      0.0000
         5        -0.4519      0.5579     -0.6871
         6         0.3872     -0.1797     -0.9280
 Ground to excited state transition velocity quadrupole moments (Au):
       state          XX          YY          ZZ          XY          XZ          YZ
         1         0.0000     -0.0000     -0.0000     -0.0000     -0.0000     -0.0000
         2        -0.0000     -0.0000     -0.0000     -0.0000      0.0000     -0.0000
         3        -0.2025      0.1698      0.0291      0.0351      0.0291      0.0721
         4         0.0000      0.0000     -0.0000     -0.0000     -0.0000     -0.0000
         5         0.0177     -0.0733      0.0153     -0.1380     -0.0507     -0.0197
         6        -0.0544     -0.0122     -0.0853     -0.1609     -0.0609     -0.1382
 <0|del|b> * <b|rxdel|0> + <0|del|b> * <b|delr+rdel|0>
 Rotatory Strengths (R) in cgs (10**-40 erg-esu-cm/Gauss)
       state          XX          YY          ZZ    R(velocity)    E-M Angle
         1         0.0000      0.0000      0.0000      0.0000       90.00
         2        -0.0000     -0.0000     -0.0000     -0.0000       90.00
         3        16.2511     45.1626     -3.1681     19.4152       64.27
         4         0.0000     -0.0000     -0.0000     -0.0000       90.00
         5       -15.4809    -14.6578     13.9064     -5.4108      101.69
         6       -69.7383    -35.7861    -17.5732    -41.0325      119.47
 1/2[<0|r|b>*<b|rxdel|0> + (<0|rxdel|b>*<b|r|0>)*]
 Rotatory Strengths (R) in cgs (10**-40 erg-esu-cm/Gauss)
       state          XX          YY          ZZ     R(length)
         1         0.0000     -0.0000      0.0000      0.0000
         2         0.0000     -0.0000     -0.0000      0.0000
         3        28.4449      5.8705     19.8564     18.0573
         4        -0.0000     -0.0000      0.0000     -0.0000
         5         7.7914     28.0712    -46.2565     -3.4646
         6         5.9110    -43.4957    -95.3984    -44.3277
  1/2[<0|del|b>*<b|r|0> + (<0|r|b>*<b|del|0>)*] (Au)
       state          X           Y           Z        Dip. S.   Osc.(frdel)
         1         0.0000     -0.0000     -0.0000      0.0000      0.0000
         2         0.0000     -0.0000      0.0000     -0.0000     -0.0000
         3        -0.0483     -0.0069     -0.0017      0.0569      0.0379
         4        -0.0000     -0.0000     -0.0000      0.0000      0.0000
         5        -0.0001     -0.0006     -0.0013      0.0020      0.0013
         6        -0.0002     -0.0158     -0.0032      0.0192      0.0128

 Excitation energies and oscillator strengths:
 
 Excited State   1:      Triplet-A      2.3458 eV  528.54 nm  f=0.0000  <S**2>=2.000
      83 -> 85         0.11687
      84 -> 85         0.68060
      84 -> 87         0.12483
 This state for optimization and/or second-order correction.
 Total Energy, E(TD-HF/TD-DFT) =  -1111.58024994    
 Copying the excited state density for this state as the 1-particle RhoCI density.
 
 Excited State   2:      Triplet-A      2.7455 eV  451.59 nm  f=0.0000  <S**2>=2.000
      83 -> 85         0.10529
      84 -> 86         0.58999
      84 -> 87        -0.33050
 
 Excited State   3:      Singlet-A      2.9080 eV  426.36 nm  f=0.0404  <S**2>=0.000
      84 -> 85         0.70503
 
 Excited State   4:      Triplet-A      3.3911 eV  365.62 nm  f=0.0000  <S**2>=2.000
      82 -> 85         0.52376
      83 -> 85        -0.44173
 
 Excited State   5:      Singlet-A      3.9550 eV  313.49 nm  f=0.0014  <S**2>=0.000
      82 -> 85         0.49475
      83 -> 85        -0.45725
      84 -> 86         0.16432
 
 Excited State   6:      Singlet-A      4.0619 eV  305.24 nm  f=0.0138  <S**2>=0.000
      82 -> 85        -0.17377
      84 -> 86         0.52168
      84 -> 87         0.43403
 SavETr:  write IOETrn=   770 NScale= 10 NData=  16 NLR=1 NState=    6 LETran=     118.

 **********************************************************************

            Population analysis using the SCF Density.

 **********************************************************************

 Orbital symmetries:
       Occupied  (A) (A) (A) (A) (A) (A) (A) (A) (A) (A) (A) (A)
                 (A) (A) (A) (A) (A) (A) (A) (A) (A) (A) (A) (A)
                 (A) (A) (A) (A) (A) (A) (A) (A) (A) (A) (A) (A)
                 (A) (A) (A) (A) (A) (A) (A) (A) (A) (A) (A) (A)
                 (A) (A) (A) (A) (A) (A) (A) (A) (A) (A) (A) (A)
                 (A) (A) (A) (A) (A) (A) (A) (A) (A) (A) (A) (A)
                 (A) (A) (A) (A) (A) (A) (A) (A) (A) (A) (A) (A)
       Virtual   (A) (A) (A) (A) (A) (A) (A) (A) (A) (A) (A) (A)
                 (A) (A) (A) (A) (A) (A) (A) (A) (A) (A) (A) (A)
                 (A) (A) (A) (A) (A) (A) (A) (A) (A) (A) (A) (A)
                 (A) (A) (A) (A) (A) (A) (A) (A) (A) (A) (A) (A)
                 (A) (A) (A) (A) (A) (A) (A) (A) (A) (A) (A) (A)
                 (A) (A) (A) (A) (A) (A) (A) (A) (A) (A) (A) (A)
                 (A) (A) (A) (A) (A) (A) (A) (A) (A) (A) (A) (A)
                 (A) (A) (A) (A) (A) (A) (A) (A) (A) (A) (A) (A)
                 (A) (A) (A) (A) (A) (A) (A) (A) (A) (A) (A) (A)
                 (A) (A) (A) (A) (A) (A) (A) (A) (A) (A) (A) (A)
                 (A) (A) (A) (A) (A) (A) (A) (A) (A) (A) (A) (A)
                 (A) (A) (A) (A) (A) (A) (A) (A) (A) (A) (A) (A)
                 (A) (A) (A) (A) (A) (A) (A) (A) (A) (A) (A) (A)
                 (A) (A) (A) (A) (A) (A) (A) (A) (A) (A) (A) (A)
                 (A) (A) (A) (A) (A) (A) (A) (A) (A) (A) (A) (A)
                 (A) (A) (A) (A) (A) (A) (A) (A) (A) (A) (A) (A)
                 (A) (A) (A) (A) (A) (A) (A) (A) (A) (A) (A) (A)
                 (A) (A) (A) (A) (A) (A) (A) (A) (A) (A) (A) (A)
                 (A) (A) (A) (A) (A) (A) (A) (A) (A) (A) (A) (A)
                 (A) (A) (A) (A) (A) (A) (A) (A) (A) (A) (A) (A)
                 (A) (A) (A) (A) (A) (A) (A) (A) (A) (A) (A) (A)
                 (A) (A) (A) (A) (A) (A) (A) (A) (A) (A) (A) (A)
                 (A) (A) (A) (A) (A) (A) (A) (A) (A) (A) (A) (A)
                 (A) (A) (A) (A) (A) (A) (A) (A) (A) (A) (A) (A)
                 (A) (A) (A) (A) (A) (A) (A) (A) (A) (A) (A) (A)
                 (A) (A) (A) (A) (A) (A) (A) (A) (A) (A) (A) (A)
                 (A) (A) (A) (A) (A) (A) (A) (A) (A) (A) (A) (A)
                 (A) (A) (A) (A) (A) (A) (A) (A) (A) (A) (A) (A)
                 (A) (A) (A) (A) (A) (A) (A) (A) (A) (A) (A) (A)
                 (A) (A) (A) (A) (A) (A) (A) (A) (A) (A) (A) (A)
                 (A) (A) (A) (A) (A) (A) (A) (A) (A) (A) (A) (A)
                 (A) (A) (A) (A) (A) (A) (A) (A) (A) (A) (A) (A)
                 (A) (A) (A) (A) (A) (A) (A) (A) (A) (A) (A) (A)
                 (A) (A) (A) (A) (A) (A) (A) (A) (A) (A) (A) (A)
                 (A) (A) (A) (A) (A) (A) (A) (A) (A) (A) (A) (A)
                 (A) (A) (A) (A) (A) (A) (A) (A) (A) (A) (A) (A)
                 (A) (A) (A) (A) (A) (A) (A) (A) (A) (A) (A) (A)
                 (A) (A)
 The electronic state is 1-A.
 Alpha  occ. eigenvalues --  -24.75237 -24.75207 -24.75019 -19.22788 -19.17960
 Alpha  occ. eigenvalues --  -10.45080 -10.31853 -10.29282 -10.26551 -10.22900
 Alpha  occ. eigenvalues --  -10.22758 -10.22356 -10.21845 -10.20424 -10.19668
 Alpha  occ. eigenvalues --  -10.19293 -10.19027 -10.19001 -10.18755 -10.18642
 Alpha  occ. eigenvalues --  -10.18626 -10.18094  -1.32417  -1.23838  -1.23571
 Alpha  occ. eigenvalues --   -1.11683  -1.07946  -0.86157  -0.85418  -0.82906
 Alpha  occ. eigenvalues --   -0.78374  -0.76464  -0.74654  -0.70884  -0.70115
 Alpha  occ. eigenvalues --   -0.70017  -0.69558  -0.68663  -0.67609  -0.63613
 Alpha  occ. eigenvalues --   -0.61707  -0.60251  -0.60160  -0.57067  -0.56144
 Alpha  occ. eigenvalues --   -0.55801  -0.51959  -0.50256  -0.48678  -0.48140
 Alpha  occ. eigenvalues --   -0.47923  -0.47869  -0.47362  -0.45983  -0.45485
 Alpha  occ. eigenvalues --   -0.45176  -0.44497  -0.44093  -0.43891  -0.43626
 Alpha  occ. eigenvalues --   -0.42927  -0.42631  -0.42090  -0.41371  -0.40977
 Alpha  occ. eigenvalues --   -0.40406  -0.40087  -0.39712  -0.39312  -0.38914
 Alpha  occ. eigenvalues --   -0.38280  -0.38012  -0.37307  -0.36596  -0.35925
 Alpha  occ. eigenvalues --   -0.35124  -0.34592  -0.34336  -0.33901  -0.33623
 Alpha  occ. eigenvalues --   -0.32417  -0.28890  -0.27564  -0.20768
 Alpha virt. eigenvalues --   -0.07650  -0.03068  -0.01897  -0.00852   0.00510
 Alpha virt. eigenvalues --    0.01006   0.01705   0.02236   0.02625   0.02755
 Alpha virt. eigenvalues --    0.03231   0.03590   0.04251   0.04624   0.05182
 Alpha virt. eigenvalues --    0.05213   0.05470   0.05531   0.06298   0.06656
 Alpha virt. eigenvalues --    0.06977   0.07117   0.07548   0.07632   0.08341
 Alpha virt. eigenvalues --    0.09163   0.09339   0.09556   0.10181   0.10218
 Alpha virt. eigenvalues --    0.10357   0.10884   0.11183   0.11589   0.12004
 Alpha virt. eigenvalues --    0.12266   0.12502   0.12570   0.13384   0.13689
 Alpha virt. eigenvalues --    0.13826   0.14314   0.14835   0.15088   0.15392
 Alpha virt. eigenvalues --    0.15702   0.15899   0.16463   0.16601   0.17210
 Alpha virt. eigenvalues --    0.17804   0.17952   0.18000   0.18609   0.18745
 Alpha virt. eigenvalues --    0.18821   0.19086   0.19404   0.19780   0.20048
 Alpha virt. eigenvalues --    0.20333   0.20608   0.20863   0.21506   0.21621
 Alpha virt. eigenvalues --    0.21860   0.22339   0.22722   0.23074   0.23194
 Alpha virt. eigenvalues --    0.23525   0.23838   0.23986   0.24660   0.24837
 Alpha virt. eigenvalues --    0.25504   0.25648   0.25896   0.26416   0.26587
 Alpha virt. eigenvalues --    0.26843   0.27283   0.27486   0.27878   0.28131
 Alpha virt. eigenvalues --    0.28551   0.28700   0.28963   0.29457   0.29830
 Alpha virt. eigenvalues --    0.30086   0.30624   0.30778   0.31082   0.31491
 Alpha virt. eigenvalues --    0.32042   0.32791   0.33458   0.33809   0.34463
 Alpha virt. eigenvalues --    0.34736   0.35430   0.35519   0.35985   0.36466
 Alpha virt. eigenvalues --    0.37208   0.37952   0.38135   0.38551   0.39257
 Alpha virt. eigenvalues --    0.39697   0.40229   0.40453   0.40934   0.41651
 Alpha virt. eigenvalues --    0.42003   0.43291   0.43544   0.44198   0.44507
 Alpha virt. eigenvalues --    0.45286   0.45465   0.45693   0.46252   0.48154
 Alpha virt. eigenvalues --    0.48383   0.49442   0.50159   0.51858   0.52590
 Alpha virt. eigenvalues --    0.54211   0.55202   0.56432   0.57221   0.63102
 Alpha virt. eigenvalues --    0.66301   0.66916   0.67692   0.68174   0.69880
 Alpha virt. eigenvalues --    0.70585   0.70622   0.71217   0.72137   0.72862
 Alpha virt. eigenvalues --    0.73307   0.73430   0.73911   0.74765   0.75906
 Alpha virt. eigenvalues --    0.76704   0.77148   0.77888   0.78485   0.78753
 Alpha virt. eigenvalues --    0.79873   0.80008   0.80600   0.81627   0.82073
 Alpha virt. eigenvalues --    0.82630   0.83444   0.84509   0.85169   0.85920
 Alpha virt. eigenvalues --    0.86957   0.87747   0.88769   0.88998   0.89786
 Alpha virt. eigenvalues --    0.90412   0.91504   0.91837   0.92364   0.93195
 Alpha virt. eigenvalues --    0.94175   0.95605   0.96480   0.96803   0.98004
 Alpha virt. eigenvalues --    0.98481   0.99490   1.00228   1.00779   1.01642
 Alpha virt. eigenvalues --    1.02366   1.02922   1.03978   1.04597   1.05111
 Alpha virt. eigenvalues --    1.05329   1.06344   1.06994   1.07330   1.08357
 Alpha virt. eigenvalues --    1.10104   1.11596   1.13608   1.14068   1.15038
 Alpha virt. eigenvalues --    1.16862   1.17278   1.18708   1.19503   1.19835
 Alpha virt. eigenvalues --    1.21277   1.22340   1.23308   1.23810   1.24216
 Alpha virt. eigenvalues --    1.26125   1.26652   1.27035   1.28210   1.28662
 Alpha virt. eigenvalues --    1.30988   1.32889   1.33961   1.35805   1.36442
 Alpha virt. eigenvalues --    1.37032   1.38767   1.40162   1.42196   1.42645
 Alpha virt. eigenvalues --    1.43515   1.43892   1.44920   1.45640   1.46159
 Alpha virt. eigenvalues --    1.47233   1.48106   1.49380   1.50211   1.50734
 Alpha virt. eigenvalues --    1.51951   1.53154   1.53271   1.55075   1.56005
 Alpha virt. eigenvalues --    1.56674   1.58720   1.60017   1.60481   1.63208
 Alpha virt. eigenvalues --    1.63705   1.64691   1.66329   1.67715   1.69050
 Alpha virt. eigenvalues --    1.69759   1.70348   1.70905   1.71244   1.73074
 Alpha virt. eigenvalues --    1.73703   1.75822   1.76381   1.77876   1.79849
 Alpha virt. eigenvalues --    1.80519   1.80961   1.81495   1.82629   1.82861
 Alpha virt. eigenvalues --    1.84173   1.84564   1.84839   1.85672   1.86329
 Alpha virt. eigenvalues --    1.86783   1.87636   1.88144   1.89378   1.90127
 Alpha virt. eigenvalues --    1.90411   1.91339   1.91423   1.92303   1.94301
 Alpha virt. eigenvalues --    1.94529   1.95071   1.96348   1.97573   1.97838
 Alpha virt. eigenvalues --    1.99165   1.99714   2.00649   2.01915   2.03121
 Alpha virt. eigenvalues --    2.03410   2.04443   2.04597   2.04722   2.05195
 Alpha virt. eigenvalues --    2.05835   2.06600   2.07132   2.08284   2.09003
 Alpha virt. eigenvalues --    2.09692   2.10309   2.10624   2.11110   2.11899
 Alpha virt. eigenvalues --    2.12129   2.12863   2.13734   2.13895   2.14216
 Alpha virt. eigenvalues --    2.14649   2.15456   2.16518   2.16871   2.17239
 Alpha virt. eigenvalues --    2.18601   2.19137   2.19346   2.20309   2.21114
 Alpha virt. eigenvalues --    2.22044   2.23238   2.23833   2.24415   2.25518
 Alpha virt. eigenvalues --    2.26595   2.28083   2.28941   2.31354   2.32452
 Alpha virt. eigenvalues --    2.33969   2.35120   2.35788   2.36710   2.38371
 Alpha virt. eigenvalues --    2.39690   2.40230   2.40736   2.41967   2.43033
 Alpha virt. eigenvalues --    2.44848   2.45262   2.47445   2.48666   2.49859
 Alpha virt. eigenvalues --    2.52235   2.53544   2.55060   2.56591   2.57796
 Alpha virt. eigenvalues --    2.58860   2.60120   2.62175   2.63801   2.64079
 Alpha virt. eigenvalues --    2.64826   2.67096   2.68089   2.69345   2.70168
 Alpha virt. eigenvalues --    2.71014   2.72429   2.72581   2.73213   2.73646
 Alpha virt. eigenvalues --    2.74238   2.74977   2.75484   2.76174   2.77283
 Alpha virt. eigenvalues --    2.77912   2.78657   2.79955   2.80950   2.83864
 Alpha virt. eigenvalues --    2.85285   2.86104   2.86488   2.87171   2.87346
 Alpha virt. eigenvalues --    2.88178   2.88515   2.89564   2.90419   2.92374
 Alpha virt. eigenvalues --    2.93471   2.94207   2.96118   2.96287   2.97185
 Alpha virt. eigenvalues --    2.98872   3.02443   3.06384   3.10831   3.11399
 Alpha virt. eigenvalues --    3.16600   3.20232   3.25286   3.26822   3.26983
 Alpha virt. eigenvalues --    3.27485   3.28660   3.28867   3.29799   3.30586
 Alpha virt. eigenvalues --    3.30920   3.32931   3.36075   3.43498   3.44125
 Alpha virt. eigenvalues --    3.45568   3.46001   3.46462   3.47058   3.47365
 Alpha virt. eigenvalues --    3.48739   3.49235   3.49730   3.52000   3.52995
 Alpha virt. eigenvalues --    3.54908   3.55137   3.57484   3.62068   4.30364
 Alpha virt. eigenvalues --    4.38005   4.43258   4.45388   4.46071   4.50667
 Alpha virt. eigenvalues --    4.53446   4.56371   4.57473   4.58691   4.59082
 Alpha virt. eigenvalues --    4.61813   4.62517   4.66800   4.73815   4.80923
 Alpha virt. eigenvalues --    4.82830   4.85402   4.93381   5.99604   6.36549
 Alpha virt. eigenvalues --    7.01025
          Condensed to atoms (all electrons):
               1          2          3          4          5          6
     1  C    6.780068  -3.035916   1.833601  -0.400886  -0.352037   0.048672
     2  C   -3.035916  18.499293  -7.701568  -0.468957  -0.042030  -0.280445
     3  C    1.833601  -7.701568  14.219922  -0.235589  -1.780333   0.069013
     4  C   -0.400886  -0.468957  -0.235589   8.563196  -1.812327   1.730221
     5  C   -0.352037  -0.042030  -1.780333  -1.812327  14.478014  -3.997517
     6  C    0.048672  -0.280445   0.069013   1.730221  -3.997517  11.634890
     7  C   -0.011507  -0.011824  -0.283494  -0.505355   1.366158  -1.407103
     8  C   -0.009951   0.024008   0.022800  -0.243697   0.301392  -0.257277
     9  C    0.011526  -0.077896   0.055067   0.412307  -0.898800   0.511294
    10  O    0.008735  -0.048004   0.030950   0.093345  -0.308753  -0.069371
    11  C    0.653283  -3.119355   1.150572   0.151889  -0.134778  -0.253679
    12  C   -0.066577   0.425302  -0.669677  -0.346133  -0.421108  -0.446957
    13  C    0.016195  -0.122765  -0.004582   0.143513   0.032390   0.177445
    14  C   -0.003288  -0.040070  -0.022156   0.022506   0.050128   0.005111
    15  C    0.003697   0.021691   0.020227  -0.005022   0.014009   0.021436
    16  C   -0.072825   1.047458  -0.979254  -0.166888  -1.100120  -0.595350
    17  C   -0.327917   1.352310  -0.315400  -0.918467   0.321437  -0.088977
    18  O   -0.000989  -0.041050   0.086150   0.003755   0.028121   0.004933
    19  C    0.136407  -0.556679   0.364273  -0.047070  -0.114206   0.001308
    20  F    0.002370  -0.014350   0.041307   0.002297   0.010191   0.000655
    21  F    0.005667  -0.026562   0.022681   0.020670   0.006643   0.000042
    22  F    0.002817  -0.021008   0.030472   0.007185  -0.011466   0.000581
    23  H    0.535879  -0.298874   0.123608  -0.034347  -0.004877   0.000611
    24  H    0.441416  -0.029642  -0.062261  -0.011488  -0.004783  -0.000240
    25  H    0.488974  -0.147800  -0.000990  -0.008171  -0.009688  -0.000791
    26  H   -0.017764   0.533304  -0.203180  -0.001129  -0.003252  -0.010062
    27  H    0.009940  -0.014474  -0.025603   0.361852  -0.044191  -0.081830
    28  H   -0.000053  -0.001161  -0.009894  -0.066265   0.111895  -0.158433
    29  H   -0.000034   0.001399  -0.001054   0.000446  -0.014941  -0.073510
    30  H    0.000573   0.002207   0.015282   0.051443  -0.094152  -0.048973
    31  H   -0.000016  -0.000084  -0.001409  -0.014091  -0.018652  -0.053823
    32  H   -0.000049  -0.001603  -0.011803  -0.024230   0.068490  -0.152205
    33  H   -0.000146  -0.001321   0.009489   0.013237  -0.009293  -0.047432
    34  H   -0.000017  -0.001645  -0.009781  -0.010253   0.061175  -0.155341
    35  H   -0.000011   0.003635   0.019271   0.010759  -0.037647  -0.023448
    36  H    0.000006   0.000297  -0.000302   0.009521  -0.058474  -0.022471
    37  H    0.000007  -0.000443  -0.001804   0.000924  -0.000061  -0.000932
    38  H    0.000036  -0.000315  -0.002107   0.001681   0.005505  -0.002855
    39  H    0.000075  -0.000941  -0.003050   0.001941   0.004341   0.007452
    40  H   -0.000122   0.000122  -0.003477  -0.000895  -0.003222  -0.000005
    41  H   -0.000074   0.003822   0.011697   0.002003   0.001626   0.000069
    42  H   -0.000210   0.000629  -0.000890  -0.001252   0.003367   0.001040
    43  H    0.000111  -0.002006  -0.010839   0.000465   0.006681  -0.001020
    44  H   -0.000005   0.000482  -0.001618   0.000195  -0.001865  -0.000001
    45  H   -0.000519   0.000877   0.015340  -0.000505   0.006759   0.000423
               7          8          9         10         11         12
     1  C   -0.011507  -0.009951   0.011526   0.008735   0.653283  -0.066577
     2  C   -0.011824   0.024008  -0.077896  -0.048004  -3.119355   0.425302
     3  C   -0.283494   0.022800   0.055067   0.030950   1.150572  -0.669677
     4  C   -0.505355  -0.243697   0.412307   0.093345   0.151889  -0.346133
     5  C    1.366158   0.301392  -0.898800  -0.308753  -0.134778  -0.421108
     6  C   -1.407103  -0.257277   0.511294  -0.069371  -0.253679  -0.446957
     7  C    6.370728  -0.139978  -0.358753   0.002101   0.095116   0.051404
     8  C   -0.139978   5.881264  -0.388041  -0.012154  -0.062822   0.003989
     9  C   -0.358753  -0.388041   6.125393   0.025998  -0.075447  -0.095172
    10  O    0.002101  -0.012154   0.025998   8.625738   0.335689  -0.184630
    11  C    0.095116  -0.062822  -0.075447   0.335689  11.004877  -2.009245
    12  C    0.051404   0.003989  -0.095172  -0.184630  -2.009245  10.813610
    13  C   -0.012101  -0.011512   0.025419  -0.029753   0.672176  -1.283785
    14  C   -0.000971  -0.000249   0.006546   0.016545  -0.004772  -0.053702
    15  C   -0.003845   0.003670   0.001122   0.020185  -0.048582  -0.285007
    16  C    0.028304   0.066945  -0.073476  -0.144495  -1.264518   1.015960
    17  C    0.009142   0.015465  -0.035523  -0.130868  -1.560890   0.376145
    18  O   -0.000433  -0.000224   0.001370   0.001033   0.144596  -0.032535
    19  C   -0.003297  -0.001647   0.010979   0.007541   0.393481  -0.057234
    20  F   -0.000010  -0.000021   0.000338   0.000546   0.001150  -0.027792
    21  F    0.000040   0.000005  -0.000049  -0.000061  -0.003522   0.000382
    22  F   -0.000407   0.000192  -0.000165   0.000533   0.006857   0.003715
    23  H   -0.000097  -0.000060   0.000036  -0.000032   0.013934  -0.000101
    24  H    0.000010   0.000020  -0.000044   0.000011  -0.003329   0.000396
    25  H   -0.000011  -0.000013   0.000028   0.000001   0.011319  -0.001622
    26  H    0.000461   0.000499  -0.000256  -0.000086  -0.010974   0.000533
    27  H    0.006547   0.000549   0.003451   0.009497   0.038145   0.004588
    28  H    0.480795   0.002341  -0.008732  -0.000068   0.000275   0.000121
    29  H    0.459036   0.005504  -0.024437  -0.000049  -0.001358  -0.000106
    30  H    0.446883  -0.030537   0.010188  -0.000074  -0.001151   0.000210
    31  H    0.006006   0.430259  -0.005580  -0.000195   0.004493  -0.001819
    32  H    0.029069   0.462311  -0.035978   0.004799   0.005653   0.003948
    33  H   -0.038125   0.439423   0.008452  -0.003516  -0.016155  -0.001510
    34  H    0.023995  -0.029047   0.461582   0.004016   0.001579   0.008502
    35  H   -0.044903   0.005751   0.441220  -0.002730  -0.014437  -0.002394
    36  H   -0.010222  -0.001836   0.428461   0.000037   0.004176  -0.001849
    37  H   -0.000044   0.000271   0.000862   0.000122   0.017809  -0.101040
    38  H    0.000381  -0.000153  -0.002768  -0.000059   0.003682  -0.104050
    39  H    0.000451  -0.003651  -0.000733   0.000691  -0.014002  -0.086421
    40  H   -0.000003   0.000150  -0.000109  -0.000164  -0.062525  -0.001299
    41  H   -0.000013   0.000032  -0.000009  -0.000851   0.013953  -0.098417
    42  H    0.000081  -0.000124  -0.000308   0.006154  -0.022548  -0.071023
    43  H    0.000137  -0.000269   0.001133   0.004047  -0.023738  -0.019288
    44  H   -0.000007  -0.000042  -0.000019  -0.000189  -0.045664  -0.039491
    45  H   -0.000025   0.000033   0.000154   0.000218   0.018027  -0.135095
              13         14         15         16         17         18
     1  C    0.016195  -0.003288   0.003697  -0.072825  -0.327917  -0.000989
     2  C   -0.122765  -0.040070   0.021691   1.047458   1.352310  -0.041050
     3  C   -0.004582  -0.022156   0.020227  -0.979254  -0.315400   0.086150
     4  C    0.143513   0.022506  -0.005022  -0.166888  -0.918467   0.003755
     5  C    0.032390   0.050128   0.014009  -1.100120   0.321437   0.028121
     6  C    0.177445   0.005111   0.021436  -0.595350  -0.088977   0.004933
     7  C   -0.012101  -0.000971  -0.003845   0.028304   0.009142  -0.000433
     8  C   -0.011512  -0.000249   0.003670   0.066945   0.015465  -0.000224
     9  C    0.025419   0.006546   0.001122  -0.073476  -0.035523   0.001370
    10  O   -0.029753   0.016545   0.020185  -0.144495  -0.130868   0.001033
    11  C    0.672176  -0.004772  -0.048582  -1.264518  -1.560890   0.144596
    12  C   -1.283785  -0.053702  -0.285007   1.015960   0.376145  -0.032535
    13  C    6.349188  -0.196726  -0.393724  -0.116742  -0.151965   0.018898
    14  C   -0.196726   6.006078  -0.274466  -0.109447  -0.259058  -0.020574
    15  C   -0.393724  -0.274466   6.327323  -0.141230  -0.023682  -0.069464
    16  C   -0.116742  -0.109447  -0.141230  11.427945  -2.576173  -0.312687
    17  C   -0.151965  -0.259058  -0.023682  -2.576173  10.842437   0.480590
    18  O    0.018898  -0.020574  -0.069464  -0.312687   0.480590   8.064488
    19  C    0.016380  -0.013046  -0.024748  -0.224496  -0.459585  -0.052195
    20  F   -0.001442   0.004860  -0.000075  -0.038506  -0.037033   0.000643
    21  F    0.000309  -0.001523  -0.000436   0.053414  -0.154961   0.003516
    22  F    0.001701   0.001218  -0.005729   0.092610  -0.099703   0.012348
    23  H    0.000033  -0.000189   0.000142   0.011185  -0.003957   0.000477
    24  H   -0.000035  -0.000095  -0.000009   0.007373   0.017426  -0.000380
    25  H   -0.000201   0.001490  -0.000467   0.015913   0.010073  -0.001323
    26  H    0.000013  -0.000165   0.000106   0.007834  -0.009342   0.000154
    27  H   -0.000292   0.000156  -0.000182   0.037791  -0.007638   0.000030
    28  H   -0.000034  -0.000002  -0.000018  -0.000323  -0.000036  -0.000000
    29  H    0.000012  -0.000025   0.000001   0.000735   0.000396  -0.000000
    30  H   -0.000070  -0.000009   0.000024   0.001107  -0.000085   0.000000
    31  H    0.000934   0.000044  -0.000057  -0.000067   0.000074  -0.000000
    32  H   -0.003810   0.000674   0.000177   0.006450  -0.000251   0.000001
    33  H    0.000145  -0.000047   0.000101  -0.000193   0.000041  -0.000000
    34  H   -0.006326   0.000250  -0.000882   0.002349   0.000856  -0.000001
    35  H   -0.000340   0.000042  -0.000515  -0.000689   0.000408  -0.000001
    36  H    0.001763  -0.000044   0.000118  -0.002068  -0.000440  -0.000000
    37  H    0.441366   0.000117  -0.007545  -0.000143  -0.002330   0.000031
    38  H    0.469574   0.007789  -0.025442   0.007272  -0.005616   0.000043
    39  H    0.458286  -0.026785   0.013635   0.000640   0.002962   0.000031
    40  H   -0.011294   0.439822  -0.017632  -0.007404   0.012880   0.001044
    41  H    0.026352   0.461943  -0.050730   0.029881  -0.036235  -0.007909
    42  H   -0.043664   0.456384   0.025582  -0.010349   0.004901   0.000279
    43  H   -0.037634   0.017005   0.446224  -0.024051  -0.006782   0.000432
    44  H   -0.009228  -0.014580   0.465026   0.012000  -0.020711   0.000631
    45  H    0.017363  -0.013244   0.433311  -0.019160   0.059940  -0.008271
              19         20         21         22         23         24
     1  C    0.136407   0.002370   0.005667   0.002817   0.535879   0.441416
     2  C   -0.556679  -0.014350  -0.026562  -0.021008  -0.298874  -0.029642
     3  C    0.364273   0.041307   0.022681   0.030472   0.123608  -0.062261
     4  C   -0.047070   0.002297   0.020670   0.007185  -0.034347  -0.011488
     5  C   -0.114206   0.010191   0.006643  -0.011466  -0.004877  -0.004783
     6  C    0.001308   0.000655   0.000042   0.000581   0.000611  -0.000240
     7  C   -0.003297  -0.000010   0.000040  -0.000407  -0.000097   0.000010
     8  C   -0.001647  -0.000021   0.000005   0.000192  -0.000060   0.000020
     9  C    0.010979   0.000338  -0.000049  -0.000165   0.000036  -0.000044
    10  O    0.007541   0.000546  -0.000061   0.000533  -0.000032   0.000011
    11  C    0.393481   0.001150  -0.003522   0.006857   0.013934  -0.003329
    12  C   -0.057234  -0.027792   0.000382   0.003715  -0.000101   0.000396
    13  C    0.016380  -0.001442   0.000309   0.001701   0.000033  -0.000035
    14  C   -0.013046   0.004860  -0.001523   0.001218  -0.000189  -0.000095
    15  C   -0.024748  -0.000075  -0.000436  -0.005729   0.000142  -0.000009
    16  C   -0.224496  -0.038506   0.053414   0.092610   0.011185   0.007373
    17  C   -0.459585  -0.037033  -0.154961  -0.099703  -0.003957   0.017426
    18  O   -0.052195   0.000643   0.003516   0.012348   0.000477  -0.000380
    19  C    5.050866   0.200363   0.203720   0.111155   0.007459  -0.007971
    20  F    0.200363   9.221855  -0.032520  -0.033368   0.000007  -0.000143
    21  F    0.203720  -0.032520   9.234027  -0.037362   0.000073  -0.000984
    22  F    0.111155  -0.033368  -0.037362   9.226515   0.000010   0.000420
    23  H    0.007459   0.000007   0.000073   0.000010   0.558011  -0.032397
    24  H   -0.007971  -0.000143  -0.000984   0.000420  -0.032397   0.541365
    25  H   -0.004407   0.000040  -0.001315  -0.000159  -0.024556  -0.026749
    26  H    0.004483   0.000011   0.000168   0.000778  -0.004588  -0.000407
    27  H    0.002113   0.000000  -0.000002   0.000024  -0.000013   0.000003
    28  H   -0.000003  -0.000000  -0.000000  -0.000000  -0.000000   0.000000
    29  H   -0.000035   0.000000   0.000000   0.000001  -0.000000   0.000000
    30  H    0.000037   0.000000   0.000000  -0.000000   0.000000  -0.000000
    31  H   -0.000001  -0.000000  -0.000000   0.000000   0.000000  -0.000000
    32  H    0.000032   0.000000   0.000000   0.000000   0.000000  -0.000000
    33  H    0.000003  -0.000000  -0.000000  -0.000000   0.000000  -0.000000
    34  H   -0.000015  -0.000000  -0.000000   0.000000   0.000000   0.000000
    35  H   -0.000055  -0.000000   0.000000  -0.000008  -0.000000   0.000000
    36  H   -0.000006   0.000000   0.000000  -0.000000  -0.000000   0.000000
    37  H   -0.000015  -0.000000   0.000000   0.000000  -0.000000   0.000000
    38  H    0.000522   0.000003   0.000000  -0.000001  -0.000000   0.000000
    39  H    0.000070   0.000000   0.000000   0.000001   0.000000  -0.000000
    40  H   -0.000195  -0.000002  -0.000001  -0.000000   0.000000  -0.000000
    41  H   -0.000452  -0.000042  -0.000013  -0.000017  -0.000000   0.000000
    42  H   -0.000166  -0.000002   0.000000  -0.000001  -0.000000   0.000000
    43  H   -0.001806   0.000453   0.000012  -0.000062   0.000000  -0.000000
    44  H    0.001172   0.000080   0.000002   0.000001  -0.000000   0.000000
    45  H   -0.018192  -0.000789  -0.000219  -0.000210   0.000000  -0.000000
              25         26         27         28         29         30
     1  C    0.488974  -0.017764   0.009940  -0.000053  -0.000034   0.000573
     2  C   -0.147800   0.533304  -0.014474  -0.001161   0.001399   0.002207
     3  C   -0.000990  -0.203180  -0.025603  -0.009894  -0.001054   0.015282
     4  C   -0.008171  -0.001129   0.361852  -0.066265   0.000446   0.051443
     5  C   -0.009688  -0.003252  -0.044191   0.111895  -0.014941  -0.094152
     6  C   -0.000791  -0.010062  -0.081830  -0.158433  -0.073510  -0.048973
     7  C   -0.000011   0.000461   0.006547   0.480795   0.459036   0.446883
     8  C   -0.000013   0.000499   0.000549   0.002341   0.005504  -0.030537
     9  C    0.000028  -0.000256   0.003451  -0.008732  -0.024437   0.010188
    10  O    0.000001  -0.000086   0.009497  -0.000068  -0.000049  -0.000074
    11  C    0.011319  -0.010974   0.038145   0.000275  -0.001358  -0.001151
    12  C   -0.001622   0.000533   0.004588   0.000121  -0.000106   0.000210
    13  C   -0.000201   0.000013  -0.000292  -0.000034   0.000012  -0.000070
    14  C    0.001490  -0.000165   0.000156  -0.000002  -0.000025  -0.000009
    15  C   -0.000467   0.000106  -0.000182  -0.000018   0.000001   0.000024
    16  C    0.015913   0.007834   0.037791  -0.000323   0.000735   0.001107
    17  C    0.010073  -0.009342  -0.007638  -0.000036   0.000396  -0.000085
    18  O   -0.001323   0.000154   0.000030  -0.000000  -0.000000   0.000000
    19  C   -0.004407   0.004483   0.002113  -0.000003  -0.000035   0.000037
    20  F    0.000040   0.000011   0.000000  -0.000000   0.000000   0.000000
    21  F   -0.001315   0.000168  -0.000002  -0.000000   0.000000   0.000000
    22  F   -0.000159   0.000778   0.000024  -0.000000   0.000001  -0.000000
    23  H   -0.024556  -0.004588  -0.000013  -0.000000  -0.000000   0.000000
    24  H   -0.026749  -0.000407   0.000003   0.000000   0.000000  -0.000000
    25  H    0.531708   0.004234  -0.000001  -0.000000  -0.000000   0.000000
    26  H    0.004234   0.585710   0.003842   0.000000  -0.000001  -0.000004
    27  H   -0.000001   0.003842   0.562391   0.000160  -0.000780  -0.000791
    28  H   -0.000000   0.000000   0.000160   0.546660  -0.027430  -0.027536
    29  H   -0.000000  -0.000001  -0.000780  -0.027430   0.546717  -0.029754
    30  H    0.000000  -0.000004  -0.000791  -0.027536  -0.029754   0.546519
    31  H    0.000000  -0.000000  -0.000005   0.002822   0.000093  -0.000118
    32  H   -0.000000   0.000000  -0.000006   0.000105  -0.000154   0.000047
    33  H   -0.000000   0.000000  -0.000037  -0.000092   0.000042   0.002548
    34  H   -0.000000   0.000000  -0.000006   0.000113   0.000056  -0.000157
    35  H   -0.000000   0.000000  -0.000012  -0.000147   0.002607   0.000032
    36  H   -0.000000  -0.000000  -0.000005   0.002700  -0.000146   0.000094
    37  H    0.000000   0.000000  -0.000000  -0.000000  -0.000000  -0.000000
    38  H    0.000000  -0.000000   0.000000   0.000000  -0.000000   0.000000
    39  H    0.000000  -0.000000   0.000000   0.000000  -0.000000  -0.000000
    40  H   -0.000000   0.000000   0.000000  -0.000000  -0.000000   0.000000
    41  H   -0.000005  -0.000000   0.000000   0.000000  -0.000000  -0.000000
    42  H    0.000000  -0.000000  -0.000000   0.000000  -0.000000  -0.000000
    43  H    0.000000   0.000000  -0.000000   0.000000  -0.000000  -0.000000
    44  H   -0.000000   0.000000   0.000000  -0.000000  -0.000000  -0.000000
    45  H    0.000000   0.000000   0.000000  -0.000000  -0.000000  -0.000000
              31         32         33         34         35         36
     1  C   -0.000016  -0.000049  -0.000146  -0.000017  -0.000011   0.000006
     2  C   -0.000084  -0.001603  -0.001321  -0.001645   0.003635   0.000297
     3  C   -0.001409  -0.011803   0.009489  -0.009781   0.019271  -0.000302
     4  C   -0.014091  -0.024230   0.013237  -0.010253   0.010759   0.009521
     5  C   -0.018652   0.068490  -0.009293   0.061175  -0.037647  -0.058474
     6  C   -0.053823  -0.152205  -0.047432  -0.155341  -0.023448  -0.022471
     7  C    0.006006   0.029069  -0.038125   0.023995  -0.044903  -0.010222
     8  C    0.430259   0.462311   0.439423  -0.029047   0.005751  -0.001836
     9  C   -0.005580  -0.035978   0.008452   0.461582   0.441220   0.428461
    10  O   -0.000195   0.004799  -0.003516   0.004016  -0.002730   0.000037
    11  C    0.004493   0.005653  -0.016155   0.001579  -0.014437   0.004176
    12  C   -0.001819   0.003948  -0.001510   0.008502  -0.002394  -0.001849
    13  C    0.000934  -0.003810   0.000145  -0.006326  -0.000340   0.001763
    14  C    0.000044   0.000674  -0.000047   0.000250   0.000042  -0.000044
    15  C   -0.000057   0.000177   0.000101  -0.000882  -0.000515   0.000118
    16  C   -0.000067   0.006450  -0.000193   0.002349  -0.000689  -0.002068
    17  C    0.000074  -0.000251   0.000041   0.000856   0.000408  -0.000440
    18  O   -0.000000   0.000001  -0.000000  -0.000001  -0.000001  -0.000000
    19  C   -0.000001   0.000032   0.000003  -0.000015  -0.000055  -0.000006
    20  F   -0.000000   0.000000  -0.000000  -0.000000  -0.000000   0.000000
    21  F   -0.000000   0.000000  -0.000000  -0.000000   0.000000   0.000000
    22  F    0.000000   0.000000  -0.000000   0.000000  -0.000008  -0.000000
    23  H    0.000000   0.000000   0.000000   0.000000  -0.000000  -0.000000
    24  H   -0.000000  -0.000000  -0.000000   0.000000   0.000000   0.000000
    25  H    0.000000  -0.000000  -0.000000  -0.000000  -0.000000  -0.000000
    26  H   -0.000000   0.000000   0.000000   0.000000   0.000000  -0.000000
    27  H   -0.000005  -0.000006  -0.000037  -0.000006  -0.000012  -0.000005
    28  H    0.002822   0.000105  -0.000092   0.000113  -0.000147   0.002700
    29  H    0.000093  -0.000154   0.000042   0.000056   0.002607  -0.000146
    30  H   -0.000118   0.000047   0.002548  -0.000157   0.000032   0.000094
    31  H    0.555592  -0.026894  -0.028474   0.000016   0.000087   0.002922
    32  H   -0.026894   0.538832  -0.027225   0.002794   0.000009   0.000012
    33  H   -0.028474  -0.027225   0.544700   0.000018  -0.000157   0.000079
    34  H    0.000016   0.002794   0.000018   0.545271  -0.027774  -0.027438
    35  H    0.000087   0.000009  -0.000157  -0.027774   0.543851  -0.028173
    36  H    0.002922   0.000012   0.000079  -0.027438  -0.028173   0.554084
    37  H   -0.000000   0.000013  -0.000000   0.000020  -0.000000  -0.000000
    38  H    0.000000  -0.000011   0.000001   0.001358  -0.000012   0.000007
    39  H    0.000001   0.000762  -0.000008   0.000091  -0.000000   0.000001
    40  H   -0.000000   0.000000   0.000000   0.000000  -0.000000   0.000000
    41  H    0.000000  -0.000000  -0.000000   0.000000  -0.000000  -0.000000
    42  H    0.000000  -0.000005  -0.000000  -0.000000  -0.000000   0.000000
    43  H    0.000000   0.000000  -0.000000  -0.000002  -0.000003   0.000000
    44  H    0.000000   0.000000  -0.000000   0.000001   0.000000  -0.000000
    45  H   -0.000000   0.000000  -0.000000  -0.000000  -0.000000   0.000000
              37         38         39         40         41         42
     1  C    0.000007   0.000036   0.000075  -0.000122  -0.000074  -0.000210
     2  C   -0.000443  -0.000315  -0.000941   0.000122   0.003822   0.000629
     3  C   -0.001804  -0.002107  -0.003050  -0.003477   0.011697  -0.000890
     4  C    0.000924   0.001681   0.001941  -0.000895   0.002003  -0.001252
     5  C   -0.000061   0.005505   0.004341  -0.003222   0.001626   0.003367
     6  C   -0.000932  -0.002855   0.007452  -0.000005   0.000069   0.001040
     7  C   -0.000044   0.000381   0.000451  -0.000003  -0.000013   0.000081
     8  C    0.000271  -0.000153  -0.003651   0.000150   0.000032  -0.000124
     9  C    0.000862  -0.002768  -0.000733  -0.000109  -0.000009  -0.000308
    10  O    0.000122  -0.000059   0.000691  -0.000164  -0.000851   0.006154
    11  C    0.017809   0.003682  -0.014002  -0.062525   0.013953  -0.022548
    12  C   -0.101040  -0.104050  -0.086421  -0.001299  -0.098417  -0.071023
    13  C    0.441366   0.469574   0.458286  -0.011294   0.026352  -0.043664
    14  C    0.000117   0.007789  -0.026785   0.439822   0.461943   0.456384
    15  C   -0.007545  -0.025442   0.013635  -0.017632  -0.050730   0.025582
    16  C   -0.000143   0.007272   0.000640  -0.007404   0.029881  -0.010349
    17  C   -0.002330  -0.005616   0.002962   0.012880  -0.036235   0.004901
    18  O    0.000031   0.000043   0.000031   0.001044  -0.007909   0.000279
    19  C   -0.000015   0.000522   0.000070  -0.000195  -0.000452  -0.000166
    20  F   -0.000000   0.000003   0.000000  -0.000002  -0.000042  -0.000002
    21  F    0.000000   0.000000   0.000000  -0.000001  -0.000013   0.000000
    22  F    0.000000  -0.000001   0.000001  -0.000000  -0.000017  -0.000001
    23  H   -0.000000  -0.000000   0.000000   0.000000  -0.000000  -0.000000
    24  H    0.000000   0.000000  -0.000000  -0.000000   0.000000   0.000000
    25  H    0.000000   0.000000   0.000000  -0.000000  -0.000005   0.000000
    26  H    0.000000  -0.000000  -0.000000   0.000000  -0.000000  -0.000000
    27  H   -0.000000   0.000000   0.000000   0.000000   0.000000  -0.000000
    28  H   -0.000000   0.000000   0.000000  -0.000000   0.000000   0.000000
    29  H   -0.000000  -0.000000  -0.000000  -0.000000  -0.000000  -0.000000
    30  H   -0.000000   0.000000  -0.000000   0.000000  -0.000000  -0.000000
    31  H   -0.000000   0.000000   0.000001  -0.000000   0.000000   0.000000
    32  H    0.000013  -0.000011   0.000762   0.000000  -0.000000  -0.000005
    33  H   -0.000000   0.000001  -0.000008   0.000000  -0.000000  -0.000000
    34  H    0.000020   0.001358   0.000091   0.000000   0.000000  -0.000000
    35  H   -0.000000  -0.000012  -0.000000  -0.000000  -0.000000  -0.000000
    36  H   -0.000000   0.000007   0.000001   0.000000  -0.000000   0.000000
    37  H    0.561212  -0.029886  -0.029169   0.002558   0.000127  -0.000092
    38  H   -0.029886   0.551523  -0.027532   0.000152  -0.000154   0.000061
    39  H   -0.029169  -0.027532   0.542112  -0.000196   0.000046   0.002441
    40  H    0.002558   0.000152  -0.000196   0.557856  -0.025155  -0.028969
    41  H    0.000127  -0.000154   0.000046  -0.025155   0.499840  -0.025856
    42  H   -0.000092   0.000061   0.002441  -0.028969  -0.025856   0.558062
    43  H   -0.000081   0.002285   0.000024   0.000118  -0.000006  -0.000153
    44  H    0.002877  -0.000247   0.000203   0.002659   0.000123   0.000091
    45  H    0.000120   0.000048  -0.000156   0.000041   0.001946   0.000034
              43         44         45
     1  C    0.000111  -0.000005  -0.000519
     2  C   -0.002006   0.000482   0.000877
     3  C   -0.010839  -0.001618   0.015340
     4  C    0.000465   0.000195  -0.000505
     5  C    0.006681  -0.001865   0.006759
     6  C   -0.001020  -0.000001   0.000423
     7  C    0.000137  -0.000007  -0.000025
     8  C   -0.000269  -0.000042   0.000033
     9  C    0.001133  -0.000019   0.000154
    10  O    0.004047  -0.000189   0.000218
    11  C   -0.023738  -0.045664   0.018027
    12  C   -0.019288  -0.039491  -0.135095
    13  C   -0.037634  -0.009228   0.017363
    14  C    0.017005  -0.014580  -0.013244
    15  C    0.446224   0.465026   0.433311
    16  C   -0.024051   0.012000  -0.019160
    17  C   -0.006782  -0.020711   0.059940
    18  O    0.000432   0.000631  -0.008271
    19  C   -0.001806   0.001172  -0.018192
    20  F    0.000453   0.000080  -0.000789
    21  F    0.000012   0.000002  -0.000219
    22  F   -0.000062   0.000001  -0.000210
    23  H    0.000000  -0.000000   0.000000
    24  H   -0.000000   0.000000  -0.000000
    25  H    0.000000  -0.000000   0.000000
    26  H    0.000000   0.000000   0.000000
    27  H   -0.000000   0.000000   0.000000
    28  H    0.000000  -0.000000  -0.000000
    29  H   -0.000000  -0.000000  -0.000000
    30  H   -0.000000  -0.000000  -0.000000
    31  H    0.000000   0.000000  -0.000000
    32  H    0.000000   0.000000   0.000000
    33  H   -0.000000  -0.000000  -0.000000
    34  H   -0.000002   0.000001  -0.000000
    35  H   -0.000003   0.000000  -0.000000
    36  H    0.000000  -0.000000   0.000000
    37  H   -0.000081   0.002877   0.000120
    38  H    0.002285  -0.000247   0.000048
    39  H    0.000024   0.000203  -0.000156
    40  H    0.000118   0.002659   0.000041
    41  H   -0.000006   0.000123   0.001946
    42  H   -0.000153   0.000091   0.000034
    43  H    0.552268  -0.028572  -0.027100
    44  H   -0.028572   0.552541  -0.025127
    45  H   -0.027100  -0.025127   0.521798
 Mulliken charges:
               1
     1  C   -0.679140
     2  C    0.191951
     3  C    0.200390
     4  C   -0.282336
     5  C    0.400251
     6  C    0.014851
     7  C   -0.544317
     8  C   -0.473566
     9  C   -0.460632
    10  O   -0.262429
    11  C    0.010760
    12  C   -0.063726
    13  C   -0.431429
    14  C   -0.443474
    15  C   -0.438320
    16  C    0.107489
    17  C   -0.273860
    18  O   -0.305558
    19  C    1.075155
    20  F   -0.301075
    21  F   -0.291841
    22  F   -0.289468
    23  H    0.152623
    24  H    0.172518
    25  H    0.164491
    26  H    0.119081
    27  H    0.134785
    28  H    0.152239
    29  H    0.156769
    30  H    0.156217
    31  H    0.147939
    32  H    0.160044
    33  H    0.155453
    34  H    0.154643
    35  H    0.155785
    36  H    0.149197
    37  H    0.145148
    38  H    0.149285
    39  H    0.156388
    40  H    0.145266
    41  H    0.192477
    42  H    0.146505
    43  H    0.152014
    44  H    0.149281
    45  H    0.172178
 Sum of Mulliken charges =  -0.00000
 Mulliken charges with hydrogens summed into heavy atoms:
               1
     1  C   -0.189508
     2  C    0.311032
     3  C    0.200390
     4  C   -0.147551
     5  C    0.400251
     6  C    0.014851
     7  C   -0.079092
     8  C   -0.010131
     9  C   -0.001008
    10  O   -0.262429
    11  C    0.010760
    12  C   -0.063726
    13  C    0.019391
    14  C    0.040775
    15  C    0.035153
    16  C    0.107489
    17  C   -0.273860
    18  O   -0.305558
    19  C    1.075155
    20  F   -0.301075
    21  F   -0.291841
    22  F   -0.289468
 Electronic spatial extent (au):  <R**2>=           6780.2070
 Charge=             -0.0000 electrons
 Dipole moment (field-independent basis, Debye):
    X=              4.4474    Y=             -0.4266    Z=             -0.3413  Tot=              4.4808
 Quadrupole moment (field-independent basis, Debye-Ang):
   XX=           -138.7087   YY=           -126.4996   ZZ=           -135.8280
   XY=              0.2431   XZ=              2.9357   YZ=              2.8680
 Traceless Quadrupole moment (field-independent basis, Debye-Ang):
   XX=             -5.0299   YY=              7.1792   ZZ=             -2.1492
   XY=              0.2431   XZ=              2.9357   YZ=              2.8680
 Octapole moment (field-independent basis, Debye-Ang**2):
  XXX=              9.7547  YYY=             -5.7921  ZZZ=             23.0124  XYY=            -16.5160
  XXY=            -22.0915  XXZ=              9.5770  XZZ=            -16.3879  YZZ=             -4.7315
  YYZ=              2.3578  XYZ=             -9.3913
 Hexadecapole moment (field-independent basis, Debye-Ang**3):
 XXXX=          -5066.7488 YYYY=          -2691.4804 ZZZZ=          -1080.6326 XXXY=             31.1097
 XXXZ=            -40.1268 YYYX=             30.2090 YYYZ=              0.1994 ZZZX=            -64.1215
 ZZZY=            -14.2021 XXYY=          -1318.3335 XXZZ=          -1034.7969 YYZZ=           -645.2820
 XXYZ=              7.0740 YYXZ=            -16.3659 ZZXY=             23.7884
 N-N= 2.040254179754D+03 E-N=-6.676640626468D+03  KE= 1.101684916117D+03
 Unable to Open any file for archive entry.
 1\1\GINC-N2\SP\RB3LYP TD-FC\6-31+G(d,p)\C17H23F3O2\HPCMGAC13\04-Sep-20
 25\0\\# td=(50-50,nstates=3) b3lyp/6-31+g(d,p) geom=connectivity\\Titl
 e Card Required\\0,1\C,0,-2.285722,-2.39605,-1.945965\C,0,-0.961259,-2
 .461922,-1.241243\C,0,-0.237708,-1.478057,-0.650175\C,0,1.125242,-1.73
 873,-0.194753\C,0,2.005121,-0.737764,-0.051243\C,0,3.472143,-0.799863,
 0.336357\C,0,3.918653,-2.259225,0.541153\C,0,4.324845,-0.164028,-0.788
 815\C,0,3.689864,-0.017369,1.65463\O,0,1.599279,0.573091,-0.289704\C,0
 ,0.283499,0.919432,-0.364138\C,0,0.118426,2.45271,-0.310549\C,0,1.4864
 47,3.142447,-0.100865\C,0,-0.459031,2.950022,-1.661153\C,0,-0.796022,2
 .88376,0.863362\C,0,-0.663647,-0.067618,-0.461724\C,0,-2.101117,0.2074
 95,-0.237028\O,0,-2.811354,0.994642,-0.833606\C,0,-2.792777,-0.5254,0.
 972324\F,0,-3.28344,0.420013,1.807927\F,0,-3.832428,-1.282824,0.56492\
 F,0,-1.969433,-1.306607,1.700468\H,0,-2.200959,-2.887223,-2.923478\H,0
 ,-3.072564,-2.927678,-1.396199\H,0,-2.636048,-1.377382,-2.123274\H,0,-
 0.486626,-3.443027,-1.259401\H,0,1.437829,-2.762145,-0.028357\H,0,4.97
 8656,-2.278954,0.813645\H,0,3.359737,-2.74581,1.347245\H,0,3.798703,-2
 .852027,-0.37165\H,0,5.384869,-0.194755,-0.514318\H,0,4.047582,0.87960
 6,-0.958143\H,0,4.200684,-0.708814,-1.730861\H,0,3.403891,1.031979,1.5
 46582\H,0,3.102613,-0.452018,2.470562\H,0,4.747185,-0.052846,1.939183\
 H,0,1.326159,4.225019,-0.094295\H,0,1.945875,2.863996,0.851487\H,0,2.1
 92605,2.910404,-0.901767\H,0,-0.535335,4.042919,-1.639415\H,0,-1.44788
 9,2.534869,-1.855397\H,0,0.204397,2.676488,-2.489245\H,0,-0.416806,2.5
 01331,1.817026\H,0,-0.802036,3.977405,0.921695\H,0,-1.829949,2.562496,
 0.743974\\Version=ES64L-G16RevC.02\State=1-A\HF=-1111.6664565\RMSD=5.3
 70e-09\PG=C01 [X(C17H23F3O2)]\\@
 The archive entry for this job was punched.


 AS FAR AS THE LAWS OF MATHEMATICS REFER TO REALITY,
 THEY ARE NOT CERTAIN; AND AS FAR AS THEY ARE CERTAIN,
 THEY DO NOT REFER TO REALITY.

                                         -- ALBERT EINSTEIN
 Job cpu time:       0 days  1 hours 45 minutes  1.5 seconds.
 Elapsed time:       0 days  0 hours 13 minutes 18.7 seconds.
 File lengths (MBytes):  RWF=   1562 Int=      0 D2E=      0 Chk=     74 Scr=      2
 Normal termination of Gaussian 16 at Thu Sep  4 16:00:13 2025.
