 Entering Gaussian System, Link 0=g16
 Input=M895enew.gjf
 Output=M895enew.log
 Initial command:
 /hpc/softwares/Gaussian/g16/l1.exe "/hpc/home/hpcmgac13/pbs.13857.admin1.x8z/Gau-3536642.inp" -scrdir="/hpc/home/hpcmgac13/pbs.13857.admin1.x8z/"
 Default linda workers: n2
 Default is to use   8 SMP processors on each worker.
 Entering Link 1 = /hpc/softwares/Gaussian/g16/l1.exe PID=   3536643.
  
 Copyright (c) 1988-2021, Gaussian, Inc.  All Rights Reserved.
  
 This is part of the Gaussian(R) 16 program.  It is based on
 the Gaussian(R) 09 system (copyright 2009, Gaussian, Inc.),
 the Gaussian(R) 03 system (copyright 2003, Gaussian, Inc.),
 the Gaussian(R) 98 system (copyright 1998, Gaussian, Inc.),
 the Gaussian(R) 94 system (copyright 1995, Gaussian, Inc.),
 the Gaussian 92(TM) system (copyright 1992, Gaussian, Inc.),
 the Gaussian 90(TM) system (copyright 1990, Gaussian, Inc.),
 the Gaussian 88(TM) system (copyright 1988, Gaussian, Inc.),
 the Gaussian 86(TM) system (copyright 1986, Carnegie Mellon
 University), and the Gaussian 82(TM) system (copyright 1983,
 Carnegie Mellon University). Gaussian is a federally registered
 trademark of Gaussian, Inc.
  
 This software contains proprietary and confidential information,
 including trade secrets, belonging to Gaussian, Inc.
  
 This software is provided under written license and may be
 used, copied, transmitted, or stored only in accord with that
 written license.
  
 The following legend is applicable only to US Government
 contracts under FAR:
  
                    RESTRICTED RIGHTS LEGEND
  
 Use, reproduction and disclosure by the US Government is
 subject to restrictions as set forth in subparagraphs (a)
 and (c) of the Commercial Computer Software - Restricted
 Rights clause in FAR 52.227-19.
  
 Gaussian, Inc.
 340 Quinnipiac St., Bldg. 40, Wallingford CT 06492
  
  
 ---------------------------------------------------------------
 Warning -- This program may not be used in any manner that
 competes with the business of Gaussian, Inc. or will provide
 assistance to any competitor of Gaussian, Inc.  The licensee
 of this program is prohibited from giving any competitor of
 Gaussian, Inc. access to this program.  By using this program,
 the user acknowledges that Gaussian, Inc. is engaged in the
 business of creating and licensing software in the field of
 computational chemistry and represents and warrants to the
 licensee that it is not a competitor of Gaussian, Inc. and that
 it will not use this program in any manner prohibited above.
 ---------------------------------------------------------------
  

 Cite this work as:
 Gaussian 16, Revision C.02,
 M. J. Frisch, G. W. Trucks, H. B. Schlegel, G. E. Scuseria, 
 M. A. Robb, J. R. Cheeseman, G. Scalmani, V. Barone, 
 G. A. Petersson, H. Nakatsuji, X. Li, M. Caricato, A. V. Marenich, 
 J. Bloino, B. G. Janesko, R. Gomperts, B. Mennucci, H. P. Hratchian, 
 J. V. Ortiz, A. F. Izmaylov, J. L. Sonnenberg, D. Williams-Young, 
 F. Ding, F. Lipparini, F. Egidi, J. Goings, B. Peng, A. Petrone, 
 T. Henderson, D. Ranasinghe, V. G. Zakrzewski, J. Gao, N. Rega, 
 G. Zheng, W. Liang, M. Hada, M. Ehara, K. Toyota, R. Fukuda, 
 J. Hasegawa, M. Ishida, T. Nakajima, Y. Honda, O. Kitao, H. Nakai, 
 T. Vreven, K. Throssell, J. A. Montgomery, Jr., J. E. Peralta, 
 F. Ogliaro, M. J. Bearpark, J. J. Heyd, E. N. Brothers, K. N. Kudin, 
 V. N. Staroverov, T. A. Keith, R. Kobayashi, J. Normand, 
 K. Raghavachari, A. P. Rendell, J. C. Burant, S. S. Iyengar, 
 J. Tomasi, M. Cossi, J. M. Millam, M. Klene, C. Adamo, R. Cammi, 
 J. W. Ochterski, R. L. Martin, K. Morokuma, O. Farkas, 
 J. B. Foresman, and D. J. Fox, Gaussian, Inc., Wallingford CT, 2019.
 
 ******************************************
 Gaussian 16:  ES64L-G16RevC.02  7-Dec-2021
                 4-Sep-2025 
 ******************************************
 SetLPE:    new flags="-opt 'Tsnet.Node.lindarsharg: ssh'  -nodelist 'n2.head.cm.mguif.local' -env GAUSS_MDEF=2147483648 -env GAUSS_EXEDIR="/hpc/softwares/Gaussian/g16/bsd:/hpc/softwares/Gaussian/g16""
 Will use up to    1 processors via Linda.
 ----------------------------------------------------------
 # td=(50-50,nstates=3) b3lyp/6-31+g(d,p) geom=connectivity
 ----------------------------------------------------------
 1/38=1,57=2,172=1/1;
 2/12=2,17=6,18=5,40=1/2;
 3/5=1,6=6,7=111,11=9,25=1,30=1,74=-5/1,2,3,8;
 4//1;
 5/5=2,38=5/2;
 8/6=1,10=2,108=3/1;
 9/41=3,42=1,48=2,70=2/14;
 6/7=2,8=2,9=2,10=2/1;
 99/5=1,9=1/99;
 -------------------
 Title Card Required
 -------------------
 Symbolic Z-matrix:
 Charge =  0 Multiplicity = 1
 C                    -3.35714  -1.95867  -0.11911 
 C                    -1.83783  -2.13157   0.02035 
 C                    -1.36793  -1.94757   1.47052 
 C                    -1.02837  -1.25388  -0.96283 
 N                    -0.98661   0.17293  -0.60321 
 N                    -2.057     0.92399  -0.54021 
 C                    -1.63746   2.14035   0.04798 
 O                    -2.34642   3.10826   0.28424 
 N                    -0.25512   2.03342   0.30591 
 N                     0.07726   0.82289  -0.09276 
 C                     1.42449   0.33586  -0.05813 
 C                     2.07466  -0.01335  -1.2449 
 C                     3.39809  -0.4547   -1.18575 
 C                     4.06285  -0.52083   0.0418 
 C                     3.40611  -0.141     1.2168 
 C                     2.08028   0.29058   1.17419 
 H                    -3.87445  -2.68148   0.52077 
 H                    -3.67264  -0.95229   0.1666 
 H                    -3.68333  -2.13048  -1.15093 
 H                    -1.58673  -3.15654  -0.2909 
 H                    -0.2882   -2.10437   1.57395 
 H                    -1.87279  -2.66455   2.1251 
 H                    -1.60881  -0.9442    1.83906 
 H                     0.00593  -1.59472  -1.00548 
 H                    -1.45549  -1.30216  -1.9686 
 H                     1.56154   0.08017  -2.19664 
 H                     3.91269  -0.72762  -2.10166 
 H                     5.09456  -0.85619   0.0815 
 H                     3.92585  -0.17872   2.16893 
 H                     1.55693   0.60323   2.07084 
 
                          Input orientation:                          
 ---------------------------------------------------------------------
 Center     Atomic      Atomic             Coordinates (Angstroms)
 Number     Number       Type             X           Y           Z
 ---------------------------------------------------------------------
      1          6           0       -3.357135   -1.958669   -0.119109
      2          6           0       -1.837825   -2.131566    0.020345
      3          6           0       -1.367930   -1.947567    1.470518
      4          6           0       -1.028372   -1.253880   -0.962834
      5          7           0       -0.986609    0.172927   -0.603214
      6          7           0       -2.056999    0.923987   -0.540208
      7          6           0       -1.637456    2.140354    0.047981
      8          8           0       -2.346416    3.108258    0.284235
      9          7           0       -0.255116    2.033415    0.305910
     10          7           0        0.077256    0.822893   -0.092755
     11          6           0        1.424488    0.335858   -0.058127
     12          6           0        2.074663   -0.013350   -1.244904
     13          6           0        3.398085   -0.454702   -1.185753
     14          6           0        4.062846   -0.520834    0.041803
     15          6           0        3.406107   -0.141003    1.216801
     16          6           0        2.080285    0.290575    1.174188
     17          1           0       -3.874452   -2.681476    0.520768
     18          1           0       -3.672642   -0.952288    0.166600
     19          1           0       -3.683332   -2.130476   -1.150930
     20          1           0       -1.586726   -3.156544   -0.290904
     21          1           0       -0.288195   -2.104370    1.573951
     22          1           0       -1.872785   -2.664550    2.125101
     23          1           0       -1.608806   -0.944195    1.839058
     24          1           0        0.005934   -1.594719   -1.005476
     25          1           0       -1.455487   -1.302156   -1.968599
     26          1           0        1.561537    0.080171   -2.196635
     27          1           0        3.912686   -0.727623   -2.101659
     28          1           0        5.094557   -0.856193    0.081500
     29          1           0        3.925853   -0.178720    2.168927
     30          1           0        1.556930    0.603232    2.070835
 ---------------------------------------------------------------------
                    Distance matrix (angstroms):
                    1          2          3          4          5
     1  C    0.000000
     2  C    1.535462   0.000000
     3  C    2.546365   1.535467   0.000000
     4  C    2.575216   1.546670   2.552979   0.000000
     5  N    3.224508   2.534577   2.990362   1.472022   0.000000
     6  N    3.190201   3.114267   3.572626   2.445361   1.309120
     7  C    4.448281   4.276706   4.336745   3.593543   2.172194
     8  O    5.182469   5.271059   5.284512   4.724476   3.354521
     9  N    5.073450   4.464704   4.294518   3.607485   2.196134
    10  N    4.419595   3.522663   3.493971   2.508473   1.347157
    11  C    5.304007   4.091091   3.917701   3.059785   2.477308
    12  C    5.878445   4.625501   4.792302   3.353700   3.133345
    13  C    7.002331   5.628614   5.656794   4.503543   4.467529
    14  C    7.559721   6.116603   5.793973   5.240911   5.137543
    15  C    7.129517   5.735213   5.110722   5.064969   4.765182
    16  C    6.024720   4.748653   4.121563   4.076267   3.546666
    17  H    1.095221   2.168104   2.779083   3.512731   4.213145
    18  H    1.092693   2.186010   2.828865   2.891149   3.012224
    19  H    1.095708   2.185814   3.502361   2.802251   3.588589
    20  H    2.144473   1.100230   2.147581   2.093652   3.397507
    21  H    3.508001   2.194490   1.095953   2.776054   3.227059
    22  H    2.781734   2.171472   1.094268   3.498338   4.034884
    23  H    2.814290   2.184037   1.095718   2.878091   2.756770
    24  H    3.496904   2.177145   2.853515   1.089852   2.066768
    25  H    2.732744   2.188607   3.500250   1.093765   2.063975
    26  H    5.715445   4.621952   5.112877   3.163793   3.006766
    27  H    7.635200   6.288270   6.491041   5.097835   5.201867
    28  H    8.525655   7.048988   6.699568   6.224070   6.205522
    29  H    7.838702   6.453681   5.625010   5.958879   5.651611
    30  H    5.958794   4.817467   3.927055   4.397249   3.715547
                    6          7          8          9         10
     6  N    0.000000
     7  C    1.414755   0.000000
     8  O    2.352554   1.222816   0.000000
     9  N    2.278931   1.410258   2.351445   0.000000
    10  N    2.182998   2.166967   3.352492   1.317106   0.000000
    11  C    3.563573   3.555695   4.692881   2.415635   1.432982
    12  C    4.294861   4.482167   5.623935   3.467296   2.452832
    13  C    5.663520   5.797680   6.917719   4.664940   3.722203
    14  C    6.314962   6.290898   7.369377   5.023817   4.208163
    15  C    5.836678   5.657584   6.672248   4.354580   3.704765
    16  C    4.522995   4.302514   5.322315   3.040641   2.429122
    17  H    4.174706   5.336452   5.992651   5.947769   5.317237
    18  H    2.574935   3.704118   4.273260   4.540189   4.156954
    19  H    3.513927   4.884975   5.593870   5.586863   4.897361
    20  H    4.115099   5.307970   6.336849   5.391201   4.317872
    21  H    4.095031   4.708160   5.750751   4.327850   3.388264
    22  H    4.473858   5.239934   6.077699   5.291237   4.569880
    23  H    3.058086   3.566962   4.402717   3.612365   3.114050
    24  H    3.288776   4.214412   5.414323   3.866683   2.585149
    25  H    2.712532   3.993818   5.031974   4.211925   3.222410
    26  H    4.068117   4.417716   5.531376   3.657611   2.679746
    27  H    6.387729   6.606839   7.718992   5.548900   4.598948
    28  H    7.395966   7.368882   8.433626   6.084340   5.293676
    29  H    6.659572   6.389595   7.327868   5.083786   4.574946
    30  H    4.470001   4.081517   4.970232   2.905838   2.630363
                   11         12         13         14         15
    11  C    0.000000
    12  C    1.397538   0.000000
    13  C    2.406577   1.396330   0.000000
    14  C    2.775759   2.421988   1.397560   0.000000
    15  C    2.404091   2.801612   2.422960   1.398641   0.000000
    16  C    1.396682   2.438116   2.803811   2.423062   1.394948
    17  H    6.125209   6.754884   7.794904   8.240053   7.742416
    18  H    5.262182   5.992117   7.216068   7.748516   7.202069
    19  H    5.776404   6.135598   7.277080   8.001052   7.734617
    20  H    4.617193   4.918898   5.740126   6.243022   6.024537
    21  H    3.398775   4.231005   4.891424   4.877153   4.198837
    22  H    4.963964   5.828219   6.605093   6.645853   5.921148
    23  H    3.799831   4.893387   5.870097   5.964646   5.116803
    24  H    2.576217   2.614898   3.583131   4.325339   4.314276
    25  H    3.824559   3.827103   4.988806   5.924878   5.927069
    26  H    2.158095   1.085282   2.163534   3.410038   3.886245
    27  H    3.390891   2.150010   1.085442   2.158643   3.407774
    28  H    3.861332   3.404334   2.155259   1.085573   2.156680
    29  H    3.388420   3.886965   3.407137   2.158811   1.085404
    30  H    2.149770   3.412088   3.887730   3.414690   2.168575
                   16         17         18         19         20
    16  C    0.000000
    17  H    6.687222   0.000000
    18  H    5.971274   1.776585   0.000000
    19  H    6.669853   1.770509   1.767520   0.000000
    20  H    5.241764   2.473498   3.069055   2.487613   0.000000
    21  H    3.391942   3.781995   3.842188   4.353460   2.504184
    22  H    5.026307   2.565315   3.163393   3.780965   2.482130
    23  H    3.946657   3.144708   2.656426   3.827656   3.071110
    24  H    3.550803   4.309044   3.913873   3.730801   2.342323
    25  H    4.991551   3.735085   3.097944   2.513561   2.504124
    26  H    3.416989   6.675399   5.835022   5.786978   4.900989
    27  H    3.889164   8.445957   7.920396   7.782761   6.278696
    28  H    3.405125   9.163391   8.768139   8.955111   7.076005
    29  H    2.148456   8.356134   7.895875   8.528218   6.731028
    30  H    1.084265   6.533906   5.778769   6.731514   5.440248
                   21         22         23         24         25
    21  H    0.000000
    22  H    1.768755   0.000000
    23  H    1.777724   1.763839   0.000000
    24  H    2.645695   3.804555   3.334957   0.000000
    25  H    3.815204   4.334586   3.827518   1.774528   0.000000
    26  H    4.734031   6.164857   5.233280   2.577599   3.326449
    27  H    5.749169   7.422187   6.786975   4.149239   5.400470
    28  H    5.723581   7.482668   6.930500   5.255571   6.877853
    29  H    4.671223   6.309158   5.597072   5.239051   6.880411
    30  H    3.313984   4.737540   3.531308   4.086596   5.387224
                   26         27         28         29         30
    26  H    0.000000
    27  H    2.487861   0.000000
    28  H    4.306844   2.485867   0.000000
    29  H    4.971433   4.305737   2.486401   0.000000
    30  H    4.299409   4.972974   4.313024   2.496571   0.000000
 Stoichiometry    C11H14N4O
 Framework group  C1[X(C11H14N4O)]
 Deg. of freedom    84
 Full point group                 C1      NOp   1
 Largest Abelian subgroup         C1      NOp   1
 Largest concise Abelian subgroup C1      NOp   1
                         Standard orientation:                         
 ---------------------------------------------------------------------
 Center     Atomic      Atomic             Coordinates (Angstroms)
 Number     Number       Type             X           Y           Z
 ---------------------------------------------------------------------
      1          6           0       -3.357135   -1.958669   -0.119109
      2          6           0       -1.837825   -2.131566    0.020345
      3          6           0       -1.367930   -1.947567    1.470518
      4          6           0       -1.028372   -1.253880   -0.962834
      5          7           0       -0.986609    0.172927   -0.603214
      6          7           0       -2.056999    0.923987   -0.540208
      7          6           0       -1.637456    2.140354    0.047981
      8          8           0       -2.346416    3.108258    0.284235
      9          7           0       -0.255116    2.033415    0.305910
     10          7           0        0.077256    0.822893   -0.092755
     11          6           0        1.424488    0.335858   -0.058127
     12          6           0        2.074663   -0.013350   -1.244904
     13          6           0        3.398085   -0.454702   -1.185753
     14          6           0        4.062846   -0.520834    0.041803
     15          6           0        3.406107   -0.141003    1.216801
     16          6           0        2.080285    0.290575    1.174188
     17          1           0       -3.874452   -2.681476    0.520768
     18          1           0       -3.672642   -0.952288    0.166600
     19          1           0       -3.683332   -2.130476   -1.150930
     20          1           0       -1.586726   -3.156544   -0.290904
     21          1           0       -0.288195   -2.104370    1.573951
     22          1           0       -1.872785   -2.664550    2.125101
     23          1           0       -1.608806   -0.944195    1.839058
     24          1           0        0.005934   -1.594719   -1.005476
     25          1           0       -1.455487   -1.302156   -1.968599
     26          1           0        1.561537    0.080171   -2.196635
     27          1           0        3.912686   -0.727623   -2.101659
     28          1           0        5.094557   -0.856193    0.081500
     29          1           0        3.925853   -0.178720    2.168927
     30          1           0        1.556930    0.603232    2.070835
 ---------------------------------------------------------------------
 Rotational constants (GHZ):           0.7711142           0.3948483           0.3107385
 Standard basis: 6-31+G(d,p) (6D, 7F)
 There are   374 symmetry adapted cartesian basis functions of A   symmetry.
 There are   374 symmetry adapted basis functions of A   symmetry.
   374 basis functions,   610 primitive gaussians,   374 cartesian basis functions
    58 alpha electrons       58 beta electrons
       nuclear repulsion energy      1098.7108473410 Hartrees.
 NAtoms=   30 NActive=   30 NUniq=   30 SFac= 1.00D+00 NAtFMM=   60 NAOKFM=F Big=F
 Integral buffers will be    131072 words long.
 Regular integral format.
 Two-electron integral symmetry is turned on.
 One-electron integrals computed using PRISM.
 NBasis=   374 RedAO= T EigKep=  1.73D-06  NBF=   374
 NBsUse=   374 1.00D-06 EigRej= -1.00D+00 NBFU=   374
 ExpMin= 4.38D-02 ExpMax= 5.48D+03 ExpMxC= 8.25D+02 IAcc=3 IRadAn=         5 AccDes= 0.00D+00
 Harris functional with IExCor=  402 and IRadAn=       5 diagonalized for initial guess.
 HarFok:  IExCor=  402 AccDes= 0.00D+00 IRadAn=         5 IDoV= 1 UseB2=F ITyADJ=14
 ICtDFT=  3500011 ScaDFX=  1.000000  1.000000  1.000000  1.000000
 FoFCou: FMM=F IPFlag=           0 FMFlag=      100000 FMFlg1=           0
         NFxFlg=           0 DoJE=T BraDBF=F KetDBF=T FulRan=T
         wScrn=  0.000000 ICntrl=       500 IOpCl=  0 I1Cent=   200000004 NGrid=           0
         NMat0=    1 NMatS0=      1 NMatT0=    0 NMatD0=    1 NMtDS0=    0 NMtDT0=    0
 Petite list used in FoFCou.
 Requested convergence on RMS density matrix=1.00D-08 within 128 cycles.
 Requested convergence on MAX density matrix=1.00D-06.
 Requested convergence on             energy=1.00D-06.
 No special actions if energy rises.
 EnCoef did     3 forward-backward iterations
 SCF Done:  E(RB3LYP) =  -721.786455785     A.U. after   18 cycles
            NFock= 18  Conv=0.23D-08     -V/T= 2.0095
 DoSCS=F DFT=T ScalE2(SS,OS)=  1.000000  1.000000
 ExpMin= 4.38D-02 ExpMax= 5.48D+03 ExpMxC= 8.25D+02 IAcc=3 IRadAn=         5 AccDes= 0.00D+00
 HarFok:  IExCor=  205 AccDes= 0.00D+00 IRadAn=         5 IDoV=-2 UseB2=F ITyADJ=14
 ICtDFT= 12500011 ScaDFX=  1.000000  1.000000  1.000000  1.000000
 Range of M.O.s used for correlation:    17   374
 NBasis=   374 NAE=    58 NBE=    58 NFC=    16 NFV=     0
 NROrb=    358 NOA=    42 NOB=    42 NVA=   316 NVB=   316

 **** Warning!!: The largest alpha MO coefficient is  0.14598227D+03

 Orbital symmetries:
       Occupied  (A) (A) (A) (A) (A) (A) (A) (A) (A) (A) (A) (A)
                 (A) (A) (A) (A) (A) (A) (A) (A) (A) (A) (A) (A)
                 (A) (A) (A) (A) (A) (A) (A) (A) (A) (A) (A) (A)
                 (A) (A) (A) (A) (A) (A) (A) (A) (A) (A) (A) (A)
                 (A) (A) (A) (A) (A) (A) (A) (A) (A) (A)
       Virtual   (A) (A) (A) (A) (A) (A) (A) (A) (A) (A) (A) (A)
                 (A) (A) (A) (A) (A) (A) (A) (A) (A) (A) (A) (A)
                 (A) (A) (A) (A) (A) (A) (A) (A) (A) (A) (A) (A)
                 (A) (A) (A) (A) (A) (A) (A) (A) (A) (A) (A) (A)
                 (A) (A) (A) (A) (A) (A) (A) (A) (A) (A) (A) (A)
                 (A) (A) (A) (A) (A) (A) (A) (A) (A) (A) (A) (A)
                 (A) (A) (A) (A) (A) (A) (A) (A) (A) (A) (A) (A)
                 (A) (A) (A) (A) (A) (A) (A) (A) (A) (A) (A) (A)
                 (A) (A) (A) (A) (A) (A) (A) (A) (A) (A) (A) (A)
                 (A) (A) (A) (A) (A) (A) (A) (A) (A) (A) (A) (A)
                 (A) (A) (A) (A) (A) (A) (A) (A) (A) (A) (A) (A)
                 (A) (A) (A) (A) (A) (A) (A) (A) (A) (A) (A) (A)
                 (A) (A) (A) (A) (A) (A) (A) (A) (A) (A) (A) (A)
                 (A) (A) (A) (A) (A) (A) (A) (A) (A) (A) (A) (A)
                 (A) (A) (A) (A) (A) (A) (A) (A) (A) (A) (A) (A)
                 (A) (A) (A) (A) (A) (A) (A) (A) (A) (A) (A) (A)
                 (A) (A) (A) (A) (A) (A) (A) (A) (A) (A) (A) (A)
                 (A) (A) (A) (A) (A) (A) (A) (A) (A) (A) (A) (A)
                 (A) (A) (A) (A) (A) (A) (A) (A) (A) (A) (A) (A)
                 (A) (A) (A) (A) (A) (A) (A) (A) (A) (A) (A) (A)
                 (A) (A) (A) (A) (A) (A) (A) (A) (A) (A) (A) (A)
                 (A) (A) (A) (A) (A) (A) (A) (A) (A) (A) (A) (A)
                 (A) (A) (A) (A) (A) (A) (A) (A) (A) (A) (A) (A)
                 (A) (A) (A) (A) (A) (A) (A) (A) (A) (A) (A) (A)
                 (A) (A) (A) (A) (A) (A) (A) (A) (A) (A) (A) (A)
                 (A) (A) (A) (A) (A) (A) (A) (A) (A) (A) (A) (A)
                 (A) (A) (A) (A)
    24 initial guesses have been made.
 Convergence on wavefunction:    0.001000000000000
 Iteration     1 Dimension    24 NMult     0 NNew     24
 CISAX will form    24 AO SS matrices at one time.
 New state      1 was old state      2
 New state      2 was old state      6
 New state      3 was old state      5
 New state      4 was old state      7
 New state      5 was old state      8
 New state      6 was old state      4
 New state      7 was old state      3
 New state      8 was old state     14
 New state      9 was old state     10
 New state     10 was old state      9
 New state     11 was old state     13
 New state     12 was old state     20
 Vector   6 SDiff=7.87D+00 TDiff=8.12D+00 assumed to be singlet.
 Vector  12 SDiff=7.90D+00 TDiff=7.95D+00 assumed to be singlet.
 Iteration     2 Dimension    36 NMult    24 NNew     12
 New state      3 was old state      4
 New state      4 was old state      3
 New state      6 was old state      7
 Iteration     3 Dimension    48 NMult    36 NNew     12
 Iteration     4 Dimension    60 NMult    48 NNew     12
 Iteration     5 Dimension    72 NMult    60 NNew     12
 Iteration     6 Dimension    78 NMult    72 NNew      6
 Iteration     7 Dimension    80 NMult    78 NNew      2
 ***********************************************************************
 Excited states from <AA,BB:AA,BB> singles matrix:
 ***********************************************************************
 
 Ground to excited state transition densities written to RWF  633
 Ground to excited state transition electric dipole moments (Au):
       state          X           Y           Z        Dip. S.      Osc.
         1        -0.0000     -0.0000      0.0000      0.0000      0.0000
         2        -0.0000     -0.0000     -0.0000      0.0000      0.0000
         3        -0.8841     -0.1823     -0.1742      0.8451      0.0643
         4         0.2225     -0.1161      0.0655      0.0673      0.0054
         5         0.0000     -0.0000      0.0000      0.0000      0.0000
         6         0.1416     -0.0871     -0.0888      0.0355      0.0032
 Ground to excited state transition velocity dipole moments (Au):
       state          X           Y           Z        Dip. S.      Osc.
         1         0.0000      0.0000      0.0000      0.0000      0.0000
         2         0.0000     -0.0000     -0.0000      0.0000      0.0000
         3         0.0943      0.0197      0.0201      0.0097      0.0565
         4        -0.0267      0.0135     -0.0066      0.0009      0.0052
         5        -0.0000      0.0000     -0.0000      0.0000      0.0000
         6        -0.0167      0.0064      0.0123      0.0005      0.0024
 Ground to excited state transition magnetic dipole moments (Au):
       state          X           Y           Z
         1        -0.0000     -0.0000     -0.0000
         2        -0.0000     -0.0000     -0.0000
         3        -0.0845     -0.1869      0.0761
         4         0.1215      0.0877      0.1111
         5         0.0000      0.0000      0.0000
         6        -0.0125     -0.2007      0.1057
 Ground to excited state transition velocity quadrupole moments (Au):
       state          XX          YY          ZZ          XY          XZ          YZ
         1        -0.0000      0.0000     -0.0000     -0.0000      0.0000     -0.0000
         2         0.0000      0.0000     -0.0000     -0.0000      0.0000     -0.0000
         3         0.0641     -0.0057     -0.0014      0.0100     -0.0495      0.0319
         4        -0.0780      0.0713     -0.0116     -0.0398      0.0138     -0.0173
         5         0.0000      0.0000      0.0000      0.0000     -0.0000      0.0000
         6        -0.0283      0.0482     -0.0230     -0.0535      0.0530      0.0187
 <0|del|b> * <b|rxdel|0> + <0|del|b> * <b|delr+rdel|0>
 Rotatory Strengths (R) in cgs (10**-40 erg-esu-cm/Gauss)
       state          XX          YY          ZZ    R(velocity)    E-M Angle
         1        -0.0000     -0.0000     -0.0000     -0.0000       90.00
         2         0.0000     -0.0000      0.0000     -0.0000       90.00
         3        -3.0360    -11.2409    -48.4525    -20.9098      118.06
         4         1.5568    -11.1263     -6.8547     -5.4747      119.21
         5         0.0000     -0.0000      0.0000      0.0000       90.00
         6        -2.6247      4.9195     -1.1399      0.3850       87.47
 1/2[<0|r|b>*<b|rxdel|0> + (<0|rxdel|b>*<b|r|0>)*]
 Rotatory Strengths (R) in cgs (10**-40 erg-esu-cm/Gauss)
       state          XX          YY          ZZ     R(length)
         1        -0.0000     -0.0000      0.0000     -0.0000
         2        -0.0000     -0.0000     -0.0000     -0.0000
         3       -52.8358    -24.0995      9.3788    -22.5188
         4       -19.1176      7.2040     -5.1443     -5.6859
         5        -0.0000      0.0000     -0.0000     -0.0000
         6         1.2498    -12.3609      6.6403     -1.4903
  1/2[<0|del|b>*<b|r|0> + (<0|r|b>*<b|del|0>)*] (Au)
       state          X           Y           Z        Dip. S.   Osc.(frdel)
         1        -0.0000     -0.0000      0.0000      0.0000      0.0000
         2        -0.0000      0.0000      0.0000      0.0000      0.0000
         3        -0.0833     -0.0036     -0.0035      0.0904      0.0603
         4        -0.0059     -0.0016     -0.0004      0.0079      0.0053
         5        -0.0000     -0.0000     -0.0000      0.0000      0.0000
         6        -0.0024     -0.0006     -0.0011      0.0040      0.0027

 Excitation energies and oscillator strengths:
 
 Excited State   1:      Triplet-A      1.4883 eV  833.08 nm  f=0.0000  <S**2>=2.000
      58 -> 59         0.67010
      58 -> 61        -0.26914
      58 <- 59         0.16290
 This state for optimization and/or second-order correction.
 Total Energy, E(TD-HF/TD-DFT) =  -721.731763449    
 Copying the excited state density for this state as the 1-particle RhoCI density.
 
 Excited State   2:      Triplet-A      3.1056 eV  399.23 nm  f=0.0000  <S**2>=2.000
      56 -> 59         0.10804
      57 -> 59         0.66629
      57 -> 61        -0.14816
 
 Excited State   3:      Singlet-A      3.1065 eV  399.11 nm  f=0.0643  <S**2>=0.000
      58 -> 59         0.69232
      58 -> 61         0.13674
 
 Excited State   4:      Singlet-A      3.2671 eV  379.49 nm  f=0.0054  <S**2>=0.000
      57 -> 59         0.68218
      57 -> 61        -0.16657
 
 Excited State   5:      Triplet-A      3.3954 eV  365.16 nm  f=0.0000  <S**2>=2.000
      55 -> 60         0.13641
      56 -> 59        -0.13260
      56 -> 61        -0.12606
      58 -> 59         0.23667
      58 -> 61         0.60215
 
 Excited State   6:      Singlet-A      3.6277 eV  341.77 nm  f=0.0032  <S**2>=0.000
      58 -> 60         0.70341
 SavETr:  write IOETrn=   770 NScale= 10 NData=  16 NLR=1 NState=    6 LETran=     118.

 **********************************************************************

            Population analysis using the SCF Density.

 **********************************************************************

 Orbital symmetries:
       Occupied  (A) (A) (A) (A) (A) (A) (A) (A) (A) (A) (A) (A)
                 (A) (A) (A) (A) (A) (A) (A) (A) (A) (A) (A) (A)
                 (A) (A) (A) (A) (A) (A) (A) (A) (A) (A) (A) (A)
                 (A) (A) (A) (A) (A) (A) (A) (A) (A) (A) (A) (A)
                 (A) (A) (A) (A) (A) (A) (A) (A) (A) (A)
       Virtual   (A) (A) (A) (A) (A) (A) (A) (A) (A) (A) (A) (A)
                 (A) (A) (A) (A) (A) (A) (A) (A) (A) (A) (A) (A)
                 (A) (A) (A) (A) (A) (A) (A) (A) (A) (A) (A) (A)
                 (A) (A) (A) (A) (A) (A) (A) (A) (A) (A) (A) (A)
                 (A) (A) (A) (A) (A) (A) (A) (A) (A) (A) (A) (A)
                 (A) (A) (A) (A) (A) (A) (A) (A) (A) (A) (A) (A)
                 (A) (A) (A) (A) (A) (A) (A) (A) (A) (A) (A) (A)
                 (A) (A) (A) (A) (A) (A) (A) (A) (A) (A) (A) (A)
                 (A) (A) (A) (A) (A) (A) (A) (A) (A) (A) (A) (A)
                 (A) (A) (A) (A) (A) (A) (A) (A) (A) (A) (A) (A)
                 (A) (A) (A) (A) (A) (A) (A) (A) (A) (A) (A) (A)
                 (A) (A) (A) (A) (A) (A) (A) (A) (A) (A) (A) (A)
                 (A) (A) (A) (A) (A) (A) (A) (A) (A) (A) (A) (A)
                 (A) (A) (A) (A) (A) (A) (A) (A) (A) (A) (A) (A)
                 (A) (A) (A) (A) (A) (A) (A) (A) (A) (A) (A) (A)
                 (A) (A) (A) (A) (A) (A) (A) (A) (A) (A) (A) (A)
                 (A) (A) (A) (A) (A) (A) (A) (A) (A) (A) (A) (A)
                 (A) (A) (A) (A) (A) (A) (A) (A) (A) (A) (A) (A)
                 (A) (A) (A) (A) (A) (A) (A) (A) (A) (A) (A) (A)
                 (A) (A) (A) (A) (A) (A) (A) (A) (A) (A) (A) (A)
                 (A) (A) (A) (A) (A) (A) (A) (A) (A) (A) (A) (A)
                 (A) (A) (A) (A) (A) (A) (A) (A) (A) (A) (A) (A)
                 (A) (A) (A) (A) (A) (A) (A) (A) (A) (A) (A) (A)
                 (A) (A) (A) (A) (A) (A) (A) (A) (A) (A) (A) (A)
                 (A) (A) (A) (A) (A) (A) (A) (A) (A) (A) (A) (A)
                 (A) (A) (A) (A) (A) (A) (A) (A) (A) (A) (A) (A)
                 (A) (A) (A) (A)
 The electronic state is 1-A.
 Alpha  occ. eigenvalues --  -19.08515 -14.50133 -14.49943 -14.37668 -14.37507
 Alpha  occ. eigenvalues --  -10.28488 -10.28477 -10.27386 -10.24395 -10.23961
 Alpha  occ. eigenvalues --  -10.23810 -10.23644 -10.23590 -10.22908 -10.20072
 Alpha  occ. eigenvalues --  -10.18833  -1.17921  -1.00265  -0.99850  -0.91659
 Alpha  occ. eigenvalues --   -0.88472  -0.83750  -0.80146  -0.79441  -0.75658
 Alpha  occ. eigenvalues --   -0.70648  -0.69783  -0.66389  -0.64838  -0.62762
 Alpha  occ. eigenvalues --   -0.60247  -0.56910  -0.55395  -0.53537  -0.51063
 Alpha  occ. eigenvalues --   -0.49761  -0.48624  -0.48113  -0.46996  -0.46553
 Alpha  occ. eigenvalues --   -0.45233  -0.41788  -0.40840  -0.40646  -0.39979
 Alpha  occ. eigenvalues --   -0.39499  -0.39194  -0.38374  -0.36565  -0.36167
 Alpha  occ. eigenvalues --   -0.35938  -0.34716  -0.33943  -0.31481  -0.29842
 Alpha  occ. eigenvalues --   -0.29533  -0.23823  -0.21051
 Alpha virt. eigenvalues --   -0.08095  -0.05468  -0.04935  -0.02166  -0.00694
 Alpha virt. eigenvalues --   -0.00020   0.01076   0.01710   0.01880   0.03241
 Alpha virt. eigenvalues --    0.03670   0.03884   0.04285   0.04928   0.05493
 Alpha virt. eigenvalues --    0.06310   0.06542   0.07457   0.07589   0.07940
 Alpha virt. eigenvalues --    0.08162   0.08481   0.08822   0.09532   0.09733
 Alpha virt. eigenvalues --    0.10053   0.10543   0.10830   0.11159   0.11512
 Alpha virt. eigenvalues --    0.11783   0.12843   0.13494   0.13724   0.13952
 Alpha virt. eigenvalues --    0.14197   0.14507   0.15355   0.15574   0.16557
 Alpha virt. eigenvalues --    0.16788   0.16909   0.17206   0.18118   0.18354
 Alpha virt. eigenvalues --    0.18617   0.19037   0.19196   0.19681   0.20039
 Alpha virt. eigenvalues --    0.20500   0.20686   0.21657   0.21740   0.22235
 Alpha virt. eigenvalues --    0.22724   0.23073   0.23580   0.24138   0.24535
 Alpha virt. eigenvalues --    0.24680   0.25109   0.25517   0.25693   0.26595
 Alpha virt. eigenvalues --    0.27282   0.27565   0.28630   0.28874   0.28994
 Alpha virt. eigenvalues --    0.29957   0.30086   0.30476   0.30865   0.31454
 Alpha virt. eigenvalues --    0.32077   0.32146   0.32626   0.33721   0.33957
 Alpha virt. eigenvalues --    0.34508   0.34682   0.35315   0.35903   0.36705
 Alpha virt. eigenvalues --    0.37446   0.37946   0.38078   0.38859   0.40464
 Alpha virt. eigenvalues --    0.41275   0.42254   0.43067   0.45418   0.46275
 Alpha virt. eigenvalues --    0.47038   0.49751   0.53495   0.55021   0.57478
 Alpha virt. eigenvalues --    0.61198   0.62171   0.63723   0.65113   0.66082
 Alpha virt. eigenvalues --    0.67181   0.68232   0.68849   0.69974   0.70544
 Alpha virt. eigenvalues --    0.71091   0.72745   0.73029   0.73625   0.73989
 Alpha virt. eigenvalues --    0.74525   0.77153   0.78134   0.78661   0.81049
 Alpha virt. eigenvalues --    0.81988   0.83223   0.85518   0.86968   0.88659
 Alpha virt. eigenvalues --    0.88694   0.89395   0.90642   0.90923   0.91237
 Alpha virt. eigenvalues --    0.92125   0.93255   0.93928   0.95861   0.96813
 Alpha virt. eigenvalues --    0.97452   0.98234   0.99245   0.99794   1.00493
 Alpha virt. eigenvalues --    1.00916   1.02320   1.03323   1.04585   1.04848
 Alpha virt. eigenvalues --    1.06597   1.07192   1.07603   1.08829   1.10739
 Alpha virt. eigenvalues --    1.11803   1.12637   1.12959   1.14575   1.15826
 Alpha virt. eigenvalues --    1.17778   1.18565   1.20695   1.20980   1.24964
 Alpha virt. eigenvalues --    1.25085   1.27070   1.28905   1.29599   1.31570
 Alpha virt. eigenvalues --    1.34395   1.34966   1.36242   1.36563   1.36977
 Alpha virt. eigenvalues --    1.37568   1.38353   1.39507   1.39962   1.41200
 Alpha virt. eigenvalues --    1.42046   1.42345   1.46068   1.46665   1.46971
 Alpha virt. eigenvalues --    1.49684   1.50732   1.53158   1.54645   1.55750
 Alpha virt. eigenvalues --    1.60553   1.64216   1.68698   1.71927   1.74254
 Alpha virt. eigenvalues --    1.75866   1.77249   1.79296   1.79698   1.81480
 Alpha virt. eigenvalues --    1.83403   1.84014   1.84871   1.85839   1.86437
 Alpha virt. eigenvalues --    1.88469   1.89793   1.90710   1.92107   1.92720
 Alpha virt. eigenvalues --    1.93863   1.95062   1.96006   1.96937   1.98227
 Alpha virt. eigenvalues --    1.98788   1.99915   2.01603   2.02863   2.04216
 Alpha virt. eigenvalues --    2.04463   2.04820   2.06304   2.09420   2.10543
 Alpha virt. eigenvalues --    2.10988   2.11393   2.12593   2.14744   2.16983
 Alpha virt. eigenvalues --    2.18227   2.19306   2.23606   2.24131   2.26560
 Alpha virt. eigenvalues --    2.27843   2.29246   2.31363   2.32465   2.34089
 Alpha virt. eigenvalues --    2.34680   2.34798   2.35786   2.36428   2.37146
 Alpha virt. eigenvalues --    2.37736   2.39345   2.40779   2.42254   2.42901
 Alpha virt. eigenvalues --    2.46270   2.47416   2.50642   2.51130   2.52533
 Alpha virt. eigenvalues --    2.53344   2.55240   2.56242   2.57483   2.60077
 Alpha virt. eigenvalues --    2.61638   2.62371   2.65482   2.66715   2.67905
 Alpha virt. eigenvalues --    2.68207   2.69327   2.70230   2.71771   2.72539
 Alpha virt. eigenvalues --    2.74144   2.75169   2.77434   2.79087   2.82390
 Alpha virt. eigenvalues --    2.85089   2.86938   2.87850   2.89535   2.89894
 Alpha virt. eigenvalues --    2.92261   2.96077   2.97812   3.03106   3.06151
 Alpha virt. eigenvalues --    3.07427   3.11963   3.16285   3.23711   3.24862
 Alpha virt. eigenvalues --    3.25481   3.25998   3.26502   3.28176   3.32136
 Alpha virt. eigenvalues --    3.34110   3.38214   3.41862   3.44794   3.47131
 Alpha virt. eigenvalues --    3.49797   3.50512   3.51931   3.53851   3.86194
 Alpha virt. eigenvalues --    4.14604   4.24120   4.26407   4.27099   4.29648
 Alpha virt. eigenvalues --    4.37270   4.41908   4.44043   4.47737   4.48302
 Alpha virt. eigenvalues --    4.52491   4.58160   4.63341   4.72787   4.78718
 Alpha virt. eigenvalues --    4.85734
          Condensed to atoms (all electrons):
               1          2          3          4          5          6
     1  C    5.378448   0.004287  -0.101619  -0.064465   0.084794  -0.052262
     2  C    0.004287   6.591402  -0.213627  -0.410069  -0.173352   0.341626
     3  C   -0.101619  -0.213627   5.490074   0.224243  -0.005307  -0.109983
     4  C   -0.064465  -0.410069   0.224243   6.188760   0.011617  -0.455464
     5  N    0.084794  -0.173352  -0.005307   0.011617   9.654673  -1.132188
     6  N   -0.052262   0.341626  -0.109983  -0.455464  -1.132188   8.920227
     7  C   -0.020584   0.053511  -0.018171  -0.053743  -0.171969   0.206763
     8  O    0.000507  -0.003788   0.001196   0.000899  -0.014260  -0.102177
     9  N    0.032503  -0.166412   0.040893   0.142780   0.440901  -0.885559
    10  N    0.012063  -0.142644   0.060673   0.098269  -2.374285   0.610791
    11  C   -0.015590   0.193273  -0.089588  -0.239475   0.477500   0.139864
    12  C    0.010476  -0.108806  -0.030212   0.746581   0.429949  -0.650465
    13  C    0.008412  -0.013939   0.002136  -0.055090  -0.044737  -0.006175
    14  C   -0.001384   0.001274   0.001171  -0.014632   0.041971  -0.002178
    15  C    0.003571  -0.025957   0.016845   0.019520   0.049549  -0.009227
    16  C   -0.012100   0.154518   0.005188  -0.763448  -0.429498   0.593090
    17  H    0.421634  -0.074008  -0.009814   0.013556  -0.003274   0.005774
    18  H    0.472189  -0.122928   0.002417   0.001722   0.044855  -0.041388
    19  H    0.391701  -0.038512   0.010596  -0.004581  -0.015958   0.011520
    20  H    0.013152   0.259158  -0.002011  -0.008166   0.010306  -0.014086
    21  H    0.004557  -0.027953   0.389012  -0.013546  -0.014349   0.004464
    22  H   -0.015355  -0.086351   0.431213   0.033639  -0.009874   0.000475
    23  H    0.014990  -0.153203   0.460410   0.021404   0.039629  -0.040721
    24  H    0.007345   0.014762  -0.030010   0.339876  -0.067600   0.018283
    25  H   -0.019365  -0.016271   0.007372   0.400370  -0.052058   0.053737
    26  H   -0.000036   0.000468   0.000260   0.004200  -0.002199   0.008592
    27  H    0.000006  -0.000126   0.000041   0.000257  -0.000628  -0.000032
    28  H    0.000000   0.000149  -0.000085  -0.000335   0.000044   0.000001
    29  H   -0.000004  -0.000001  -0.000014   0.000080   0.000048   0.000006
    30  H   -0.000055  -0.003119   0.003396   0.000611  -0.022178   0.000043
               7          8          9         10         11         12
     1  C   -0.020584   0.000507   0.032503   0.012063  -0.015590   0.010476
     2  C    0.053511  -0.003788  -0.166412  -0.142644   0.193273  -0.108806
     3  C   -0.018171   0.001196   0.040893   0.060673  -0.089588  -0.030212
     4  C   -0.053743   0.000899   0.142780   0.098269  -0.239475   0.746581
     5  N   -0.171969  -0.014260   0.440901  -2.374285   0.477500   0.429949
     6  N    0.206763  -0.102177  -0.885559   0.610791   0.139864  -0.650465
     7  C    5.015010   0.369408  -0.054625   0.284008  -0.274806   0.003717
     8  O    0.369408   8.400523  -0.119146   0.004582   0.031013  -0.022405
     9  N   -0.054625  -0.119146   8.527144  -0.700288  -0.617650  -0.141457
    10  N    0.284008   0.004582  -0.700288   9.532929  -1.073568  -0.450079
    11  C   -0.274806   0.031013  -0.617650  -1.073568  26.482740  -2.260565
    12  C    0.003717  -0.022405  -0.141457  -0.450079  -2.260565  33.030349
    13  C   -0.025472   0.000704   0.033233   0.107420  -0.688815  -0.838263
    14  C    0.008438   0.000143   0.016942  -0.011009  -1.415332  -0.683448
    15  C   -0.030716  -0.000995   0.169116  -0.069358  -1.651048  -0.143509
    16  C    0.192839   0.007928   0.349500   0.805008 -11.567634 -23.052331
    17  H    0.000294   0.000000  -0.000392  -0.000817   0.001986  -0.000828
    18  H   -0.002890  -0.000066   0.002961   0.002305  -0.003436   0.002128
    19  H    0.000027   0.000015   0.000007  -0.001931   0.001394  -0.001143
    20  H   -0.000906   0.000001   0.001718   0.013996  -0.005806   0.003237
    21  H    0.000461  -0.000027  -0.002699   0.011677   0.005019  -0.010911
    22  H    0.000175  -0.000006   0.000571   0.006012  -0.002955  -0.000867
    23  H   -0.002893   0.000039   0.017409   0.005124  -0.035368   0.009580
    24  H    0.000952  -0.000066   0.010047   0.049359  -0.097372   0.047985
    25  H   -0.003351   0.000076  -0.008103  -0.064091   0.017403   0.025812
    26  H    0.000889   0.000003  -0.014136  -0.000097   0.214689   0.078723
    27  H    0.000022   0.000000   0.000492   0.000820   0.001215   0.027270
    28  H   -0.000003  -0.000000  -0.000095  -0.000278   0.002502   0.005011
    29  H   -0.000006  -0.000000  -0.000604   0.000489  -0.011132  -0.006476
    30  H    0.001580   0.000036   0.017495   0.001415   0.126371   0.051277
              13         14         15         16         17         18
     1  C    0.008412  -0.001384   0.003571  -0.012100   0.421634   0.472189
     2  C   -0.013939   0.001274  -0.025957   0.154518  -0.074008  -0.122928
     3  C    0.002136   0.001171   0.016845   0.005188  -0.009814   0.002417
     4  C   -0.055090  -0.014632   0.019520  -0.763448   0.013556   0.001722
     5  N   -0.044737   0.041971   0.049549  -0.429498  -0.003274   0.044855
     6  N   -0.006175  -0.002178  -0.009227   0.593090   0.005774  -0.041388
     7  C   -0.025472   0.008438  -0.030716   0.192839   0.000294  -0.002890
     8  O    0.000704   0.000143  -0.000995   0.007928   0.000000  -0.000066
     9  N    0.033233   0.016942   0.169116   0.349500  -0.000392   0.002961
    10  N    0.107420  -0.011009  -0.069358   0.805008  -0.000817   0.002305
    11  C   -0.688815  -1.415332  -1.651048 -11.567634   0.001986  -0.003436
    12  C   -0.838263  -0.683448  -0.143509 -23.052331  -0.000828   0.002128
    13  C    6.633166   0.557046   0.048559   0.263172  -0.000032   0.000238
    14  C    0.557046   5.434003   0.412569   1.252854  -0.000010  -0.000010
    15  C    0.048559   0.412569   6.484936   0.715489  -0.000003   0.000034
    16  C    0.263172   1.252854   0.715489  36.141453  -0.000080  -0.000926
    17  H   -0.000032  -0.000010  -0.000003  -0.000080   0.558064  -0.026531
    18  H    0.000238  -0.000010   0.000034  -0.000926  -0.026531   0.493551
    19  H   -0.000142  -0.000007  -0.000012   0.000291  -0.027665  -0.025778
    20  H    0.001102   0.000024   0.000028  -0.002038  -0.004557   0.004843
    21  H    0.003392  -0.002345   0.004428   0.001086   0.000069   0.000004
    22  H    0.000166  -0.000124  -0.000204   0.000171   0.002601  -0.000192
    23  H    0.000578   0.000923  -0.000790   0.012730  -0.000270   0.003073
    24  H    0.011827   0.005989  -0.002681   0.015130  -0.000143  -0.000062
    25  H   -0.011246   0.000225  -0.000576  -0.016497   0.000102  -0.000367
    26  H   -0.067304  -0.015492  -0.005001   0.102879   0.000000   0.000000
    27  H    0.249535   0.033289  -0.004628   0.005481   0.000000  -0.000000
    28  H    0.019638   0.269071   0.025066  -0.007100  -0.000000  -0.000000
    29  H   -0.000803   0.032778   0.251202   0.048125   0.000000  -0.000000
    30  H    0.003444  -0.012457  -0.035236   0.176456  -0.000000   0.000000
              19         20         21         22         23         24
     1  C    0.391701   0.013152   0.004557  -0.015355   0.014990   0.007345
     2  C   -0.038512   0.259158  -0.027953  -0.086351  -0.153203   0.014762
     3  C    0.010596  -0.002011   0.389012   0.431213   0.460410  -0.030010
     4  C   -0.004581  -0.008166  -0.013546   0.033639   0.021404   0.339876
     5  N   -0.015958   0.010306  -0.014349  -0.009874   0.039629  -0.067600
     6  N    0.011520  -0.014086   0.004464   0.000475  -0.040721   0.018283
     7  C    0.000027  -0.000906   0.000461   0.000175  -0.002893   0.000952
     8  O    0.000015   0.000001  -0.000027  -0.000006   0.000039  -0.000066
     9  N    0.000007   0.001718  -0.002699   0.000571   0.017409   0.010047
    10  N   -0.001931   0.013996   0.011677   0.006012   0.005124   0.049359
    11  C    0.001394  -0.005806   0.005019  -0.002955  -0.035368  -0.097372
    12  C   -0.001143   0.003237  -0.010911  -0.000867   0.009580   0.047985
    13  C   -0.000142   0.001102   0.003392   0.000166   0.000578   0.011827
    14  C   -0.000007   0.000024  -0.002345  -0.000124   0.000923   0.005989
    15  C   -0.000012   0.000028   0.004428  -0.000204  -0.000790  -0.002681
    16  C    0.000291  -0.002038   0.001086   0.000171   0.012730   0.015130
    17  H   -0.027665  -0.004557   0.000069   0.002601  -0.000270  -0.000143
    18  H   -0.025778   0.004843   0.000004  -0.000192   0.003073  -0.000062
    19  H    0.559982  -0.004040  -0.000154   0.000069   0.000027   0.000058
    20  H   -0.004040   0.606482  -0.004132  -0.003872   0.005191  -0.005647
    21  H   -0.000154  -0.004132   0.559072  -0.026350  -0.029534   0.002364
    22  H    0.000069  -0.003872  -0.026350   0.543066  -0.024350   0.000077
    23  H    0.000027   0.005191  -0.029534  -0.024350   0.524851   0.000052
    24  H    0.000058  -0.005647   0.002364   0.000077   0.000052   0.552475
    25  H    0.003762  -0.001567  -0.000059  -0.000119  -0.000128  -0.029850
    26  H   -0.000000   0.000001  -0.000000  -0.000000   0.000000  -0.001416
    27  H    0.000000   0.000000   0.000000   0.000000   0.000000   0.000004
    28  H   -0.000000  -0.000000   0.000000  -0.000000  -0.000000   0.000000
    29  H   -0.000000   0.000000  -0.000002   0.000000   0.000000  -0.000000
    30  H    0.000000   0.000000   0.000012   0.000006   0.000008   0.000031
              25         26         27         28         29         30
     1  C   -0.019365  -0.000036   0.000006   0.000000  -0.000004  -0.000055
     2  C   -0.016271   0.000468  -0.000126   0.000149  -0.000001  -0.003119
     3  C    0.007372   0.000260   0.000041  -0.000085  -0.000014   0.003396
     4  C    0.400370   0.004200   0.000257  -0.000335   0.000080   0.000611
     5  N   -0.052058  -0.002199  -0.000628   0.000044   0.000048  -0.022178
     6  N    0.053737   0.008592  -0.000032   0.000001   0.000006   0.000043
     7  C   -0.003351   0.000889   0.000022  -0.000003  -0.000006   0.001580
     8  O    0.000076   0.000003   0.000000  -0.000000  -0.000000   0.000036
     9  N   -0.008103  -0.014136   0.000492  -0.000095  -0.000604   0.017495
    10  N   -0.064091  -0.000097   0.000820  -0.000278   0.000489   0.001415
    11  C    0.017403   0.214689   0.001215   0.002502  -0.011132   0.126371
    12  C    0.025812   0.078723   0.027270   0.005011  -0.006476   0.051277
    13  C   -0.011246  -0.067304   0.249535   0.019638  -0.000803   0.003444
    14  C    0.000225  -0.015492   0.033289   0.269071   0.032778  -0.012457
    15  C   -0.000576  -0.005001  -0.004628   0.025066   0.251202  -0.035236
    16  C   -0.016497   0.102879   0.005481  -0.007100   0.048125   0.176456
    17  H    0.000102   0.000000   0.000000  -0.000000   0.000000  -0.000000
    18  H   -0.000367   0.000000  -0.000000  -0.000000  -0.000000   0.000000
    19  H    0.003762  -0.000000   0.000000  -0.000000  -0.000000   0.000000
    20  H   -0.001567   0.000001   0.000000  -0.000000   0.000000   0.000000
    21  H   -0.000059  -0.000000   0.000000   0.000000  -0.000002   0.000012
    22  H   -0.000119  -0.000000   0.000000  -0.000000   0.000000   0.000006
    23  H   -0.000128   0.000000   0.000000  -0.000000   0.000000   0.000008
    24  H   -0.029850  -0.001416   0.000004   0.000000  -0.000000   0.000031
    25  H    0.547136  -0.000196   0.000001  -0.000000  -0.000000  -0.000001
    26  H   -0.000196   0.558713  -0.005256  -0.000142   0.000015  -0.000139
    27  H    0.000001  -0.005256   0.556183  -0.005477  -0.000156   0.000014
    28  H   -0.000000  -0.000142  -0.005477   0.559123  -0.005487  -0.000131
    29  H   -0.000000   0.000015  -0.000156  -0.005487   0.553910  -0.005278
    30  H   -0.000001  -0.000139   0.000014  -0.000131  -0.005278   0.542933
 Mulliken charges:
               1
     1  C   -0.557815
     2  C    0.166637
     3  C   -0.536695
     4  C   -0.165371
     5  N    0.247877
     6  N   -0.413351
     7  C    0.522043
     8  O   -0.554137
     9  N   -0.092548
    10  N    0.281504
    11  C   -1.644829
    12  C   -0.070332
    13  C   -0.191747
    14  C    0.089715
    15  C   -0.220972
    16  C    1.008262
    17  H    0.144342
    18  H    0.194253
    19  H    0.140472
    20  H    0.137588
    21  H    0.146444
    22  H    0.152376
    23  H    0.171242
    24  H    0.158231
    25  H    0.167848
    26  H    0.141981
    27  H    0.141673
    28  H    0.138528
    29  H    0.143313
    30  H    0.153468
 Sum of Mulliken charges =  -0.00000
 Mulliken charges with hydrogens summed into heavy atoms:
               1
     1  C   -0.078749
     2  C    0.304225
     3  C   -0.066632
     4  C    0.160708
     5  N    0.247877
     6  N   -0.413351
     7  C    0.522043
     8  O   -0.554137
     9  N   -0.092548
    10  N    0.281504
    11  C   -1.644829
    12  C    0.071649
    13  C   -0.050074
    14  C    0.228243
    15  C   -0.077659
    16  C    1.161730
 Electronic spatial extent (au):  <R**2>=           3743.6546
 Charge=             -0.0000 electrons
 Dipole moment (field-independent basis, Debye):
    X=              6.4707    Y=             -8.9525    Z=             -1.2885  Tot=             11.1210
 Quadrupole moment (field-independent basis, Debye-Ang):
   XX=            -95.4442   YY=           -117.4277   ZZ=            -87.5920
   XY=             15.2050   XZ=              0.7436   YZ=             -1.0097
 Traceless Quadrupole moment (field-independent basis, Debye-Ang):
   XX=              4.7105   YY=            -17.2731   ZZ=             12.5626
   XY=             15.2050   XZ=              0.7436   YZ=             -1.0097
 Octapole moment (field-independent basis, Debye-Ang**2):
  XXX=             82.1974  YYY=            -75.2139  ZZZ=             -4.0509  XYY=             29.4879
  XXY=            -56.6428  XXZ=              3.8089  XZZ=             10.5191  YZZ=             -1.9342
  YYZ=            -11.3562  XYZ=              6.1799
 Hexadecapole moment (field-independent basis, Debye-Ang**3):
 XXXX=          -2992.7377 YYYY=          -1656.9507 ZZZZ=           -519.3503 XXXY=             27.9609
 XXXZ=              5.4022 YYYX=            157.7876 YYYZ=            -33.5445 ZZZX=              5.9572
 ZZZY=             11.2489 XXYY=           -894.3031 XXZZ=           -567.7185 YYZZ=           -331.0642
 XXYZ=              1.6796 YYXZ=             10.1080 ZZXY=              1.2414
 N-N= 1.098710847341D+03 E-N=-3.872068397608D+03  KE= 7.149671511001D+02
 Unable to Open any file for archive entry.
 1\1\GINC-N2\SP\RB3LYP TD-FC\6-31+G(d,p)\C11H14N4O1\HPCMGAC13\04-Sep-20
 25\0\\# td=(50-50,nstates=3) b3lyp/6-31+g(d,p) geom=connectivity\\Titl
 e Card Required\\0,1\C,0,-3.357135,-1.958669,-0.119109\C,0,-1.837825,-
 2.131566,0.020345\C,0,-1.36793,-1.947567,1.470518\C,0,-1.028372,-1.253
 88,-0.962834\N,0,-0.986609,0.172927,-0.603214\N,0,-2.056999,0.923987,-
 0.540208\C,0,-1.637456,2.140354,0.047981\O,0,-2.346416,3.108258,0.2842
 35\N,0,-0.255116,2.033415,0.30591\N,0,0.077256,0.822893,-0.092755\C,0,
 1.424488,0.335858,-0.058127\C,0,2.074663,-0.01335,-1.244904\C,0,3.3980
 85,-0.454702,-1.185753\C,0,4.062846,-0.520834,0.041803\C,0,3.406107,-0
 .141003,1.216801\C,0,2.080285,0.290575,1.174188\H,0,-3.874452,-2.68147
 6,0.520768\H,0,-3.672642,-0.952288,0.1666\H,0,-3.683332,-2.130476,-1.1
 5093\H,0,-1.586726,-3.156544,-0.290904\H,0,-0.288195,-2.10437,1.573951
 \H,0,-1.872785,-2.66455,2.125101\H,0,-1.608806,-0.944195,1.839058\H,0,
 0.005934,-1.594719,-1.005476\H,0,-1.455487,-1.302156,-1.968599\H,0,1.5
 61537,0.080171,-2.196635\H,0,3.912686,-0.727623,-2.101659\H,0,5.094557
 ,-0.856193,0.0815\H,0,3.925853,-0.17872,2.168927\H,0,1.55693,0.603232,
 2.070835\\Version=ES64L-G16RevC.02\State=1-A\HF=-721.7864558\RMSD=2.30
 1e-09\PG=C01 [X(C11H14N4O1)]\\@
 The archive entry for this job was punched.


 IF YOU WANT TO LEARN FROM THE THEORETICAL PHYSICISTS ABOUT THE
 METHODS WHICH THEY USE, I ADVISE YOU TO FOLLOW THIS PRINCIPLE VERY STRICTLY:
 DON'T LISTEN TO THEIR WORDS; PAY ATTENTION, INSTEAD, TO THEIR ACTIONS.
 -- A.EINSTEIN, 1934
 Job cpu time:       0 days  0 hours 41 minutes 37.8 seconds.
 Elapsed time:       0 days  0 hours  5 minutes 17.4 seconds.
 File lengths (MBytes):  RWF=    821 Int=      0 D2E=      0 Chk=     37 Scr=      2
 Normal termination of Gaussian 16 at Thu Sep  4 15:46:45 2025.
