 Entering Gaussian System, Link 0=g16
 Input=M929e.gjf
 Output=M929e.log
 Initial command:
 /hpc/softwares/Gaussian/g16/l1.exe "/hpc/home/hpcmgac13/pbs.13206.admin1.x8z/Gau-3807239.inp" -scrdir="/hpc/home/hpcmgac13/pbs.13206.admin1.x8z/"
 Default linda workers: n1
 Default is to use   6 SMP processors on each worker.
 Entering Link 1 = /hpc/softwares/Gaussian/g16/l1.exe PID=   3807240.
  
 Copyright (c) 1988-2021, Gaussian, Inc.  All Rights Reserved.
  
 This is part of the Gaussian(R) 16 program.  It is based on
 the Gaussian(R) 09 system (copyright 2009, Gaussian, Inc.),
 the Gaussian(R) 03 system (copyright 2003, Gaussian, Inc.),
 the Gaussian(R) 98 system (copyright 1998, Gaussian, Inc.),
 the Gaussian(R) 94 system (copyright 1995, Gaussian, Inc.),
 the Gaussian 92(TM) system (copyright 1992, Gaussian, Inc.),
 the Gaussian 90(TM) system (copyright 1990, Gaussian, Inc.),
 the Gaussian 88(TM) system (copyright 1988, Gaussian, Inc.),
 the Gaussian 86(TM) system (copyright 1986, Carnegie Mellon
 University), and the Gaussian 82(TM) system (copyright 1983,
 Carnegie Mellon University). Gaussian is a federally registered
 trademark of Gaussian, Inc.
  
 This software contains proprietary and confidential information,
 including trade secrets, belonging to Gaussian, Inc.
  
 This software is provided under written license and may be
 used, copied, transmitted, or stored only in accord with that
 written license.
  
 The following legend is applicable only to US Government
 contracts under FAR:
  
                    RESTRICTED RIGHTS LEGEND
  
 Use, reproduction and disclosure by the US Government is
 subject to restrictions as set forth in subparagraphs (a)
 and (c) of the Commercial Computer Software - Restricted
 Rights clause in FAR 52.227-19.
  
 Gaussian, Inc.
 340 Quinnipiac St., Bldg. 40, Wallingford CT 06492
  
  
 ---------------------------------------------------------------
 Warning -- This program may not be used in any manner that
 competes with the business of Gaussian, Inc. or will provide
 assistance to any competitor of Gaussian, Inc.  The licensee
 of this program is prohibited from giving any competitor of
 Gaussian, Inc. access to this program.  By using this program,
 the user acknowledges that Gaussian, Inc. is engaged in the
 business of creating and licensing software in the field of
 computational chemistry and represents and warrants to the
 licensee that it is not a competitor of Gaussian, Inc. and that
 it will not use this program in any manner prohibited above.
 ---------------------------------------------------------------
  

 Cite this work as:
 Gaussian 16, Revision C.02,
 M. J. Frisch, G. W. Trucks, H. B. Schlegel, G. E. Scuseria, 
 M. A. Robb, J. R. Cheeseman, G. Scalmani, V. Barone, 
 G. A. Petersson, H. Nakatsuji, X. Li, M. Caricato, A. V. Marenich, 
 J. Bloino, B. G. Janesko, R. Gomperts, B. Mennucci, H. P. Hratchian, 
 J. V. Ortiz, A. F. Izmaylov, J. L. Sonnenberg, D. Williams-Young, 
 F. Ding, F. Lipparini, F. Egidi, J. Goings, B. Peng, A. Petrone, 
 T. Henderson, D. Ranasinghe, V. G. Zakrzewski, J. Gao, N. Rega, 
 G. Zheng, W. Liang, M. Hada, M. Ehara, K. Toyota, R. Fukuda, 
 J. Hasegawa, M. Ishida, T. Nakajima, Y. Honda, O. Kitao, H. Nakai, 
 T. Vreven, K. Throssell, J. A. Montgomery, Jr., J. E. Peralta, 
 F. Ogliaro, M. J. Bearpark, J. J. Heyd, E. N. Brothers, K. N. Kudin, 
 V. N. Staroverov, T. A. Keith, R. Kobayashi, J. Normand, 
 K. Raghavachari, A. P. Rendell, J. C. Burant, S. S. Iyengar, 
 J. Tomasi, M. Cossi, J. M. Millam, M. Klene, C. Adamo, R. Cammi, 
 J. W. Ochterski, R. L. Martin, K. Morokuma, O. Farkas, 
 J. B. Foresman, and D. J. Fox, Gaussian, Inc., Wallingford CT, 2019.
 
 ******************************************
 Gaussian 16:  ES64L-G16RevC.02  7-Dec-2021
                12-Aug-2025 
 ******************************************
 SetLPE:    new flags="-opt 'Tsnet.Node.lindarsharg: ssh'  -nodelist 'n1' -env GAUSS_MDEF=1342177280 -env GAUSS_EXEDIR="/hpc/softwares/Gaussian/g16/bsd:/hpc/softwares/Gaussian/g16""
 Will use up to    1 processors via Linda.
 ----------------------------------------------------------
 # td=(50-50,nstates=3) b3lyp/6-31+g(d,p) geom=connectivity
 ----------------------------------------------------------
 1/38=1,57=2,172=1/1;
 2/12=2,17=6,18=5,40=1/2;
 3/5=1,6=6,7=111,11=9,25=1,30=1,74=-5/1,2,3,8;
 4//1;
 5/5=2,38=5/2;
 8/6=1,10=2,108=3/1;
 9/41=3,42=1,48=2,70=2/14;
 6/7=2,8=2,9=2,10=2/1;
 99/5=1,9=1/99;
 -------------------
 Title Card Required
 -------------------
 Symbolic Z-matrix:
 Charge =  0 Multiplicity = 1
 C                     0.34647  -1.42416  -1.52884 
 C                     0.40205  -0.25148  -0.52554 
 C                     1.03854   0.94045  -1.2219 
 C                     0.68883   2.21226  -0.98097 
 C                    -0.37724   2.51965  -0.0312 
 O                    -0.48644   3.85636   0.2512 
 C                    -1.16287   1.55205   0.47349 
 C                    -1.03264   0.09505   0.05377 
 C                    -2.15965  -0.13253  -0.95531 
 C                    -3.22424  -0.86109  -0.76129 
 C                    -4.30479  -1.59329  -0.56073 
 C                    -5.48042  -1.07251   0.07017 
 N                    -6.4463   -0.67266   0.58337 
 C                    -1.10805  -0.81491   1.2979 
 C                     0.29734  -0.69413   1.87145 
 N                     1.16499  -0.71598   0.6888 
 C                     2.5279   -0.24805   0.9336 
 C                     3.59647  -0.90168   0.04648 
 C                     5.01903  -0.46289   0.41967 
 C                     6.09897  -1.1091   -0.45582 
 H                    -0.16669  -1.14922  -2.45721 
 H                     1.36568  -1.73087  -1.77943 
 H                    -0.16035  -2.2871   -1.08929 
 H                     1.82393   0.72996  -1.94325 
 H                     1.1743    3.0465   -1.47896 
 H                    -1.22753   4.00692   0.85443 
 H                    -1.98463   1.79068   1.14651 
 H                    -2.08216   0.42909  -1.88722 
 H                    -4.34197  -2.63635  -0.87251 
 H                    -1.31506  -1.84863   1.00202 
 H                    -1.88742  -0.50059   1.99775 
 H                     0.39699   0.24276   2.44837 
 H                     0.54856  -1.52654   2.54014 
 H                     2.75586  -0.50632   1.97492 
 H                     2.60903   0.85176   0.86599 
 H                     3.41699  -0.66127  -1.0093 
 H                     3.50432  -1.99203   0.13562 
 H                     5.09505   0.6307    0.3449 
 H                     5.20892  -0.70971   1.47364 
 H                     7.1014   -0.77916  -0.16251 
 H                     6.07149  -2.20228  -0.37655 
 H                     5.95984  -0.85068  -1.51238 
 
                          Input orientation:                          
 ---------------------------------------------------------------------
 Center     Atomic      Atomic             Coordinates (Angstroms)
 Number     Number       Type             X           Y           Z
 ---------------------------------------------------------------------
      1          6           0        0.346466   -1.424155   -1.528841
      2          6           0        0.402046   -0.251482   -0.525536
      3          6           0        1.038544    0.940454   -1.221901
      4          6           0        0.688829    2.212262   -0.980970
      5          6           0       -0.377238    2.519652   -0.031202
      6          8           0       -0.486441    3.856358    0.251203
      7          6           0       -1.162873    1.552048    0.473486
      8          6           0       -1.032643    0.095047    0.053767
      9          6           0       -2.159651   -0.132533   -0.955308
     10          6           0       -3.224235   -0.861088   -0.761294
     11          6           0       -4.304791   -1.593289   -0.560732
     12          6           0       -5.480418   -1.072507    0.070166
     13          7           0       -6.446300   -0.672659    0.583371
     14          6           0       -1.108050   -0.814907    1.297896
     15          6           0        0.297338   -0.694126    1.871453
     16          7           0        1.164985   -0.715981    0.688803
     17          6           0        2.527896   -0.248045    0.933598
     18          6           0        3.596474   -0.901683    0.046483
     19          6           0        5.019034   -0.462885    0.419666
     20          6           0        6.098969   -1.109101   -0.455820
     21          1           0       -0.166689   -1.149218   -2.457205
     22          1           0        1.365676   -1.730871   -1.779427
     23          1           0       -0.160350   -2.287095   -1.089291
     24          1           0        1.823925    0.729964   -1.943249
     25          1           0        1.174300    3.046496   -1.478959
     26          1           0       -1.227534    4.006922    0.854428
     27          1           0       -1.984634    1.790681    1.146514
     28          1           0       -2.082164    0.429090   -1.887217
     29          1           0       -4.341968   -2.636348   -0.872513
     30          1           0       -1.315056   -1.848631    1.002020
     31          1           0       -1.887423   -0.500593    1.997753
     32          1           0        0.396991    0.242764    2.448371
     33          1           0        0.548560   -1.526536    2.540136
     34          1           0        2.755864   -0.506320    1.974919
     35          1           0        2.609031    0.851760    0.865993
     36          1           0        3.416993   -0.661271   -1.009305
     37          1           0        3.504316   -1.992028    0.135615
     38          1           0        5.095050    0.630695    0.344900
     39          1           0        5.208925   -0.709713    1.473642
     40          1           0        7.101402   -0.779158   -0.162505
     41          1           0        6.071489   -2.202277   -0.376550
     42          1           0        5.959842   -0.850679   -1.512383
 ---------------------------------------------------------------------
                    Distance matrix (angstroms):
                    1          2          3          4          5
     1  C    0.000000
     2  C    1.544303   0.000000
     3  C    2.482853   1.520120   0.000000
     4  C    3.693359   2.521844   1.340837   0.000000
     5  C    4.280220   2.920759   2.432297   1.460495   0.000000
     6  O    5.634368   4.274001   3.605289   2.366973   1.370570
     7  C    3.891684   2.588385   2.845105   2.445429   1.344689
     8  C    2.591248   1.585562   2.575239   2.918346   2.513063
     9  C    2.877125   2.600220   3.383907   3.689520   3.326417
    10  C    3.695413   3.684714   4.650699   4.980543   4.479713
    11  C    4.753949   4.894487   5.950481   6.292460   5.711599
    12  C    6.052525   5.969282   6.943941   7.067829   6.241500
    13  N    7.153171   6.950317   7.866640   7.853661   6.884916
    14  C    3.236857   2.433668   3.746803   4.193537   3.663314
    15  C    3.478125   2.439765   3.576322   4.091048   3.795197
    16  N    2.467677   1.507466   2.531907   3.404332   3.655979
    17  C    3.493634   2.578434   2.876956   3.619509   4.126838
    18  C    3.649270   3.309734   3.397834   4.382546   5.244231
    19  C    5.153020   4.717486   4.528620   5.279097   6.182116
    20  C    5.860198   5.761536   5.513208   6.369996   7.435685
    21  H    1.095800   2.204707   2.710220   3.769712   4.403456
    22  H    1.093461   2.165506   2.748423   4.079700   4.915383
    23  H    1.093038   2.185825   3.445578   4.580071   4.926602
    24  H    2.644777   2.234924   1.086956   2.100388   3.421115
    25  H    4.546924   3.518814   2.126011   1.086104   2.186512
    26  H    6.136289   4.763805   4.341599   3.203426   1.928553
    27  H    4.788186   3.558430   3.933431   3.442575   2.121824
    28  H    3.075905   2.913529   3.231556   3.417512   3.274449
    29  H    4.886880   5.321057   6.470355   6.987825   6.558294
    30  H    3.057138   2.798705   4.273670   4.943547   4.585733
    31  H    4.275522   3.416242   4.583020   4.782201   3.939441
    32  H    4.312701   3.014702   3.790680   3.965409   3.454263
    33  H    4.075279   3.323488   4.525378   5.137750   4.882675
    34  H    4.350167   3.443498   3.906661   4.516703   4.795556
    35  H    4.004275   2.832716   2.614115   2.991557   3.536188
    36  H    3.206251   3.080887   2.875368   3.962433   5.046895
    37  H    3.614541   3.618107   4.064767   5.181678   5.953952
    38  H    5.502941   4.853883   4.359594   4.865601   5.801340
    39  H    5.759239   5.226162   5.232693   5.915600   6.625600
    40  H    6.921853   6.729904   6.390433   7.123171   8.174928
    41  H    5.891446   5.997531   5.993489   6.987597   8.000122
    42  H    5.642618   5.676443   5.245161   6.119443   7.328821
                    6          7          8          9         10
     6  O    0.000000
     7  C    2.411807   0.000000
     8  C    3.805887   1.521833   0.000000
     9  C    4.490718   2.423393   1.529762   0.000000
    10  C    5.547519   3.405454   2.526182   1.304520   0.000000
    11  C    6.703558   4.564472   3.732967   2.625095   1.320585
    12  C    7.018995   5.068743   4.598495   3.600367   2.413791
    13  N    7.492813   5.733759   5.493408   4.586352   3.496474
    14  C    4.827285   2.507017   1.543230   2.578454   2.953072
    15  C    4.893508   3.021891   2.386551   3.787184   4.400081
    16  N    4.881084   3.257183   2.427057   3.754560   4.624834
    17  C    5.137900   4.132047   3.683647   5.055137   6.027893
    18  C    6.273042   5.371640   4.735214   5.893060   6.868495
    19  C    6.999607   6.502217   6.088347   7.316639   8.336949
    20  C    8.277880   7.789716   7.250486   8.331145   9.331504
    21  H    5.700308   4.108305   2.933096   2.694669   3.508236
    22  H    6.226630   4.716644   3.527961   3.957498   4.781255
    23  H    6.296449   4.264545   2.782459   2.942328   3.395360
    24  H    4.464051   3.929045   3.542764   4.193901   5.423318
    25  H    2.531284   3.392314   3.991353   4.636342   5.927172
    26  H    0.967351   2.485096   3.997725   4.612925   5.504080
    27  H    2.704290   1.088671   2.230596   2.854302   3.494026
    28  H    4.343425   2.771110   2.231703   1.090816   2.058297
    29  H    7.634334   5.427801   4.389777   3.322417   2.100772
    30  H    5.813538   3.444869   2.181015   2.736689   2.780195
    31  H    4.898593   2.657385   2.205565   2.988335   3.086967
    32  H    4.320424   2.836824   2.792813   4.273441   4.963236
    33  H    5.940201   4.083837   3.363297   4.636354   5.057296
    34  H    5.702341   4.674150   4.290134   5.734826   6.585917
    35  H    4.357467   3.856388   3.807114   5.198682   6.293560
    36  H    6.102020   5.298360   4.636960   5.601914   6.648860
    37  H    7.081181   5.870033   4.994655   6.060392   6.881633
    38  H    6.447226   6.326692   6.157946   7.409706   8.524059
    39  H    7.401389   6.834887   6.451423   7.780029   8.725597
    40  H    8.901378   8.610299   8.183746   9.317390  10.343309
    41  H    8.950284   8.194725   7.478741   8.507083   9.399856
    42  H    8.174411   7.774950   7.227868   8.170204   9.214744
                   11         12         13         14         15
    11  C    0.000000
    12  C    1.432252   0.000000
    13  N    2.596650   1.164554   0.000000
    14  C    3.778826   4.548767   5.387735   0.000000
    15  C    5.282387   6.063850   6.865586   1.522718   0.000000
    16  N    5.678860   6.683652   7.612138   2.355307   1.466953
    17  C    7.122381   8.096811   8.991059   3.697857   2.460477
    18  C    7.954685   9.078530  10.059722   4.868892   3.775963
    19  C    9.443130  10.522941  11.468421   6.199707   4.945257
    20  C   10.415549  11.591385  12.595800   7.423152   6.264769
    21  H    4.573587   5.884658   6.993263   3.885706   4.377181
    22  H    5.801581   7.122039   8.229799   4.053175   3.942729
    23  H    4.235225   5.578771   6.702042   2.960428   3.393086
    24  H    6.698509   7.788207   8.760581   4.635529   4.348615
    25  H    7.238175   7.978173   8.726905   5.275460   5.097703
    26  H    6.544811   6.671034   7.014804   4.843653   5.045734
    27  H    4.443993   4.645092   5.127537   2.753254   3.450681
    28  H    3.284760   4.199318   5.134524   3.555471   4.588163
    29  H    1.089294   2.151816   3.225506   4.299599   5.729288
    30  H    3.383180   4.338313   5.280894   1.094979   2.165320
    31  H    3.685580   4.117316   4.776342   1.093625   2.196950
    32  H    5.876440   6.475317   7.151703   2.169656   1.104775
    33  H    5.759762   6.531116   7.313419   2.189505   1.096885
    34  H    7.580493   8.472602   9.308270   3.934897   2.467859
    35  H    7.470927   8.353163   9.187097   4.096463   2.957133
    36  H    7.790752   8.972084   9.991061   5.081613   4.246421
    37  H    7.850226   9.031902  10.047685   4.900044   3.870709
    38  H    9.701716  10.715265  11.617158   6.440219   5.206107
    39  H    9.768837  10.787188  11.689235   6.320295   4.927696
    40  H   11.442143  12.587390  13.568637   8.338414   7.102077
    41  H   10.395767  11.615614  12.647380   7.501623   6.377214
    42  H   10.335366  11.551330  12.583173   7.606185   6.598394
                   16         17         18         19         20
    16  N    0.000000
    17  C    1.461648   0.000000
    18  C    2.521745   1.534951   0.000000
    19  C    3.871716   2.552656   1.534759   0.000000
    20  C    5.080246   3.927399   2.560822   1.533079   0.000000
    21  H    3.443605   4.423850   4.526712   5.969855   6.577661
    22  H    2.676273   3.303034   2.999660   4.448688   4.954048
    23  H    2.717817   3.934015   4.162100   5.694797   6.400627
    24  H    3.074517   3.119026   3.124618   4.149094   4.885755
    25  H    4.342293   4.301936   4.876681   5.540985   6.524428
    26  H    5.296923   5.675761   6.929519   7.693361   9.031505
    27  H    4.051290   4.956275   6.293462   7.393121   8.736180
    28  H    4.300121   5.446849   6.144679   7.519597   8.446648
    29  H    6.037553   7.494068   8.177559   9.696496  10.560269
    30  H    2.744377   4.163513   5.092434   6.510002   7.592099
    31  H    3.328203   4.548763   5.834505   7.084556   8.376918
    32  H    2.145946   2.660110   4.161192   5.096751   6.540215
    33  H    2.112916   2.851890   3.987296   5.060917   6.321158
    34  H    2.056441   1.096825   2.140515   2.746386   4.177103
    35  H    2.138803   1.104864   2.172833   2.781297   4.215665
    36  H    2.821011   2.176263   1.097588   2.155887   2.774868
    37  H    2.721540   2.152127   1.097857   2.171021   2.803851
    38  H    4.168599   2.776514   2.164016   1.098765   2.162382
    39  H    4.119401   2.773572   2.161859   1.099021   2.162062
    40  H    5.997480   4.732915   3.513290   2.185225   1.095339
    41  H    5.236204   4.253535   2.827755   2.183370   1.096391
    42  H    5.277690   4.257258   2.831638   2.183648   1.096569
                   21         22         23         24         25
    21  H    0.000000
    22  H    1.773653   0.000000
    23  H    1.779324   1.764774   0.000000
    24  H    2.785322   2.508493   3.710692   0.000000
    25  H    4.512121   4.790631   5.511835   2.450285   0.000000
    26  H    6.219171   6.825262   6.673198   5.279853   3.483665
    27  H    4.993468   5.673362   4.995507   5.017657   4.295235
    28  H    2.546564   4.069969   3.421654   3.918060   4.197862
    29  H    4.706990   5.849751   4.201773   7.106108   7.943029
    30  H    3.711356   3.864795   2.428822   5.017665   6.026145
    31  H    4.819574   5.134523   3.962854   5.551565   5.834682
    32  H    5.130305   4.765277   4.384731   4.643256   4.887642
    33  H    5.062348   4.400915   3.775413   5.178715   6.120237
    34  H    5.347743   4.186557   4.589646   4.212950   5.201261
    35  H    4.769924   3.900533   4.620067   2.919429   3.517687
    36  H    3.895803   2.438244   3.930278   2.312067   4.358645
    37  H    4.572671   2.882598   3.875208   3.815053   5.781224
    38  H    6.221397   4.898774   6.179776   3.993212   4.953265
    39  H    6.673975   5.137683   6.155150   5.020562   6.253412
    40  H    7.630710   6.034795   7.474346   5.770638   7.176296
    41  H    6.659799   4.933048   6.273038   5.393921   7.262739
    42  H    6.206142   4.685340   6.300718   4.448583   6.171750
                   26         27         28         29         30
    26  H    0.000000
    27  H    2.360135   0.000000
    28  H    4.587798   3.326705   0.000000
    29  H    7.537577   5.406670   3.941224   0.000000
    30  H    5.858067   3.703216   3.758212   3.646446   0.000000
    31  H    4.696843   2.446220   3.999403   4.338740   1.770959
    32  H    4.398707   3.124583   4.997825   6.463381   3.065448
    33  H    6.051056   4.400362   5.508778   6.065898   2.437747
    34  H    6.123097   5.332428   6.260799   7.938772   4.395534
    35  H    4.967334   4.697023   5.455834   7.969046   4.765404
    36  H    6.843768   6.311672   5.674535   8.007566   5.277077
    37  H    7.674275   6.742357   6.415795   7.936979   4.898731
    38  H    7.185652   7.218731   7.519002  10.060466   6.904225
    39  H    8.003629   7.622747   8.108775  10.021772   6.639419
    40  H    9.659808   9.532767   9.421910  11.614817   8.563682
    41  H    9.661532   9.119460   8.699900  10.434294   7.522404
    42  H    8.992022   8.784146   8.151820  10.474986   7.761589
                   31         32         33         34         35
    31  H    0.000000
    32  H    2.444214   0.000000
    33  H    2.698287   1.778150   0.000000
    34  H    4.643347   2.519834   2.496498   0.000000
    35  H    4.829890   2.787098   3.564350   1.759448   0.000000
    36  H    6.099594   4.679019   4.644903   3.060506   2.541418
    37  H    5.895997   4.471980   3.838606   2.480030   3.069547
    38  H    7.264067   5.162058   5.490289   3.069455   2.549647
    39  H    7.118748   5.001202   4.850115   2.512002   3.093038
    40  H    9.248961   7.267058   7.127593   4.850435   4.888670
    41  H    8.478050   6.793992   6.282231   4.404435   4.781179
    42  H    8.603673   6.915815   6.794238   4.748193   4.447798
                   36         37         38         39         40
    36  H    0.000000
    37  H    1.757664   0.000000
    38  H    2.513747   3.074559   0.000000
    39  H    3.062416   2.518003   1.756052   0.000000
    40  H    3.782306   3.807750   2.504115   2.502652   0.000000
    41  H    3.133916   2.626194   3.082151   2.528829   1.769690
    42  H    2.599047   3.169887   2.528208   3.082222   1.769306
                   41         42
    41  H    0.000000
    42  H    1.769011   0.000000
 Stoichiometry    C17H22N2O
 Framework group  C1[X(C17H22N2O)]
 Deg. of freedom   120
 Full point group                 C1      NOp   1
 Largest Abelian subgroup         C1      NOp   1
 Largest concise Abelian subgroup C1      NOp   1
                         Standard orientation:                         
 ---------------------------------------------------------------------
 Center     Atomic      Atomic             Coordinates (Angstroms)
 Number     Number       Type             X           Y           Z
 ---------------------------------------------------------------------
      1          6           0        0.346466   -1.424155   -1.528841
      2          6           0        0.402046   -0.251482   -0.525536
      3          6           0        1.038544    0.940454   -1.221901
      4          6           0        0.688829    2.212262   -0.980970
      5          6           0       -0.377238    2.519652   -0.031202
      6          8           0       -0.486441    3.856358    0.251203
      7          6           0       -1.162873    1.552048    0.473486
      8          6           0       -1.032643    0.095047    0.053767
      9          6           0       -2.159651   -0.132533   -0.955308
     10          6           0       -3.224235   -0.861088   -0.761294
     11          6           0       -4.304791   -1.593289   -0.560732
     12          6           0       -5.480418   -1.072507    0.070166
     13          7           0       -6.446300   -0.672658    0.583371
     14          6           0       -1.108050   -0.814907    1.297896
     15          6           0        0.297338   -0.694126    1.871453
     16          7           0        1.164985   -0.715981    0.688803
     17          6           0        2.527896   -0.248045    0.933598
     18          6           0        3.596474   -0.901683    0.046483
     19          6           0        5.019034   -0.462885    0.419666
     20          6           0        6.098969   -1.109101   -0.455820
     21          1           0       -0.166689   -1.149218   -2.457205
     22          1           0        1.365676   -1.730871   -1.779427
     23          1           0       -0.160350   -2.287095   -1.089291
     24          1           0        1.823925    0.729964   -1.943249
     25          1           0        1.174300    3.046496   -1.478959
     26          1           0       -1.227534    4.006922    0.854428
     27          1           0       -1.984634    1.790681    1.146514
     28          1           0       -2.082164    0.429090   -1.887217
     29          1           0       -4.341968   -2.636348   -0.872513
     30          1           0       -1.315056   -1.848631    1.002020
     31          1           0       -1.887423   -0.500593    1.997753
     32          1           0        0.396991    0.242764    2.448371
     33          1           0        0.548560   -1.526536    2.540136
     34          1           0        2.755864   -0.506320    1.974919
     35          1           0        2.609031    0.851760    0.865993
     36          1           0        3.416993   -0.661271   -1.009305
     37          1           0        3.504316   -1.992028    0.135615
     38          1           0        5.095050    0.630695    0.344900
     39          1           0        5.208925   -0.709713    1.473642
     40          1           0        7.101402   -0.779158   -0.162505
     41          1           0        6.071489   -2.202277   -0.376550
     42          1           0        5.959842   -0.850679   -1.512383
 ---------------------------------------------------------------------
 Rotational constants (GHZ):           0.6043269           0.1744677           0.1540322
 Standard basis: 6-31+G(d,p) (6D, 7F)
 There are   490 symmetry adapted cartesian basis functions of A   symmetry.
 There are   490 symmetry adapted basis functions of A   symmetry.
   490 basis functions,   794 primitive gaussians,   490 cartesian basis functions
    73 alpha electrons       73 beta electrons
       nuclear repulsion energy      1526.5535481790 Hartrees.
 NAtoms=   42 NActive=   42 NUniq=   42 SFac= 1.00D+00 NAtFMM=   60 NAOKFM=F Big=F
 Integral buffers will be    131072 words long.
 Regular integral format.
 Two-electron integral symmetry is turned on.
 One-electron integrals computed using PRISM.
 NBasis=   490 RedAO= T EigKep=  1.16D-06  NBF=   490
 NBsUse=   489 1.00D-06 EigRej=  3.29D-07 NBFU=   489
 ExpMin= 4.38D-02 ExpMax= 5.48D+03 ExpMxC= 8.25D+02 IAcc=3 IRadAn=         5 AccDes= 0.00D+00
 Harris functional with IExCor=  402 and IRadAn=       5 diagonalized for initial guess.
 HarFok:  IExCor=  402 AccDes= 0.00D+00 IRadAn=         5 IDoV= 1 UseB2=F ITyADJ=14
 ICtDFT=  3500011 ScaDFX=  1.000000  1.000000  1.000000  1.000000
 FoFCou: FMM=F IPFlag=           0 FMFlag=      100000 FMFlg1=           0
         NFxFlg=           0 DoJE=T BraDBF=F KetDBF=T FulRan=T
         wScrn=  0.000000 ICntrl=       500 IOpCl=  0 I1Cent=   200000004 NGrid=           0
         NMat0=    1 NMatS0=      1 NMatT0=    0 NMatD0=    1 NMtDS0=    0 NMtDT0=    0
 Petite list used in FoFCou.
 Requested convergence on RMS density matrix=1.00D-08 within 128 cycles.
 Requested convergence on MAX density matrix=1.00D-06.
 Requested convergence on             energy=1.00D-06.
 No special actions if energy rises.
 SCF Done:  E(RB3LYP) =  -845.723118987     A.U. after   17 cycles
            NFock= 17  Conv=0.21D-08     -V/T= 2.0097
 DoSCS=F DFT=T ScalE2(SS,OS)=  1.000000  1.000000
 ExpMin= 4.38D-02 ExpMax= 5.48D+03 ExpMxC= 8.25D+02 IAcc=3 IRadAn=         5 AccDes= 0.00D+00
 HarFok:  IExCor=  205 AccDes= 0.00D+00 IRadAn=         5 IDoV=-2 UseB2=F ITyADJ=14
 ICtDFT= 12500011 ScaDFX=  1.000000  1.000000  1.000000  1.000000
 Range of M.O.s used for correlation:    21   489
 NBasis=   490 NAE=    73 NBE=    73 NFC=    20 NFV=     0
 NROrb=    469 NOA=    53 NOB=    53 NVA=   416 NVB=   416

 **** Warning!!: The largest alpha MO coefficient is  0.13680103D+03

 Orbital symmetries:
       Occupied  (A) (A) (A) (A) (A) (A) (A) (A) (A) (A) (A) (A)
                 (A) (A) (A) (A) (A) (A) (A) (A) (A) (A) (A) (A)
                 (A) (A) (A) (A) (A) (A) (A) (A) (A) (A) (A) (A)
                 (A) (A) (A) (A) (A) (A) (A) (A) (A) (A) (A) (A)
                 (A) (A) (A) (A) (A) (A) (A) (A) (A) (A) (A) (A)
                 (A) (A) (A) (A) (A) (A) (A) (A) (A) (A) (A) (A)
                 (A)
       Virtual   (A) (A) (A) (A) (A) (A) (A) (A) (A) (A) (A) (A)
                 (A) (A) (A) (A) (A) (A) (A) (A) (A) (A) (A) (A)
                 (A) (A) (A) (A) (A) (A) (A) (A) (A) (A) (A) (A)
                 (A) (A) (A) (A) (A) (A) (A) (A) (A) (A) (A) (A)
                 (A) (A) (A) (A) (A) (A) (A) (A) (A) (A) (A) (A)
                 (A) (A) (A) (A) (A) (A) (A) (A) (A) (A) (A) (A)
                 (A) (A) (A) (A) (A) (A) (A) (A) (A) (A) (A) (A)
                 (A) (A) (A) (A) (A) (A) (A) (A) (A) (A) (A) (A)
                 (A) (A) (A) (A) (A) (A) (A) (A) (A) (A) (A) (A)
                 (A) (A) (A) (A) (A) (A) (A) (A) (A) (A) (A) (A)
                 (A) (A) (A) (A) (A) (A) (A) (A) (A) (A) (A) (A)
                 (A) (A) (A) (A) (A) (A) (A) (A) (A) (A) (A) (A)
                 (A) (A) (A) (A) (A) (A) (A) (A) (A) (A) (A) (A)
                 (A) (A) (A) (A) (A) (A) (A) (A) (A) (A) (A) (A)
                 (A) (A) (A) (A) (A) (A) (A) (A) (A) (A) (A) (A)
                 (A) (A) (A) (A) (A) (A) (A) (A) (A) (A) (A) (A)
                 (A) (A) (A) (A) (A) (A) (A) (A) (A) (A) (A) (A)
                 (A) (A) (A) (A) (A) (A) (A) (A) (A) (A) (A) (A)
                 (A) (A) (A) (A) (A) (A) (A) (A) (A) (A) (A) (A)
                 (A) (A) (A) (A) (A) (A) (A) (A) (A) (A) (A) (A)
                 (A) (A) (A) (A) (A) (A) (A) (A) (A) (A) (A) (A)
                 (A) (A) (A) (A) (A) (A) (A) (A) (A) (A) (A) (A)
                 (A) (A) (A) (A) (A) (A) (A) (A) (A) (A) (A) (A)
                 (A) (A) (A) (A) (A) (A) (A) (A) (A) (A) (A) (A)
                 (A) (A) (A) (A) (A) (A) (A) (A) (A) (A) (A) (A)
                 (A) (A) (A) (A) (A) (A) (A) (A) (A) (A) (A) (A)
                 (A) (A) (A) (A) (A) (A) (A) (A) (A) (A) (A) (A)
                 (A) (A) (A) (A) (A) (A) (A) (A) (A) (A) (A) (A)
                 (A) (A) (A) (A) (A) (A) (A) (A) (A) (A) (A) (A)
                 (A) (A) (A) (A) (A) (A) (A) (A) (A) (A) (A) (A)
                 (A) (A) (A) (A) (A) (A) (A) (A) (A) (A) (A) (A)
                 (A) (A) (A) (A) (A) (A) (A) (A) (A) (A) (A) (A)
                 (A) (A) (A) (A) (A) (A) (A) (A) (A) (A) (A) (A)
                 (A) (A) (A) (A) (A) (A) (A) (A) (A) (A) (A) (A)
                 (A) (A) (A) (A) (A) (A) (A) (A)
    24 initial guesses have been made.
 Convergence on wavefunction:    0.001000000000000
 Iteration     1 Dimension    24 NMult     0 NNew     24
 CISAX will form    24 AO SS matrices at one time.
 New state      1 was old state      6
 New state      3 was old state      1
 New state      5 was old state      3
 New state      6 was old state      8
 New state      8 was old state     10
 New state     10 was old state     12
 New state     11 was old state     24
 New state     12 was old state      5
 Vector   6 SDiff=5.96D+00 TDiff=5.76D+00 assumed to be triplet.
 Vector  12 SDiff=6.06D+00 TDiff=5.59D+00 assumed to be triplet.
 Iteration     2 Dimension    36 NMult    24 NNew     12
 New state      6 was old state      7
 Iteration     3 Dimension    48 NMult    36 NNew     12
 Iteration     4 Dimension    60 NMult    48 NNew     12
 Iteration     5 Dimension    72 NMult    60 NNew     12
 Iteration     6 Dimension    78 NMult    72 NNew      6
 Iteration     7 Dimension    82 NMult    78 NNew      4
 Iteration     8 Dimension    84 NMult    82 NNew      2
 ***********************************************************************
 Excited states from <AA,BB:AA,BB> singles matrix:
 ***********************************************************************
 
 Ground to excited state transition densities written to RWF  633
 Ground to excited state transition electric dipole moments (Au):
       state          X           Y           Z        Dip. S.      Osc.
         1         0.0000     -0.0000     -0.0000      0.0000      0.0000
         2        -0.0000     -0.0000      0.0000      0.0000      0.0000
         3         0.3069     -0.0685      0.0906      0.1071      0.0088
         4         0.0000      0.0000      0.0000      0.0000      0.0000
         5         0.3106      0.1448      0.0174      0.1177      0.0108
         6        -0.7957     -0.3539      0.0837      0.7654      0.0767
 Ground to excited state transition velocity dipole moments (Au):
       state          X           Y           Z        Dip. S.      Osc.
         1        -0.0000      0.0000      0.0000      0.0000      0.0000
         2         0.0000      0.0000     -0.0000      0.0000      0.0000
         3        -0.0407      0.0111     -0.0111      0.0019      0.0102
         4        -0.0000     -0.0000      0.0000      0.0000      0.0000
         5        -0.0426     -0.0195     -0.0030      0.0022      0.0107
         6         0.1167      0.0526     -0.0131      0.0166      0.0735
 Ground to excited state transition magnetic dipole moments (Au):
       state          X           Y           Z
         1        -0.0000      0.0000     -0.0000
         2         0.0000     -0.0000      0.0000
         3         0.5305      0.0712      0.3072
         4        -0.0000      0.0000     -0.0000
         5        -0.1712      0.1063     -0.1337
         6        -0.4940     -0.4262     -0.4266
 Ground to excited state transition velocity quadrupole moments (Au):
       state          XX          YY          ZZ          XY          XZ          YZ
         1         0.0000     -0.0000      0.0000     -0.0000     -0.0000     -0.0000
         2        -0.0000      0.0000      0.0000     -0.0000      0.0000     -0.0000
         3         0.0338      0.0290     -0.0085      0.0713     -0.0008      0.0301
         4         0.0000     -0.0000     -0.0000      0.0000     -0.0000     -0.0000
         5         0.3398     -0.0659      0.0179      0.0943      0.0111      0.0064
         6        -0.8760      0.2276      0.0170     -0.2216     -0.0597     -0.0520
 <0|del|b> * <b|rxdel|0> + <0|del|b> * <b|delr+rdel|0>
 Rotatory Strengths (R) in cgs (10**-40 erg-esu-cm/Gauss)
       state          XX          YY          ZZ    R(velocity)    E-M Angle
         1        -0.0000     -0.0000      0.0000     -0.0000       90.00
         2        -0.0000      0.0000      0.0000      0.0000       90.00
         3        -9.7142    -72.6113    -55.9224    -46.0826      154.10
         4        -0.0000      0.0000     -0.0000     -0.0000       90.00
         5        -4.4599     19.7916     13.5532      9.6283       60.29
         6       -25.4528   -143.7218   -181.5815   -116.9187      137.96
 1/2[<0|r|b>*<b|rxdel|0> + (<0|rxdel|b>*<b|r|0>)*]
 Rotatory Strengths (R) in cgs (10**-40 erg-esu-cm/Gauss)
       state          XX          YY          ZZ     R(length)
         1         0.0000      0.0000     -0.0000      0.0000
         2         0.0000     -0.0000     -0.0000     -0.0000
         3      -115.1219      3.4473    -19.6837    -43.7861
         4         0.0000     -0.0000      0.0000     -0.0000
         5        37.6147    -10.8806      1.6494      9.4612
         6      -277.9517   -106.6439     25.2663   -119.7765
  1/2[<0|del|b>*<b|r|0> + (<0|r|b>*<b|del|0>)*] (Au)
       state          X           Y           Z        Dip. S.   Osc.(frdel)
         1        -0.0000     -0.0000     -0.0000      0.0000      0.0000
         2        -0.0000     -0.0000     -0.0000      0.0000      0.0000
         3        -0.0125     -0.0008     -0.0010      0.0143      0.0095
         4        -0.0000     -0.0000      0.0000      0.0000      0.0000
         5        -0.0132     -0.0028     -0.0001      0.0161      0.0107
         6        -0.0929     -0.0186     -0.0011      0.1126      0.0751

 Excitation energies and oscillator strengths:
 
 Excited State   1:      Triplet-A      2.4919 eV  497.55 nm  f=0.0000  <S**2>=2.000
      72 -> 74         0.48345
      72 -> 75        -0.32894
      73 -> 74        -0.29020
      73 -> 75         0.19160
 This state for optimization and/or second-order correction.
 Total Energy, E(TD-HF/TD-DFT) =  -845.631543574    
 Copying the excited state density for this state as the 1-particle RhoCI density.
 
 Excited State   2:      Triplet-A      3.3292 eV  372.42 nm  f=0.0000  <S**2>=2.000
      72 -> 74         0.28216
      72 -> 75        -0.19669
      73 -> 74         0.56389
      73 -> 75        -0.21747
 
 Excited State   3:      Singlet-A      3.3708 eV  367.81 nm  f=0.0088  <S**2>=0.000
      73 -> 74         0.63682
      73 -> 75        -0.29382
 
 Excited State   4:      Triplet-A      3.5206 eV  352.17 nm  f=0.0000  <S**2>=2.000
      70 -> 75         0.13525
      71 -> 74         0.37806
      71 -> 75         0.38714
      72 -> 74        -0.19923
      72 -> 75        -0.18436
      73 -> 75         0.29183
 
 Excited State   5:      Singlet-A      3.7458 eV  330.99 nm  f=0.0108  <S**2>=0.000
      73 -> 74         0.29613
      73 -> 75         0.64052
 
 Excited State   6:      Singlet-A      4.0877 eV  303.31 nm  f=0.0767  <S**2>=0.000
      72 -> 74         0.60107
      72 -> 75         0.35177
 SavETr:  write IOETrn=   770 NScale= 10 NData=  16 NLR=1 NState=    6 LETran=     118.

 **********************************************************************

            Population analysis using the SCF Density.

 **********************************************************************

 Orbital symmetries:
       Occupied  (A) (A) (A) (A) (A) (A) (A) (A) (A) (A) (A) (A)
                 (A) (A) (A) (A) (A) (A) (A) (A) (A) (A) (A) (A)
                 (A) (A) (A) (A) (A) (A) (A) (A) (A) (A) (A) (A)
                 (A) (A) (A) (A) (A) (A) (A) (A) (A) (A) (A) (A)
                 (A) (A) (A) (A) (A) (A) (A) (A) (A) (A) (A) (A)
                 (A) (A) (A) (A) (A) (A) (A) (A) (A) (A) (A) (A)
                 (A)
       Virtual   (A) (A) (A) (A) (A) (A) (A) (A) (A) (A) (A) (A)
                 (A) (A) (A) (A) (A) (A) (A) (A) (A) (A) (A) (A)
                 (A) (A) (A) (A) (A) (A) (A) (A) (A) (A) (A) (A)
                 (A) (A) (A) (A) (A) (A) (A) (A) (A) (A) (A) (A)
                 (A) (A) (A) (A) (A) (A) (A) (A) (A) (A) (A) (A)
                 (A) (A) (A) (A) (A) (A) (A) (A) (A) (A) (A) (A)
                 (A) (A) (A) (A) (A) (A) (A) (A) (A) (A) (A) (A)
                 (A) (A) (A) (A) (A) (A) (A) (A) (A) (A) (A) (A)
                 (A) (A) (A) (A) (A) (A) (A) (A) (A) (A) (A) (A)
                 (A) (A) (A) (A) (A) (A) (A) (A) (A) (A) (A) (A)
                 (A) (A) (A) (A) (A) (A) (A) (A) (A) (A) (A) (A)
                 (A) (A) (A) (A) (A) (A) (A) (A) (A) (A) (A) (A)
                 (A) (A) (A) (A) (A) (A) (A) (A) (A) (A) (A) (A)
                 (A) (A) (A) (A) (A) (A) (A) (A) (A) (A) (A) (A)
                 (A) (A) (A) (A) (A) (A) (A) (A) (A) (A) (A) (A)
                 (A) (A) (A) (A) (A) (A) (A) (A) (A) (A) (A) (A)
                 (A) (A) (A) (A) (A) (A) (A) (A) (A) (A) (A) (A)
                 (A) (A) (A) (A) (A) (A) (A) (A) (A) (A) (A) (A)
                 (A) (A) (A) (A) (A) (A) (A) (A) (A) (A) (A) (A)
                 (A) (A) (A) (A) (A) (A) (A) (A) (A) (A) (A) (A)
                 (A) (A) (A) (A) (A) (A) (A) (A) (A) (A) (A) (A)
                 (A) (A) (A) (A) (A) (A) (A) (A) (A) (A) (A) (A)
                 (A) (A) (A) (A) (A) (A) (A) (A) (A) (A) (A) (A)
                 (A) (A) (A) (A) (A) (A) (A) (A) (A) (A) (A) (A)
                 (A) (A) (A) (A) (A) (A) (A) (A) (A) (A) (A) (A)
                 (A) (A) (A) (A) (A) (A) (A) (A) (A) (A) (A) (A)
                 (A) (A) (A) (A) (A) (A) (A) (A) (A) (A) (A) (A)
                 (A) (A) (A) (A) (A) (A) (A) (A) (A) (A) (A) (A)
                 (A) (A) (A) (A) (A) (A) (A) (A) (A) (A) (A) (A)
                 (A) (A) (A) (A) (A) (A) (A) (A) (A) (A) (A) (A)
                 (A) (A) (A) (A) (A) (A) (A) (A) (A) (A) (A) (A)
                 (A) (A) (A) (A) (A) (A) (A) (A) (A) (A) (A) (A)
                 (A) (A) (A) (A) (A) (A) (A) (A) (A) (A) (A) (A)
                 (A) (A) (A) (A) (A) (A) (A) (A) (A) (A) (A) (A)
                 (A) (A) (A) (A) (A) (A) (A) (A)
 The electronic state is 1-A.
 Alpha  occ. eigenvalues --  -19.20318 -14.34555 -14.33280 -10.26813 -10.25143
 Alpha  occ. eigenvalues --  -10.24806 -10.24364 -10.24148 -10.23751 -10.23126
 Alpha  occ. eigenvalues --  -10.21703 -10.21369 -10.21177 -10.21021 -10.19940
 Alpha  occ. eigenvalues --  -10.19826 -10.18957 -10.18586 -10.18473 -10.18191
 Alpha  occ. eigenvalues --   -1.07906  -0.94218  -0.91259  -0.86102  -0.83361
 Alpha  occ. eigenvalues --   -0.81152  -0.79438  -0.77732  -0.75451  -0.73417
 Alpha  occ. eigenvalues --   -0.70949  -0.68519  -0.64491  -0.63669  -0.61701
 Alpha  occ. eigenvalues --   -0.58970  -0.58348  -0.57993  -0.55353  -0.52288
 Alpha  occ. eigenvalues --   -0.51050  -0.50845  -0.49567  -0.48541  -0.47868
 Alpha  occ. eigenvalues --   -0.45575  -0.45281  -0.44793  -0.43644  -0.42372
 Alpha  occ. eigenvalues --   -0.42031  -0.41568  -0.40896  -0.40074  -0.39358
 Alpha  occ. eigenvalues --   -0.38884  -0.38415  -0.37954  -0.37436  -0.37109
 Alpha  occ. eigenvalues --   -0.36092  -0.35092  -0.34820  -0.34073  -0.33978
 Alpha  occ. eigenvalues --   -0.33526  -0.33103  -0.32860  -0.30406  -0.29267
 Alpha  occ. eigenvalues --   -0.28391  -0.23069  -0.21229
 Alpha virt. eigenvalues --   -0.05892  -0.05189  -0.01798  -0.01170  -0.00138
 Alpha virt. eigenvalues --    0.00301   0.00683   0.01610   0.01836   0.02169
 Alpha virt. eigenvalues --    0.02573   0.03034   0.03275   0.03511   0.04133
 Alpha virt. eigenvalues --    0.04708   0.05073   0.05351   0.05785   0.06287
 Alpha virt. eigenvalues --    0.06375   0.06800   0.07132   0.07799   0.07857
 Alpha virt. eigenvalues --    0.08079   0.08338   0.08935   0.09295   0.09679
 Alpha virt. eigenvalues --    0.10019   0.10247   0.10673   0.11037   0.11418
 Alpha virt. eigenvalues --    0.11628   0.12292   0.12390   0.12649   0.12735
 Alpha virt. eigenvalues --    0.13252   0.13738   0.14052   0.14635   0.14689
 Alpha virt. eigenvalues --    0.15359   0.15500   0.15694   0.15881   0.16716
 Alpha virt. eigenvalues --    0.17042   0.17290   0.17442   0.18000   0.18119
 Alpha virt. eigenvalues --    0.18412   0.18615   0.18908   0.19179   0.19341
 Alpha virt. eigenvalues --    0.19641   0.19710   0.20069   0.20536   0.20818
 Alpha virt. eigenvalues --    0.21168   0.21644   0.21822   0.22189   0.22578
 Alpha virt. eigenvalues --    0.22599   0.23538   0.23694   0.23905   0.24480
 Alpha virt. eigenvalues --    0.24872   0.25071   0.25200   0.25450   0.25666
 Alpha virt. eigenvalues --    0.25853   0.26357   0.26614   0.26911   0.27272
 Alpha virt. eigenvalues --    0.27484   0.27772   0.28030   0.28566   0.28822
 Alpha virt. eigenvalues --    0.29289   0.29754   0.30327   0.30743   0.31383
 Alpha virt. eigenvalues --    0.31693   0.31776   0.32051   0.32336   0.32727
 Alpha virt. eigenvalues --    0.32930   0.33738   0.34042   0.34227   0.35006
 Alpha virt. eigenvalues --    0.35486   0.35747   0.36556   0.36948   0.37303
 Alpha virt. eigenvalues --    0.37820   0.38310   0.38918   0.39685   0.40304
 Alpha virt. eigenvalues --    0.41455   0.42187   0.42601   0.43318   0.44110
 Alpha virt. eigenvalues --    0.45951   0.46813   0.47064   0.48612   0.50996
 Alpha virt. eigenvalues --    0.52556   0.55213   0.62207   0.64586   0.64875
 Alpha virt. eigenvalues --    0.65578   0.66226   0.67392   0.68251   0.69504
 Alpha virt. eigenvalues --    0.69819   0.70978   0.71161   0.71725   0.72248
 Alpha virt. eigenvalues --    0.72821   0.73537   0.74505   0.74819   0.76084
 Alpha virt. eigenvalues --    0.76236   0.77434   0.77698   0.78236   0.78679
 Alpha virt. eigenvalues --    0.79502   0.80197   0.81019   0.81913   0.82628
 Alpha virt. eigenvalues --    0.83391   0.84164   0.84485   0.85328   0.86113
 Alpha virt. eigenvalues --    0.86945   0.87778   0.88127   0.88828   0.89988
 Alpha virt. eigenvalues --    0.91122   0.91636   0.92255   0.92446   0.93288
 Alpha virt. eigenvalues --    0.93588   0.94900   0.95870   0.96936   0.97480
 Alpha virt. eigenvalues --    0.98494   0.99365   0.99752   1.00020   1.00837
 Alpha virt. eigenvalues --    1.00856   1.01506   1.02397   1.02932   1.04142
 Alpha virt. eigenvalues --    1.04326   1.05377   1.06368   1.06745   1.07693
 Alpha virt. eigenvalues --    1.09443   1.09776   1.10463   1.10591   1.11198
 Alpha virt. eigenvalues --    1.11974   1.13264   1.14659   1.15504   1.16083
 Alpha virt. eigenvalues --    1.16348   1.16686   1.18305   1.19143   1.20282
 Alpha virt. eigenvalues --    1.21288   1.22346   1.23089   1.25191   1.26088
 Alpha virt. eigenvalues --    1.26642   1.27564   1.28790   1.29743   1.30957
 Alpha virt. eigenvalues --    1.32854   1.34226   1.35632   1.36549   1.36616
 Alpha virt. eigenvalues --    1.38151   1.38908   1.39508   1.42524   1.43580
 Alpha virt. eigenvalues --    1.45398   1.48779   1.49726   1.50790   1.51932
 Alpha virt. eigenvalues --    1.52626   1.54534   1.55112   1.55965   1.58462
 Alpha virt. eigenvalues --    1.58786   1.58998   1.61534   1.62423   1.63719
 Alpha virt. eigenvalues --    1.65691   1.66485   1.67611   1.69288   1.69991
 Alpha virt. eigenvalues --    1.70680   1.71747   1.74889   1.76574   1.77037
 Alpha virt. eigenvalues --    1.79162   1.80327   1.81244   1.82730   1.83696
 Alpha virt. eigenvalues --    1.84476   1.85655   1.87112   1.87889   1.88320
 Alpha virt. eigenvalues --    1.89552   1.91230   1.91699   1.92207   1.93020
 Alpha virt. eigenvalues --    1.93419   1.94927   1.95530   1.96253   1.97034
 Alpha virt. eigenvalues --    1.97823   1.98658   1.99415   1.99795   2.01532
 Alpha virt. eigenvalues --    2.03091   2.04469   2.04849   2.06278   2.07756
 Alpha virt. eigenvalues --    2.08119   2.09515   2.10369   2.10635   2.11283
 Alpha virt. eigenvalues --    2.12091   2.12686   2.13271   2.13763   2.14451
 Alpha virt. eigenvalues --    2.15218   2.16471   2.17646   2.19984   2.20740
 Alpha virt. eigenvalues --    2.22951   2.23972   2.25558   2.26822   2.27412
 Alpha virt. eigenvalues --    2.28779   2.29600   2.30370   2.31267   2.31639
 Alpha virt. eigenvalues --    2.33858   2.34431   2.37083   2.38189   2.40179
 Alpha virt. eigenvalues --    2.41402   2.42310   2.43100   2.43723   2.44329
 Alpha virt. eigenvalues --    2.45008   2.46853   2.47060   2.48154   2.50284
 Alpha virt. eigenvalues --    2.50871   2.52097   2.53105   2.54208   2.55704
 Alpha virt. eigenvalues --    2.56113   2.57855   2.58566   2.59193   2.60636
 Alpha virt. eigenvalues --    2.62110   2.63343   2.64909   2.65529   2.66059
 Alpha virt. eigenvalues --    2.68416   2.70085   2.71238   2.72127   2.73081
 Alpha virt. eigenvalues --    2.73655   2.74991   2.76430   2.76757   2.77272
 Alpha virt. eigenvalues --    2.78676   2.80079   2.80833   2.81962   2.82792
 Alpha virt. eigenvalues --    2.84293   2.86322   2.87064   2.88016   2.88598
 Alpha virt. eigenvalues --    2.89575   2.90227   2.91649   2.92484   2.93109
 Alpha virt. eigenvalues --    2.94424   2.95498   2.96468   2.97649   2.99183
 Alpha virt. eigenvalues --    3.00410   3.03450   3.04589   3.07915   3.09803
 Alpha virt. eigenvalues --    3.18110   3.23864   3.24494   3.29022   3.30449
 Alpha virt. eigenvalues --    3.31430   3.31859   3.33497   3.34282   3.35528
 Alpha virt. eigenvalues --    3.36619   3.36927   3.42100   3.44079   3.46652
 Alpha virt. eigenvalues --    3.46742   3.49125   3.49772   3.50114   3.51268
 Alpha virt. eigenvalues --    3.52286   3.53338   3.54676   3.56167   3.60693
 Alpha virt. eigenvalues --    3.71166   4.19919   4.31128   4.34346   4.35457
 Alpha virt. eigenvalues --    4.39207   4.41113   4.47192   4.48960   4.49315
 Alpha virt. eigenvalues --    4.53820   4.57857   4.61644   4.63434   4.66669
 Alpha virt. eigenvalues --    4.71867   4.75825   4.80202   4.83838   4.87058
 Alpha virt. eigenvalues --    4.99666
          Condensed to atoms (all electrons):
               1          2          3          4          5          6
     1  C    8.809768  -4.236748  -0.027068   0.174835  -0.359268   0.002433
     2  C   -4.236748  38.221303 -10.582393   4.831786  -4.982073  -0.050841
     3  C   -0.027068 -10.582393  14.983695  -5.192167   3.052114   0.174933
     4  C    0.174835   4.831786  -5.192167  11.309484  -2.438102  -0.401091
     5  C   -0.359268  -4.982073   3.052114  -2.438102  10.819279   0.258784
     6  O    0.002433  -0.050841   0.174933  -0.401091   0.258784   8.303568
     7  C    0.628371   3.322758  -1.952774   0.881431  -4.729605   0.018975
     8  C    0.382054 -21.313763   7.328763  -4.967358   5.292546  -0.064248
     9  C   -0.413651   6.035787  -2.175699   1.336371  -1.413186   0.046169
    10  C   -0.293423   1.632629  -0.368172   0.279485  -0.381989   0.013134
    11  C   -0.146799   0.309514   0.005183  -0.051719   0.150811   0.001755
    12  C   -0.016170  -0.101287   0.006501  -0.009249   0.051361  -0.000454
    13  N    0.000474   0.003234  -0.000064   0.000286  -0.002105   0.000014
    14  C    0.035191  -0.620002  -0.110171  -0.013287   0.349395  -0.008008
    15  C    0.338363  -2.331089   0.700030  -0.275404   0.234648   0.008095
    16  N    0.308080  -2.039410   0.646999  -0.310227   0.177266  -0.000356
    17  C   -0.674196  -1.081457   0.042207  -0.221990   0.196766   0.003292
    18  C    0.377955   0.360487  -0.371305   0.237170  -0.213140  -0.001602
    19  C   -0.156940   0.002994   0.015387   0.005740   0.000010   0.000315
    20  C    0.027746  -0.028078  -0.014305  -0.004545  -0.005279  -0.000002
    21  H    0.460981  -0.126127   0.051406   0.010885  -0.005107   0.000027
    22  H    0.446745  -0.094245  -0.001177   0.012019   0.001237   0.000004
    23  H    0.510539  -0.260039  -0.002397  -0.017471   0.008202  -0.000004
    24  H    0.018750  -0.056715   0.248372   0.046420   0.001371  -0.000501
    25  H   -0.010373  -0.002549   0.024753   0.241134   0.014016  -0.007610
    26  H    0.000692   0.013966  -0.040416   0.132492  -0.015515   0.208537
    27  H    0.000146   0.096353  -0.047149   0.039285  -0.152938  -0.010313
    28  H   -0.028351   0.127433   0.000768   0.007363  -0.018026  -0.000358
    29  H    0.002607  -0.000063  -0.000137  -0.000040  -0.000475   0.000000
    30  H    0.004167   0.001957  -0.012955   0.005317  -0.011412   0.000024
    31  H    0.007703   0.040353  -0.008315   0.001887  -0.008939   0.000083
    32  H   -0.017253  -0.117045   0.040054  -0.007700   0.009205   0.000402
    33  H    0.005820   0.022403   0.002390  -0.001185  -0.001752  -0.000014
    34  H    0.016586  -0.027182  -0.031438   0.000862  -0.006558   0.000015
    35  H   -0.043767  -0.076645   0.088154  -0.008922   0.004494   0.000339
    36  H   -0.018899   0.035516  -0.060198   0.012033  -0.007485   0.000011
    37  H   -0.031086   0.030322   0.000922  -0.004827   0.000323  -0.000000
    38  H   -0.002674  -0.002212   0.008486  -0.007868   0.000915  -0.000001
    39  H    0.000065  -0.000087  -0.003547   0.001336  -0.000482   0.000000
    40  H    0.000106  -0.000231  -0.000245   0.000079  -0.000013   0.000000
    41  H   -0.000817   0.002657  -0.000794  -0.000310   0.000009  -0.000000
    42  H    0.001033  -0.003545   0.000669   0.000177  -0.000043  -0.000000
               7          8          9         10         11         12
     1  C    0.628371   0.382054  -0.413651  -0.293423  -0.146799  -0.016170
     2  C    3.322758 -21.313763   6.035787   1.632629   0.309514  -0.101287
     3  C   -1.952774   7.328763  -2.175699  -0.368172   0.005183   0.006501
     4  C    0.881431  -4.967358   1.336371   0.279485  -0.051719  -0.009249
     5  C   -4.729605   5.292546  -1.413186  -0.381989   0.150811   0.051361
     6  O    0.018975  -0.064248   0.046169   0.013134   0.001755  -0.000454
     7  C   14.788511  -6.900600   1.014555   0.466136  -0.410047  -0.038032
     8  C   -6.900600  34.988752  -8.430374  -2.756989  -1.262647   0.127255
     9  C    1.014555  -8.430374  10.240404   0.702535   0.888911   0.021745
    10  C    0.466136  -2.756989   0.702535   8.837400  -1.217455  -0.839569
    11  C   -0.410047  -1.262647   0.888911  -1.217455   7.361127   0.395081
    12  C   -0.038032   0.127255   0.021745  -0.839569   0.395081   6.069497
    13  N    0.005750  -0.002897   0.000353   0.058893  -0.071030   0.333309
    14  C   -1.023337   1.003844  -1.217120  -0.374936  -0.195127   0.043947
    15  C    0.087674   1.257577  -0.294769  -0.066059  -0.001722  -0.001453
    16  N    0.177367   0.332899  -0.200510  -0.067884   0.022300   0.000199
    17  C   -0.619100   1.614242  -0.310462  -0.014460   0.003746   0.003010
    18  C    0.354362  -0.946522   0.166605   0.014253   0.008843  -0.000196
    19  C   -0.028585   0.098827  -0.015499   0.000784  -0.000293  -0.000005
    20  C    0.006193  -0.013827   0.000241  -0.000175   0.000024   0.000001
    21  H    0.002855  -0.067506   0.003463   0.006055  -0.003087  -0.000711
    22  H   -0.008061   0.025091  -0.014567   0.002802  -0.003416  -0.000064
    23  H   -0.000148   0.156277  -0.039349  -0.035998   0.011682   0.000938
    24  H   -0.033328   0.035963  -0.001568   0.000791   0.000289   0.000005
    25  H    0.017514   0.017475   0.009935   0.001414  -0.000176  -0.000001
    26  H   -0.077843  -0.005926  -0.001480  -0.000260  -0.000584   0.000001
    27  H    0.393185  -0.084241   0.042256  -0.000059   0.002698  -0.000183
    28  H    0.028320  -0.081672   0.315958   0.014307  -0.064547  -0.007487
    29  H   -0.006189  -0.000252  -0.003674  -0.041988   0.354342  -0.001703
    30  H    0.046368  -0.108018  -0.005711  -0.013700  -0.002772  -0.002018
    31  H   -0.002495  -0.101165  -0.002870   0.019537  -0.018477  -0.008434
    32  H   -0.035524   0.113404  -0.031596   0.001993  -0.001803  -0.000269
    33  H   -0.007173   0.006826  -0.001807  -0.003781   0.000494  -0.000112
    34  H    0.002925   0.020637   0.001335  -0.000054  -0.000020   0.000002
    35  H   -0.026814   0.060685  -0.009796   0.000296  -0.000087  -0.000007
    36  H    0.003271   0.014828  -0.000923  -0.000368  -0.000060   0.000000
    37  H   -0.000920   0.016756  -0.000627   0.000108  -0.000020  -0.000001
    38  H   -0.001016   0.003907  -0.000072   0.000003  -0.000000  -0.000000
    39  H    0.000328  -0.001276  -0.000014  -0.000007  -0.000001   0.000000
    40  H    0.000010  -0.000068  -0.000002  -0.000000   0.000000   0.000000
    41  H   -0.000012   0.000272  -0.000002   0.000000  -0.000000   0.000000
    42  H    0.000010  -0.000254  -0.000009  -0.000000  -0.000000  -0.000000
              13         14         15         16         17         18
     1  C    0.000474   0.035191   0.338363   0.308080  -0.674196   0.377955
     2  C    0.003234  -0.620002  -2.331089  -2.039410  -1.081457   0.360487
     3  C   -0.000064  -0.110171   0.700030   0.646999   0.042207  -0.371305
     4  C    0.000286  -0.013287  -0.275404  -0.310227  -0.221990   0.237170
     5  C   -0.002105   0.349395   0.234648   0.177266   0.196766  -0.213140
     6  O    0.000014  -0.008008   0.008095  -0.000356   0.003292  -0.001602
     7  C    0.005750  -1.023337   0.087674   0.177367  -0.619100   0.354362
     8  C   -0.002897   1.003844   1.257577   0.332899   1.614242  -0.946522
     9  C    0.000353  -1.217120  -0.294769  -0.200510  -0.310462   0.166605
    10  C    0.058893  -0.374936  -0.066059  -0.067884  -0.014460   0.014253
    11  C   -0.071030  -0.195127  -0.001722   0.022300   0.003746   0.008843
    12  C    0.333309   0.043947  -0.001453   0.000199   0.003010  -0.000196
    13  N    7.166680  -0.003080  -0.000549   0.000024  -0.000073   0.000002
    14  C   -0.003080   8.325973  -0.784990  -0.034077   0.295385  -0.128191
    15  C   -0.000549  -0.784990   6.647178   0.122852  -0.294515  -0.115957
    16  N    0.000024  -0.034077   0.122852   7.785420  -0.063770   0.313250
    17  C   -0.000073   0.295385  -0.294515  -0.063770   8.205773  -2.170757
    18  C    0.000002  -0.128191  -0.115957   0.313250  -2.170757   8.444609
    19  C   -0.000000   0.006580  -0.052156  -0.041520   0.765871  -1.121325
    20  C   -0.000000   0.002270  -0.015962  -0.002456  -0.287235   0.479029
    21  H    0.000002   0.004062   0.006182   0.004192  -0.005970  -0.000577
    22  H    0.000000   0.019204  -0.007930  -0.012536   0.007400  -0.019419
    23  H   -0.000004   0.000430  -0.002580   0.016662   0.000192   0.005622
    24  H   -0.000000   0.001103  -0.000448   0.007059   0.044461  -0.019779
    25  H   -0.000000  -0.002348  -0.000536  -0.001023   0.008272  -0.003959
    26  H   -0.000001   0.005778  -0.002313  -0.000227   0.000666  -0.000032
    27  H    0.000025   0.013674   0.003136  -0.004238  -0.001478  -0.000377
    28  H    0.000194   0.002606  -0.001133  -0.000178   0.000728   0.000621
    29  H    0.001582   0.009269   0.002145   0.000009   0.000026  -0.000001
    30  H    0.000024   0.431657  -0.047833   0.022092   0.009909   0.002959
    31  H    0.000318   0.450054  -0.034634  -0.002123  -0.008477  -0.001267
    32  H    0.000003  -0.047185   0.469757  -0.101640   0.057713  -0.037589
    33  H    0.000001  -0.088738   0.460004  -0.047805  -0.038493   0.016527
    34  H    0.000000  -0.019555  -0.004300  -0.095278   0.518067  -0.091681
    35  H    0.000000   0.004249  -0.018167  -0.102055   0.560754  -0.182279
    36  H   -0.000000   0.002158  -0.000788  -0.017194   0.096029   0.190066
    37  H    0.000000  -0.006263  -0.004884  -0.005319  -0.032306   0.363763
    38  H    0.000000  -0.000219  -0.000370  -0.001226  -0.000656  -0.088725
    39  H   -0.000000   0.000406  -0.001956  -0.005434   0.027206  -0.143924
    40  H   -0.000000   0.000022  -0.000046  -0.000102  -0.010959   0.017679
    41  H   -0.000000   0.000047   0.000026  -0.000666  -0.000173   0.016740
    42  H    0.000000   0.000002  -0.000319  -0.000171  -0.010702   0.010903
              19         20         21         22         23         24
     1  C   -0.156940   0.027746   0.460981   0.446745   0.510539   0.018750
     2  C    0.002994  -0.028078  -0.126127  -0.094245  -0.260039  -0.056715
     3  C    0.015387  -0.014305   0.051406  -0.001177  -0.002397   0.248372
     4  C    0.005740  -0.004545   0.010885   0.012019  -0.017471   0.046420
     5  C    0.000010  -0.005279  -0.005107   0.001237   0.008202   0.001371
     6  O    0.000315  -0.000002   0.000027   0.000004  -0.000004  -0.000501
     7  C   -0.028585   0.006193   0.002855  -0.008061  -0.000148  -0.033328
     8  C    0.098827  -0.013827  -0.067506   0.025091   0.156277   0.035963
     9  C   -0.015499   0.000241   0.003463  -0.014567  -0.039349  -0.001568
    10  C    0.000784  -0.000175   0.006055   0.002802  -0.035998   0.000791
    11  C   -0.000293   0.000024  -0.003087  -0.003416   0.011682   0.000289
    12  C   -0.000005   0.000001  -0.000711  -0.000064   0.000938   0.000005
    13  N   -0.000000  -0.000000   0.000002   0.000000  -0.000004  -0.000000
    14  C    0.006580   0.002270   0.004062   0.019204   0.000430   0.001103
    15  C   -0.052156  -0.015962   0.006182  -0.007930  -0.002580  -0.000448
    16  N   -0.041520  -0.002456   0.004192  -0.012536   0.016662   0.007059
    17  C    0.765871  -0.287235  -0.005970   0.007400   0.000192   0.044461
    18  C   -1.121325   0.479029  -0.000577  -0.019419   0.005622  -0.019779
    19  C    6.762531  -0.587232   0.000587  -0.002223   0.000299  -0.001396
    20  C   -0.587232   5.717216  -0.000208  -0.000090   0.000003   0.000781
    21  H    0.000587  -0.000208   0.571886  -0.029357  -0.029080  -0.000577
    22  H   -0.002223  -0.000090  -0.029357   0.546191  -0.024201   0.001820
    23  H    0.000299   0.000003  -0.029080  -0.024201   0.545100   0.000269
    24  H   -0.001396   0.000781  -0.000577   0.001820   0.000269   0.584869
    25  H   -0.000000  -0.000061  -0.000012  -0.000005   0.000002  -0.006641
    26  H    0.000003   0.000000  -0.000000  -0.000000   0.000000   0.000006
    27  H    0.000012  -0.000003  -0.000004   0.000002  -0.000002   0.000013
    28  H    0.000050   0.000000   0.000153   0.000056   0.000269  -0.000108
    29  H    0.000000  -0.000000   0.000003  -0.000000   0.000016   0.000000
    30  H    0.000202   0.000028   0.000121  -0.000040   0.000677   0.000004
    31  H   -0.000096  -0.000005  -0.000001   0.000004  -0.000018   0.000002
    32  H    0.003764  -0.000415   0.000015  -0.000004  -0.000010   0.000003
    33  H   -0.000912   0.000310  -0.000006   0.000003  -0.000061   0.000002
    34  H    0.026375   0.002709   0.000003  -0.000042   0.000008   0.000028
    35  H    0.044887  -0.007020   0.000030   0.000009  -0.000014  -0.000485
    36  H    0.061120  -0.004595   0.000059  -0.000147   0.000047   0.000783
    37  H    0.005953  -0.011860   0.000011   0.000010  -0.000033   0.000024
    38  H    0.406623  -0.000054   0.000000  -0.000000  -0.000000  -0.000018
    39  H    0.433228   0.008115   0.000000  -0.000000   0.000000  -0.000002
    40  H   -0.096844   0.453745   0.000000  -0.000000  -0.000000   0.000000
    41  H   -0.131233   0.470342  -0.000000  -0.000001  -0.000000  -0.000000
    42  H   -0.127508   0.484767  -0.000000   0.000001  -0.000000  -0.000004
              25         26         27         28         29         30
     1  C   -0.010373   0.000692   0.000146  -0.028351   0.002607   0.004167
     2  C   -0.002549   0.013966   0.096353   0.127433  -0.000063   0.001957
     3  C    0.024753  -0.040416  -0.047149   0.000768  -0.000137  -0.012955
     4  C    0.241134   0.132492   0.039285   0.007363  -0.000040   0.005317
     5  C    0.014016  -0.015515  -0.152938  -0.018026  -0.000475  -0.011412
     6  O   -0.007610   0.208537  -0.010313  -0.000358   0.000000   0.000024
     7  C    0.017514  -0.077843   0.393185   0.028320  -0.006189   0.046368
     8  C    0.017475  -0.005926  -0.084241  -0.081672  -0.000252  -0.108018
     9  C    0.009935  -0.001480   0.042256   0.315958  -0.003674  -0.005711
    10  C    0.001414  -0.000260  -0.000059   0.014307  -0.041988  -0.013700
    11  C   -0.000176  -0.000584   0.002698  -0.064547   0.354342  -0.002772
    12  C   -0.000001   0.000001  -0.000183  -0.007487  -0.001703  -0.002018
    13  N   -0.000000  -0.000001   0.000025   0.000194   0.001582   0.000024
    14  C   -0.002348   0.005778   0.013674   0.002606   0.009269   0.431657
    15  C   -0.000536  -0.002313   0.003136  -0.001133   0.002145  -0.047833
    16  N   -0.001023  -0.000227  -0.004238  -0.000178   0.000009   0.022092
    17  C    0.008272   0.000666  -0.001478   0.000728   0.000026   0.009909
    18  C   -0.003959  -0.000032  -0.000377   0.000621  -0.000001   0.002959
    19  C   -0.000000   0.000003   0.000012   0.000050   0.000000   0.000202
    20  C   -0.000061   0.000000  -0.000003   0.000000  -0.000000   0.000028
    21  H   -0.000012  -0.000000  -0.000004   0.000153   0.000003   0.000121
    22  H   -0.000005  -0.000000   0.000002   0.000056  -0.000000  -0.000040
    23  H    0.000002   0.000000  -0.000002   0.000269   0.000016   0.000677
    24  H   -0.006641   0.000006   0.000013  -0.000108   0.000000   0.000004
    25  H    0.560346  -0.000023  -0.000141   0.000003   0.000000   0.000000
    26  H   -0.000023   0.422193   0.006764  -0.000003  -0.000000   0.000000
    27  H   -0.000141   0.006764   0.587571  -0.000386   0.000000   0.000193
    28  H    0.000003  -0.000003  -0.000386   0.536257  -0.000012   0.000175
    29  H    0.000000  -0.000000   0.000000  -0.000012   0.501750  -0.000032
    30  H    0.000000   0.000000   0.000193   0.000175  -0.000032   0.551848
    31  H   -0.000000   0.000002   0.002586  -0.000104  -0.000006  -0.029052
    32  H    0.000003   0.000001   0.000489   0.000004   0.000000   0.004498
    33  H   -0.000000  -0.000000  -0.000011   0.000003   0.000000  -0.006480
    34  H    0.000000  -0.000000  -0.000001   0.000000  -0.000000  -0.000019
    35  H   -0.000010  -0.000001   0.000001   0.000000   0.000000  -0.000001
    36  H    0.000006  -0.000000   0.000000  -0.000000  -0.000000  -0.000001
    37  H   -0.000000   0.000000   0.000000  -0.000000   0.000000   0.000000
    38  H   -0.000002   0.000000  -0.000000  -0.000000  -0.000000  -0.000000
    39  H    0.000000  -0.000000  -0.000000  -0.000000   0.000000  -0.000000
    40  H   -0.000000  -0.000000  -0.000000   0.000000  -0.000000  -0.000000
    41  H    0.000000   0.000000  -0.000000   0.000000   0.000000  -0.000000
    42  H    0.000000  -0.000000   0.000000  -0.000000   0.000000  -0.000000
              31         32         33         34         35         36
     1  C    0.007703  -0.017253   0.005820   0.016586  -0.043767  -0.018899
     2  C    0.040353  -0.117045   0.022403  -0.027182  -0.076645   0.035516
     3  C   -0.008315   0.040054   0.002390  -0.031438   0.088154  -0.060198
     4  C    0.001887  -0.007700  -0.001185   0.000862  -0.008922   0.012033
     5  C   -0.008939   0.009205  -0.001752  -0.006558   0.004494  -0.007485
     6  O    0.000083   0.000402  -0.000014   0.000015   0.000339   0.000011
     7  C   -0.002495  -0.035524  -0.007173   0.002925  -0.026814   0.003271
     8  C   -0.101165   0.113404   0.006826   0.020637   0.060685   0.014828
     9  C   -0.002870  -0.031596  -0.001807   0.001335  -0.009796  -0.000923
    10  C    0.019537   0.001993  -0.003781  -0.000054   0.000296  -0.000368
    11  C   -0.018477  -0.001803   0.000494  -0.000020  -0.000087  -0.000060
    12  C   -0.008434  -0.000269  -0.000112   0.000002  -0.000007   0.000000
    13  N    0.000318   0.000003   0.000001   0.000000   0.000000  -0.000000
    14  C    0.450054  -0.047185  -0.088738  -0.019555   0.004249   0.002158
    15  C   -0.034634   0.469757   0.460004  -0.004300  -0.018167  -0.000788
    16  N   -0.002123  -0.101640  -0.047805  -0.095278  -0.102055  -0.017194
    17  C   -0.008477   0.057713  -0.038493   0.518067   0.560754   0.096029
    18  C   -0.001267  -0.037589   0.016527  -0.091681  -0.182279   0.190066
    19  C   -0.000096   0.003764  -0.000912   0.026375   0.044887   0.061120
    20  C   -0.000005  -0.000415   0.000310   0.002709  -0.007020  -0.004595
    21  H   -0.000001   0.000015  -0.000006   0.000003   0.000030   0.000059
    22  H    0.000004  -0.000004   0.000003  -0.000042   0.000009  -0.000147
    23  H   -0.000018  -0.000010  -0.000061   0.000008  -0.000014   0.000047
    24  H    0.000002   0.000003   0.000002   0.000028  -0.000485   0.000783
    25  H   -0.000000   0.000003  -0.000000   0.000000  -0.000010   0.000006
    26  H    0.000002   0.000001  -0.000000  -0.000000  -0.000001  -0.000000
    27  H    0.002586   0.000489  -0.000011  -0.000001   0.000001   0.000000
    28  H   -0.000104   0.000004   0.000003   0.000000   0.000000  -0.000000
    29  H   -0.000006   0.000000   0.000000  -0.000000   0.000000  -0.000000
    30  H   -0.029052   0.004498  -0.006480  -0.000019  -0.000001  -0.000001
    31  H    0.555685  -0.003654   0.000248  -0.000014   0.000016  -0.000000
    32  H   -0.003654   0.611809  -0.051739  -0.002589   0.005270  -0.000009
    33  H    0.000248  -0.051739   0.600434   0.002074  -0.000843   0.000005
    34  H   -0.000014  -0.002589   0.002074   0.600300  -0.040397   0.005558
    35  H    0.000016   0.005270  -0.000843  -0.040397   0.609289  -0.006788
    36  H   -0.000000  -0.000009   0.000005   0.005558  -0.006788   0.606351
    37  H    0.000000   0.000010  -0.000030  -0.006418   0.005203  -0.035726
    38  H    0.000000  -0.000002   0.000000  -0.000644   0.003153  -0.006015
    39  H   -0.000000   0.000001   0.000001   0.003685  -0.000682   0.005430
    40  H   -0.000000   0.000000  -0.000000   0.000001   0.000006   0.000008
    41  H   -0.000000  -0.000000   0.000000  -0.000002  -0.000004  -0.000541
    42  H    0.000000   0.000000   0.000000   0.000000  -0.000000   0.003414
              37         38         39         40         41         42
     1  C   -0.031086  -0.002674   0.000065   0.000106  -0.000817   0.001033
     2  C    0.030322  -0.002212  -0.000087  -0.000231   0.002657  -0.003545
     3  C    0.000922   0.008486  -0.003547  -0.000245  -0.000794   0.000669
     4  C   -0.004827  -0.007868   0.001336   0.000079  -0.000310   0.000177
     5  C    0.000323   0.000915  -0.000482  -0.000013   0.000009  -0.000043
     6  O   -0.000000  -0.000001   0.000000   0.000000  -0.000000  -0.000000
     7  C   -0.000920  -0.001016   0.000328   0.000010  -0.000012   0.000010
     8  C    0.016756   0.003907  -0.001276  -0.000068   0.000272  -0.000254
     9  C   -0.000627  -0.000072  -0.000014  -0.000002  -0.000002  -0.000009
    10  C    0.000108   0.000003  -0.000007  -0.000000   0.000000  -0.000000
    11  C   -0.000020  -0.000000  -0.000001   0.000000  -0.000000  -0.000000
    12  C   -0.000001  -0.000000   0.000000   0.000000   0.000000  -0.000000
    13  N    0.000000   0.000000  -0.000000  -0.000000  -0.000000   0.000000
    14  C   -0.006263  -0.000219   0.000406   0.000022   0.000047   0.000002
    15  C   -0.004884  -0.000370  -0.001956  -0.000046   0.000026  -0.000319
    16  N   -0.005319  -0.001226  -0.005434  -0.000102  -0.000666  -0.000171
    17  C   -0.032306  -0.000656   0.027206  -0.010959  -0.000173  -0.010702
    18  C    0.363763  -0.088725  -0.143924   0.017679   0.016740   0.010903
    19  C    0.005953   0.406623   0.433228  -0.096844  -0.131233  -0.127508
    20  C   -0.011860  -0.000054   0.008115   0.453745   0.470342   0.484767
    21  H    0.000011   0.000000   0.000000   0.000000  -0.000000  -0.000000
    22  H    0.000010  -0.000000  -0.000000  -0.000000  -0.000001   0.000001
    23  H   -0.000033  -0.000000   0.000000  -0.000000  -0.000000  -0.000000
    24  H    0.000024  -0.000018  -0.000002   0.000000  -0.000000  -0.000004
    25  H   -0.000000  -0.000002   0.000000  -0.000000   0.000000   0.000000
    26  H    0.000000   0.000000  -0.000000  -0.000000   0.000000  -0.000000
    27  H    0.000000  -0.000000  -0.000000  -0.000000  -0.000000   0.000000
    28  H   -0.000000  -0.000000  -0.000000   0.000000   0.000000  -0.000000
    29  H    0.000000  -0.000000   0.000000  -0.000000   0.000000   0.000000
    30  H    0.000000  -0.000000  -0.000000  -0.000000  -0.000000  -0.000000
    31  H    0.000000   0.000000  -0.000000  -0.000000  -0.000000   0.000000
    32  H    0.000010  -0.000002   0.000001   0.000000  -0.000000   0.000000
    33  H   -0.000030   0.000000   0.000001  -0.000000   0.000000   0.000000
    34  H   -0.006418  -0.000644   0.003685   0.000001  -0.000002   0.000000
    35  H    0.005203   0.003153  -0.000682   0.000006  -0.000004  -0.000000
    36  H   -0.035726  -0.006015   0.005430   0.000008  -0.000541   0.003414
    37  H    0.570249   0.005029  -0.005806   0.000000   0.002946  -0.000466
    38  H    0.005029   0.583633  -0.035637  -0.003331   0.004769  -0.005013
    39  H   -0.005806  -0.035637   0.586862  -0.003291  -0.004997   0.004816
    40  H    0.000000  -0.003331  -0.003291   0.556712  -0.028986  -0.029252
    41  H    0.002946   0.004769  -0.004997  -0.028986   0.555131  -0.031458
    42  H   -0.000466  -0.005013   0.004816  -0.029252  -0.031458   0.558684
 Mulliken charges:
               1
     1  C   -0.083725
     2  C   -0.957627
     3  C   -0.418895
     4  C    0.365585
     5  C    0.130742
     6  O   -0.495505
     7  C   -0.345264
     8  C    0.210722
     9  C   -0.241287
    10  C    0.424770
    11  C   -0.064911
    12  C   -0.025444
    13  N   -0.491364
    14  C   -0.330669
    15  C    0.025195
    16  N    0.220755
    17  C   -0.614485
    18  C    0.277158
    19  C   -0.278370
    20  C   -0.670115
    21  H    0.145351
    22  H    0.154927
    23  H    0.154174
    24  H    0.128380
    25  H    0.140598
    26  H    0.353524
    27  H    0.113133
    28  H    0.167099
    29  H    0.182823
    30  H    0.157823
    31  H    0.151670
    32  H    0.137628
    33  H    0.133399
    34  H    0.125022
    35  H    0.137947
    36  H    0.123044
    37  H    0.144964
    38  H    0.139238
    39  H    0.135663
    40  H    0.145002
    41  H    0.147058
    42  H    0.144269
 Sum of Mulliken charges =  -0.00000
 Mulliken charges with hydrogens summed into heavy atoms:
               1
     1  C    0.370726
     2  C   -0.957627
     3  C   -0.290515
     4  C    0.506183
     5  C    0.130742
     6  O   -0.141981
     7  C   -0.232131
     8  C    0.210722
     9  C   -0.074188
    10  C    0.424770
    11  C    0.117912
    12  C   -0.025444
    13  N   -0.491364
    14  C   -0.021176
    15  C    0.296221
    16  N    0.220755
    17  C   -0.351516
    18  C    0.545166
    19  C   -0.003469
    20  C   -0.233786
 Electronic spatial extent (au):  <R**2>=           7222.4634
 Charge=             -0.0000 electrons
 Dipole moment (field-independent basis, Debye):
    X=              4.2551    Y=             -0.3530    Z=             -0.7180  Tot=              4.3297
 Quadrupole moment (field-independent basis, Debye-Ang):
   XX=           -160.2464   YY=           -120.1735   ZZ=           -119.2628
   XY=             -0.9651   XZ=              5.2330   YZ=              3.2116
 Traceless Quadrupole moment (field-independent basis, Debye-Ang):
   XX=            -27.0188   YY=             13.0541   ZZ=             13.9648
   XY=             -0.9651   XZ=              5.2330   YZ=              3.2116
 Octapole moment (field-independent basis, Debye-Ang**2):
  XXX=            339.5120  YYY=              0.1438  ZZZ=              6.4139  XYY=            -32.6883
  XXY=             11.4011  XXZ=            -45.9962  XZZ=              8.1583  YZZ=              9.9626
  YYZ=             11.9780  XYZ=            -21.5555
 Hexadecapole moment (field-independent basis, Debye-Ang**3):
 XXXX=         -10016.1130 YYYY=          -1712.9460 ZZZZ=           -825.3106 XXXY=            -64.1421
 XXXZ=            361.1834 YYYX=            -39.2164 YYYZ=             67.9223 ZZZX=              1.0587
 ZZZY=             -3.8389 XXYY=          -1452.2945 XXZZ=          -1436.4027 YYZZ=           -401.4722
 XXYZ=             46.2679 YYXZ=            -23.4670 ZZXY=            -17.5693
 N-N= 1.526553548179D+03 E-N=-5.012906105311D+03  KE= 8.375699024997D+02
 Unable to Open any file for archive entry.
 1\1\GINC-N1\SP\RB3LYP TD-FC\6-31+G(d,p)\C17H22N2O1\HPCMGAC13\12-Aug-20
 25\0\\# td=(50-50,nstates=3) b3lyp/6-31+g(d,p) geom=connectivity\\Titl
 e Card Required\\0,1\C,0,0.346466,-1.424155,-1.528841\C,0,0.402046,-0.
 251482,-0.525536\C,0,1.038544,0.940454,-1.221901\C,0,0.688829,2.212262
 ,-0.98097\C,0,-0.377238,2.519652,-0.031202\O,0,-0.486441,3.856358,0.25
 1203\C,0,-1.162873,1.552048,0.473486\C,0,-1.032643,0.095047,0.053767\C
 ,0,-2.159651,-0.132533,-0.955308\C,0,-3.224235,-0.861088,-0.761294\C,0
 ,-4.304791,-1.593289,-0.560732\C,0,-5.480418,-1.072507,0.070166\N,0,-6
 .4463,-0.672659,0.583371\C,0,-1.10805,-0.814907,1.297896\C,0,0.297338,
 -0.694126,1.871453\N,0,1.164985,-0.715981,0.688803\C,0,2.527896,-0.248
 045,0.933598\C,0,3.596474,-0.901683,0.046483\C,0,5.019034,-0.462885,0.
 419666\C,0,6.098969,-1.109101,-0.45582\H,0,-0.166689,-1.149218,-2.4572
 05\H,0,1.365676,-1.730871,-1.779427\H,0,-0.16035,-2.287095,-1.089291\H
 ,0,1.823925,0.729964,-1.943249\H,0,1.1743,3.046496,-1.478959\H,0,-1.22
 7534,4.006922,0.854428\H,0,-1.984634,1.790681,1.146514\H,0,-2.082164,0
 .42909,-1.887217\H,0,-4.341968,-2.636348,-0.872513\H,0,-1.315056,-1.84
 8631,1.00202\H,0,-1.887423,-0.500593,1.997753\H,0,0.396991,0.242764,2.
 448371\H,0,0.54856,-1.526536,2.540136\H,0,2.755864,-0.50632,1.974919\H
 ,0,2.609031,0.85176,0.865993\H,0,3.416993,-0.661271,-1.009305\H,0,3.50
 4316,-1.992028,0.135615\H,0,5.09505,0.630695,0.3449\H,0,5.208925,-0.70
 9713,1.473642\H,0,7.101402,-0.779158,-0.162505\H,0,6.071489,-2.202277,
 -0.37655\H,0,5.959842,-0.850679,-1.512383\\Version=ES64L-G16RevC.02\St
 ate=1-A\HF=-845.723119\RMSD=2.071e-09\PG=C01 [X(C17H22N2O1)]\\@
 The archive entry for this job was punched.


 IT TAKES GREATER CHARACTER TO CARRY OFF GOOD FORTUNE THAN BAD.
                     FRENCH PROVERB.
 Job cpu time:       0 days  2 hours  1 minutes 49.2 seconds.
 Elapsed time:       0 days  0 hours 20 minutes 33.4 seconds.
 File lengths (MBytes):  RWF=   1327 Int=      0 D2E=      0 Chk=     62 Scr=      2
 Normal termination of Gaussian 16 at Tue Aug 12 16:32:50 2025.
