 Entering Gaussian System, Link 0=g16
 Input=M937e.gjf
 Output=M937e.log
 Initial command:
 /hpc/softwares/Gaussian/g16/l1.exe "/hpc/home/hpcmgac13/pbs.13208.admin1.x8z/Gau-3809948.inp" -scrdir="/hpc/home/hpcmgac13/pbs.13208.admin1.x8z/"
 Default linda workers: n1
 Default is to use   8 SMP processors on each worker.
 Entering Link 1 = /hpc/softwares/Gaussian/g16/l1.exe PID=   3809949.
  
 Copyright (c) 1988-2021, Gaussian, Inc.  All Rights Reserved.
  
 This is part of the Gaussian(R) 16 program.  It is based on
 the Gaussian(R) 09 system (copyright 2009, Gaussian, Inc.),
 the Gaussian(R) 03 system (copyright 2003, Gaussian, Inc.),
 the Gaussian(R) 98 system (copyright 1998, Gaussian, Inc.),
 the Gaussian(R) 94 system (copyright 1995, Gaussian, Inc.),
 the Gaussian 92(TM) system (copyright 1992, Gaussian, Inc.),
 the Gaussian 90(TM) system (copyright 1990, Gaussian, Inc.),
 the Gaussian 88(TM) system (copyright 1988, Gaussian, Inc.),
 the Gaussian 86(TM) system (copyright 1986, Carnegie Mellon
 University), and the Gaussian 82(TM) system (copyright 1983,
 Carnegie Mellon University). Gaussian is a federally registered
 trademark of Gaussian, Inc.
  
 This software contains proprietary and confidential information,
 including trade secrets, belonging to Gaussian, Inc.
  
 This software is provided under written license and may be
 used, copied, transmitted, or stored only in accord with that
 written license.
  
 The following legend is applicable only to US Government
 contracts under FAR:
  
                    RESTRICTED RIGHTS LEGEND
  
 Use, reproduction and disclosure by the US Government is
 subject to restrictions as set forth in subparagraphs (a)
 and (c) of the Commercial Computer Software - Restricted
 Rights clause in FAR 52.227-19.
  
 Gaussian, Inc.
 340 Quinnipiac St., Bldg. 40, Wallingford CT 06492
  
  
 ---------------------------------------------------------------
 Warning -- This program may not be used in any manner that
 competes with the business of Gaussian, Inc. or will provide
 assistance to any competitor of Gaussian, Inc.  The licensee
 of this program is prohibited from giving any competitor of
 Gaussian, Inc. access to this program.  By using this program,
 the user acknowledges that Gaussian, Inc. is engaged in the
 business of creating and licensing software in the field of
 computational chemistry and represents and warrants to the
 licensee that it is not a competitor of Gaussian, Inc. and that
 it will not use this program in any manner prohibited above.
 ---------------------------------------------------------------
  

 Cite this work as:
 Gaussian 16, Revision C.02,
 M. J. Frisch, G. W. Trucks, H. B. Schlegel, G. E. Scuseria, 
 M. A. Robb, J. R. Cheeseman, G. Scalmani, V. Barone, 
 G. A. Petersson, H. Nakatsuji, X. Li, M. Caricato, A. V. Marenich, 
 J. Bloino, B. G. Janesko, R. Gomperts, B. Mennucci, H. P. Hratchian, 
 J. V. Ortiz, A. F. Izmaylov, J. L. Sonnenberg, D. Williams-Young, 
 F. Ding, F. Lipparini, F. Egidi, J. Goings, B. Peng, A. Petrone, 
 T. Henderson, D. Ranasinghe, V. G. Zakrzewski, J. Gao, N. Rega, 
 G. Zheng, W. Liang, M. Hada, M. Ehara, K. Toyota, R. Fukuda, 
 J. Hasegawa, M. Ishida, T. Nakajima, Y. Honda, O. Kitao, H. Nakai, 
 T. Vreven, K. Throssell, J. A. Montgomery, Jr., J. E. Peralta, 
 F. Ogliaro, M. J. Bearpark, J. J. Heyd, E. N. Brothers, K. N. Kudin, 
 V. N. Staroverov, T. A. Keith, R. Kobayashi, J. Normand, 
 K. Raghavachari, A. P. Rendell, J. C. Burant, S. S. Iyengar, 
 J. Tomasi, M. Cossi, J. M. Millam, M. Klene, C. Adamo, R. Cammi, 
 J. W. Ochterski, R. L. Martin, K. Morokuma, O. Farkas, 
 J. B. Foresman, and D. J. Fox, Gaussian, Inc., Wallingford CT, 2019.
 
 ******************************************
 Gaussian 16:  ES64L-G16RevC.02  7-Dec-2021
                12-Aug-2025 
 ******************************************
 SetLPE:    new flags="-opt 'Tsnet.Node.lindarsharg: ssh'  -nodelist 'n1' -env GAUSS_MDEF=2147483648 -env GAUSS_EXEDIR="/hpc/softwares/Gaussian/g16/bsd:/hpc/softwares/Gaussian/g16""
 Will use up to    1 processors via Linda.
 ----------------------------------------------------------
 # td=(50-50,nstates=3) b3lyp/6-31+g(d,p) geom=connectivity
 ----------------------------------------------------------
 1/38=1,57=2,172=1/1;
 2/12=2,17=6,18=5,40=1/2;
 3/5=1,6=6,7=111,11=9,25=1,30=1,74=-5/1,2,3,8;
 4//1;
 5/5=2,38=5/2;
 8/6=1,10=2,108=3/1;
 9/41=3,42=1,48=2,70=2/14;
 6/7=2,8=2,9=2,10=2/1;
 99/5=1,9=1/99;
 -------------------
 Title Card Required
 -------------------
 Symbolic Z-matrix:
 Charge =  0 Multiplicity = 1
 C                     2.75959  -1.51925  -1.5694 
 C                     3.22908  -0.87734  -0.24508 
 C                     2.95472  -1.85489   0.91851 
 C                     4.7511   -0.6175   -0.33121 
 Si                    2.31889   0.79464   0.05833 
 C                     3.02552   1.68187   1.57358 
 C                     2.42184   1.9194   -1.45749 
 C                     0.46003   0.49462   0.39431 
 C                    -0.21042   0.82576   1.53103 
 C                    -1.65929   0.83984   1.51673 
 C                    -2.32822   0.24492   0.50859 
 C                    -3.83588   0.41013   0.34788 
 C                    -4.17839   1.11795  -0.90663 
 N                    -4.41439   1.69263  -1.88671 
 C                    -4.58039  -0.86824   0.42089 
 N                    -5.14713  -1.87697   0.50798 
 C                    -1.53822  -0.57652  -0.48997 
 C                    -1.37115  -2.043    -0.07949 
 O                    -0.22462   0.02605  -0.69572 
 H                     2.98582  -0.88482  -2.43356 
 H                     3.27362  -2.47841  -1.7246 
 H                     1.68265  -1.71305  -1.57314 
 H                     3.28562  -1.45207   1.88295 
 H                     3.49651  -2.79741   0.75697 
 H                     1.8905   -2.09938   1.00608 
 H                     5.28114  -1.55864  -0.53407 
 H                     5.00725   0.07747  -1.13957 
 H                     5.15556  -0.21249   0.60316 
 H                     2.48157   2.61244   1.76911 
 H                     4.07523   1.94652   1.40586 
 H                     2.98112   1.06749   2.47933 
 H                     3.46247   2.09801  -1.75072 
 H                     1.89617   1.48544  -2.31357 
 H                     1.96363   2.89137  -1.24388 
 H                     0.32907   1.21455   2.38559 
 H                    -2.18663   1.41043   2.27869 
 H                    -4.19878   1.03297   1.17638 
 H                    -1.99861  -0.52419  -1.48196 
 H                    -0.76622  -2.57233  -0.82189 
 H                    -0.88634  -2.12102   0.89786 
 H                    -2.34763  -2.53223  -0.01821 
 
                          Input orientation:                          
 ---------------------------------------------------------------------
 Center     Atomic      Atomic             Coordinates (Angstroms)
 Number     Number       Type             X           Y           Z
 ---------------------------------------------------------------------
      1          6           0        2.759585   -1.519250   -1.569403
      2          6           0        3.229080   -0.877335   -0.245079
      3          6           0        2.954715   -1.854894    0.918513
      4          6           0        4.751096   -0.617503   -0.331205
      5         14           0        2.318886    0.794635    0.058326
      6          6           0        3.025521    1.681870    1.573584
      7          6           0        2.421842    1.919396   -1.457491
      8          6           0        0.460028    0.494619    0.394311
      9          6           0       -0.210422    0.825758    1.531031
     10          6           0       -1.659288    0.839844    1.516726
     11          6           0       -2.328223    0.244918    0.508594
     12          6           0       -3.835875    0.410130    0.347884
     13          6           0       -4.178388    1.117952   -0.906633
     14          7           0       -4.414387    1.692630   -1.886710
     15          6           0       -4.580386   -0.868241    0.420892
     16          7           0       -5.147133   -1.876974    0.507975
     17          6           0       -1.538218   -0.576524   -0.489970
     18          6           0       -1.371153   -2.043003   -0.079494
     19          8           0       -0.224622    0.026053   -0.695724
     20          1           0        2.985821   -0.884822   -2.433558
     21          1           0        3.273622   -2.478407   -1.724597
     22          1           0        1.682650   -1.713047   -1.573138
     23          1           0        3.285616   -1.452067    1.882946
     24          1           0        3.496511   -2.797406    0.756970
     25          1           0        1.890500   -2.099377    1.006075
     26          1           0        5.281142   -1.558640   -0.534067
     27          1           0        5.007248    0.077467   -1.139567
     28          1           0        5.155558   -0.212485    0.603161
     29          1           0        2.481573    2.612444    1.769111
     30          1           0        4.075231    1.946519    1.405863
     31          1           0        2.981119    1.067494    2.479332
     32          1           0        3.462468    2.098005   -1.750721
     33          1           0        1.896171    1.485440   -2.313567
     34          1           0        1.963631    2.891370   -1.243878
     35          1           0        0.329073    1.214549    2.385586
     36          1           0       -2.186632    1.410425    2.278688
     37          1           0       -4.198778    1.032967    1.176379
     38          1           0       -1.998606   -0.524187   -1.481958
     39          1           0       -0.766221   -2.572332   -0.821892
     40          1           0       -0.886336   -2.121017    0.897857
     41          1           0       -2.347628   -2.532232   -0.018205
 ---------------------------------------------------------------------
                    Distance matrix (angstroms):
                    1          2          3          4          5
     1  C    0.000000
     2  C    1.544770   0.000000
     3  C    2.518027   1.544294   0.000000
     4  C    2.512449   1.546436   2.513944   0.000000
     5  Si   2.863177   1.927691   2.857307   2.839280   0.000000
     6  C    4.494025   3.146188   3.597615   3.448615   1.892756
     7  C    3.457005   3.153297   4.491616   3.623507   1.890341
     8  C    3.633153   3.155745   3.466765   4.491821   1.912655
     9  C    4.892105   4.229098   4.192752   5.492503   2.926983
    10  C    5.883533   5.472550   5.376662   6.828743   4.237316
    11  C    5.772014   5.719361   5.699709   7.180932   4.701122
    12  C    7.134325   7.205745   7.181091   8.674864   6.173554
    13  C    7.451816   7.699961   7.940411   9.114747   6.576492
    14  N    7.866558   8.229354   8.646263   9.579269   7.065870
    15  C    7.632841   7.837816   7.615698   9.365099   7.106093
    16  N    8.182888   8.469198   8.112273  10.013263   7.942362
    17  C    4.530455   4.783052   4.878986   6.291451   4.130128
    18  C    4.422346   4.748510   4.443483   6.291052   4.656992
    19  O    3.472286   3.598228   4.031365   5.030388   2.762018
    20  H    1.095648   2.201970   3.489755   2.758178   3.078127
    21  H    1.099228   2.180456   2.734319   2.754530   3.847485
    22  H    1.094240   2.203089   2.801177   3.486829   3.058585
    23  H    3.492841   2.204995   1.096310   2.783270   3.051471
    24  H    2.754769   2.182268   1.099076   2.740454   3.844173
    25  H    2.779378   2.202401   1.095442   3.488163   3.075231
    26  H    2.726118   2.181433   2.758626   1.099018   3.829333
    27  H    2.790386   2.207632   3.490359   1.096379   3.029285
    28  H    3.488317   2.207454   2.764175   1.095750   3.059059
    29  H    5.319197   4.098083   4.572143   4.471534   2.501536
    30  H    4.753387   3.378718   3.992970   3.169922   2.495484
    31  H    4.809634   3.356525   3.313186   3.724400   2.524733
    32  H    3.689370   3.342765   4.796669   3.324090   2.505834
    33  H    3.213631   3.411451   4.767042   4.062355   2.506347
    34  H    4.493671   4.099036   5.308974   4.573305   2.493640
    35  H    5.387298   4.439191   4.297415   5.503786   3.090602
    36  H    6.917793   6.397905   6.240660   7.684797   5.060523
    37  H    7.903920   7.800184   7.718724   9.224809   6.617159
    38  H    4.861911   5.383613   5.662900   6.847731   4.769958
    39  H    3.754872   4.378146   4.170023   5.873918   4.650713
    40  H    4.443224   4.448561   3.850314   5.962532   4.413535
    41  H    5.432860   5.821497   5.426884   7.359079   5.731514
                    6          7          8          9         10
     6  C    0.000000
     7  C    3.099720   0.000000
     8  C    3.063006   3.050881   0.000000
     9  C    3.347546   4.129906   1.360621   0.000000
    10  C    4.760218   5.164012   2.422911   1.449005   0.000000
    11  C    5.644609   5.406707   2.801741   2.422361   1.348236
    12  C    7.085084   6.685528   4.296985   3.836208   2.507664
    13  C    7.639750   6.671491   4.857561   4.666084   3.506548
    14  N    8.205241   6.853443   5.513457   5.486870   4.461075
    15  C    8.104418   7.767267   5.221481   4.816495   3.556855
    16  N    8.977370   8.692805   6.089140   5.720360   4.534726
    17  C    5.494207   4.779936   2.433575   2.795332   2.459184
    18  C    5.994838   5.655643   3.165002   3.488678   3.307831
    19  O    4.295919   3.341977   1.369845   2.366045   2.759612
    20  H    4.758852   3.022320   4.034765   5.372152   6.336896
    21  H    5.314834   4.487488   4.609226   5.801309   6.771305
    22  H    4.819816   3.708695   3.199914   4.434537   5.218531
    23  H    3.159892   4.824043   3.740263   4.187435   5.462513
    24  H    4.577401   5.320430   4.493237   5.240977   6.355240
    25  H    3.988504   4.743629   3.024784   3.639487   4.636893
    26  H    4.475592   4.596199   5.321738   6.333029   7.624175
    27  H    3.723243   3.190314   4.817054   5.908986   7.216634
    28  H    3.011206   4.032915   4.753064   5.543702   6.955870
    29  H    1.095481   3.300734   3.234486   3.239717   4.511379
    30  H    1.095473   3.306543   4.025040   4.431545   5.841381
    31  H    1.095358   4.066584   3.321355   3.338210   4.744661
    32  H    3.378623   1.095804   4.023264   5.087104   6.204157
    33  H    4.052648   1.094310   3.221310   4.433266   5.265855
    34  H    3.244779   1.095592   3.269388   4.085753   4.995522
    35  H    2.854570   4.432351   2.121468   1.082810   2.202022
    36  H    5.266630   5.954504   3.375557   2.192312   1.088228
    37  H    7.264251   7.180225   4.754569   4.009451   2.569463
    38  H    6.280516   5.050946   3.256260   3.754738   3.311770
    39  H    6.181735   5.544669   3.519805   4.170393   4.231979
    40  H    5.497380   5.728581   2.984595   3.088892   3.122043
    41  H    7.011646   6.681046   4.149088   4.271285   3.768384
                   11         12         13         14         15
    11  C    0.000000
    12  C    1.525168   0.000000
    13  C    2.487603   1.480588   0.000000
    14  N    3.490764   2.640624   1.160388   0.000000
    15  C    2.513773   1.481168   2.422579   3.451180   0.000000
    16  N    3.528269   2.641187   3.450966   4.360448   1.160314
    17  C    1.515257   2.637179   3.164705   3.920751   3.188974
    18  C    2.548806   3.503622   4.307710   5.146091   3.453929
    19  O    2.433808   3.778595   4.107188   4.663696   4.584678
    20  H    6.178320   7.479897   7.593977   7.855277   8.086758
    21  H    6.616971   7.948822   8.314765   8.748103   8.299470
    22  H    4.924869   6.217099   6.542977   6.990767   6.626875
    23  H    6.023603   7.519297   8.372461   9.131784   8.021997
    24  H    6.576089   8.013708   8.775060   9.472686   8.310890
    25  H    4.851889   6.286669   7.130292   7.905639   6.612904
    26  H    7.889385   9.368772   9.837970  10.315216   9.931683
    27  H    7.520213   8.973517   9.247312   9.588231   9.759719
    28  H    7.498342   9.016578   9.548408  10.070391   9.759705
    29  H    5.507106   6.839607   7.331316   7.859093   7.987749
    30  H    6.686162   8.128063   8.611410   9.109287   9.154930
    31  H    5.722722   7.172629   7.919965   8.610844   8.072212
    32  H    6.486181   7.779388   7.749559   7.888451   8.843191
    33  H    5.229626   6.410613   6.246181   6.328371   7.413695
    34  H    5.338059   6.505730   6.401808   6.521451   7.728538
    35  H    3.394776   4.705965   5.582584   6.401678   5.683381
    36  H    2.124073   2.729212   3.768143   4.732132   3.791277
    37  H    2.136805   1.098193   2.084845   3.140726   2.081100
    38  H    2.159275   2.756234   2.789098   3.303649   3.225647
    39  H    3.485246   4.436917   5.026754   5.712517   4.358474
    40  H    2.797894   3.925424   4.958297   5.894477   3.929752
    41  H    2.826739   3.317589   4.179094   5.060856   2.819021
                   16         17         18         19         20
    16  N    0.000000
    17  C    3.963752   0.000000
    18  C    3.825011   1.531980   0.000000
    19  O    5.413088   1.459784   2.444436   0.000000
    20  H    8.705281   4.933509   5.085885   3.762540   0.000000
    21  H    8.732423   5.319330   4.946703   4.423642   1.767758
    22  H    7.141697   3.583145   3.415488   2.726171   1.767635
    23  H    8.554668   5.446713   5.087816   4.599581   4.363926
    24  H    8.696078   5.642311   4.996293   4.891735   3.754764
    25  H    7.058742   4.038977   3.438025   3.447798   3.808667
    26  H   10.485042   6.889860   6.685378   5.731564   3.054602
    27  H   10.471184   6.610053   6.804715   5.250915   2.585842
    28  H   10.436715   6.792209   6.812839   5.539886   3.792289
    29  H    8.941057   5.606397   6.319337   4.482000   5.490680
    30  H   10.023837   6.439778   6.912718   5.156898   4.893308
    31  H    8.867053   5.651898   5.930013   4.630589   5.286591
    32  H    9.748200   5.809428   6.580641   4.358972   3.096888
    33  H    8.299100   4.401389   5.302490   3.040557   2.611489
    34  H    8.738939   4.985741   6.068329   3.646775   4.088990
    35  H    6.562909   3.868274   4.424820   3.348667   5.889806
    36  H    4.765184   3.468987   4.260539   3.822708   7.363945
    37  H    3.132714   3.527855   4.362828   4.506946   8.266077
    38  H    3.962712   1.094868   2.160418   2.016915   5.087250
    39  H    4.630816   2.165503   1.094206   2.657226   4.418481
    40  H    4.285552   2.176344   1.093777   2.754501   5.255483
    41  H    2.922919   2.168525   1.093894   3.392788   6.082234
                   21         22         23         24         25
    21  H    0.000000
    22  H    1.771978   0.000000
    23  H    3.750718   3.818655   0.000000
    24  H    2.511895   3.145684   1.766985   0.000000
    25  H    3.084357   2.616255   1.770385   1.768776   0.000000
    26  H    2.508679   3.748687   3.136149   2.527098   3.763095
    27  H    3.143280   3.800905   3.799878   3.760861   4.365381
    28  H    3.754270   4.364522   2.582847   3.075372   3.792533
    29  H    6.224958   5.524380   4.144839   5.596517   4.809662
    30  H    5.479263   5.290682   3.521574   4.822946   4.615426
    31  H    5.507449   5.083300   2.607026   4.262583   3.659099
    32  H    4.580381   4.209917   5.083092   5.500429   5.262036
    33  H    4.237492   3.290007   5.307563   5.507455   4.885792
    34  H    5.548123   4.624718   5.512723   6.222161   5.474960
    35  H    6.261142   5.106318   4.013058   5.364777   3.914487
    36  H    7.807924   6.289991   6.188374   7.233228   5.528224
    37  H    8.751124   7.049229   7.917751   8.606110   6.849809
    38  H    5.627987   3.869541   6.332973   6.354261   4.878184
    39  H    4.140535   2.701798   4.998852   4.551302   3.259343
    40  H    4.930542   3.587749   4.338557   4.436970   2.779028
    41  H    5.874787   4.396819   6.042729   5.901286   4.381580
                   26         27         28         29         30
    26  H    0.000000
    27  H    1.765926   0.000000
    28  H    1.766690   1.772898   0.000000
    29  H    5.526315   4.611459   4.060771   0.000000
    30  H    4.183741   3.292602   2.544157   1.764979   0.000000
    31  H    4.611644   4.264010   3.144288   1.772239   1.766947
    32  H    4.261323   2.615804   3.707516   3.689989   3.219076
    33  H    4.887849   3.611020   4.691892   4.275640   4.335326
    34  H    5.595739   4.146388   4.820152   3.069881   3.517488
    35  H    6.382628   5.966991   5.339328   2.639585   3.940728
    36  H    8.514375   8.075466   7.703829   4.847335   6.345089
    37  H    9.975517   9.540833   9.454276   6.890078   8.327452
    38  H    7.413725   7.039972   7.458347   6.362382   7.164872
    39  H    6.138486   6.360448   6.532007   6.644047   6.987315
    40  H    6.356450   6.612016   6.343014   5.874313   6.435842
    41  H    7.707926   7.884300   7.878142   7.278968   7.958662
                   31         32         33         34         35
    31  H    0.000000
    32  H    4.380297   0.000000
    33  H    4.931903   1.773504   0.000000
    34  H    4.268969   1.769980   1.767887   0.000000
    35  H    2.657774   5.263810   4.960969   4.319319   0.000000
    36  H    5.183002   6.972893   6.145219   5.641485   2.525582
    37  H    7.297246   8.270242   7.037958   6.876525   4.690052
    38  H    6.559187   6.063947   4.460881   5.236605   4.837271
    39  H    6.179723   6.368405   5.077296   6.122271   5.082131
    40  H    5.255937   6.612655   5.573340   6.150883   3.849228
    41  H    6.898642   7.628756   6.278551   7.035957   5.194353
                   36         37         38         39         40
    36  H    0.000000
    37  H    2.325143   0.000000
    38  H    4.233265   3.785795   0.000000
    39  H    5.243426   5.364114   2.479790   0.000000
    40  H    4.008559   4.582299   3.074171   1.782035   0.000000
    41  H    4.565762   4.190994   2.509309   1.774364   1.773032
                   41
    41  H    0.000000
 Stoichiometry    C15H22N2OSi
 Framework group  C1[X(C15H22N2OSi)]
 Deg. of freedom   117
 Full point group                 C1      NOp   1
 Largest Abelian subgroup         C1      NOp   1
 Largest concise Abelian subgroup C1      NOp   1
                         Standard orientation:                         
 ---------------------------------------------------------------------
 Center     Atomic      Atomic             Coordinates (Angstroms)
 Number     Number       Type             X           Y           Z
 ---------------------------------------------------------------------
      1          6           0        2.759585    1.519250    1.569403
      2          6           0        3.229080    0.877335    0.245079
      3          6           0        2.954715    1.854894   -0.918513
      4          6           0        4.751096    0.617503    0.331205
      5         14           0        2.318886   -0.794635   -0.058326
      6          6           0        3.025521   -1.681870   -1.573584
      7          6           0        2.421842   -1.919396    1.457491
      8          6           0        0.460028   -0.494619   -0.394311
      9          6           0       -0.210422   -0.825758   -1.531031
     10          6           0       -1.659288   -0.839844   -1.516726
     11          6           0       -2.328223   -0.244918   -0.508594
     12          6           0       -3.835875   -0.410130   -0.347884
     13          6           0       -4.178388   -1.117952    0.906633
     14          7           0       -4.414387   -1.692630    1.886710
     15          6           0       -4.580386    0.868241   -0.420892
     16          7           0       -5.147133    1.876974   -0.507975
     17          6           0       -1.538218    0.576524    0.489970
     18          6           0       -1.371153    2.043003    0.079494
     19          8           0       -0.224622   -0.026053    0.695724
     20          1           0        2.985821    0.884822    2.433558
     21          1           0        3.273622    2.478407    1.724597
     22          1           0        1.682650    1.713047    1.573138
     23          1           0        3.285616    1.452067   -1.882946
     24          1           0        3.496511    2.797406   -0.756970
     25          1           0        1.890500    2.099377   -1.006075
     26          1           0        5.281142    1.558640    0.534067
     27          1           0        5.007248   -0.077467    1.139567
     28          1           0        5.155558    0.212485   -0.603161
     29          1           0        2.481573   -2.612444   -1.769111
     30          1           0        4.075231   -1.946519   -1.405863
     31          1           0        2.981119   -1.067494   -2.479332
     32          1           0        3.462468   -2.098005    1.750721
     33          1           0        1.896171   -1.485440    2.313567
     34          1           0        1.963631   -2.891370    1.243878
     35          1           0        0.329073   -1.214549   -2.385586
     36          1           0       -2.186632   -1.410425   -2.278688
     37          1           0       -4.198778   -1.032967   -1.176379
     38          1           0       -1.998606    0.524187    1.481958
     39          1           0       -0.766221    2.572332    0.821892
     40          1           0       -0.886336    2.121017   -0.897857
     41          1           0       -2.347628    2.532232    0.018205
 ---------------------------------------------------------------------
 Rotational constants (GHZ):           0.6866113           0.1768323           0.1677444
 Standard basis: 6-31+G(d,p) (6D, 7F)
 There are   475 symmetry adapted cartesian basis functions of A   symmetry.
 There are   475 symmetry adapted basis functions of A   symmetry.
   475 basis functions,   786 primitive gaussians,   475 cartesian basis functions
    74 alpha electrons       74 beta electrons
       nuclear repulsion energy      1555.0779703372 Hartrees.
 NAtoms=   41 NActive=   41 NUniq=   41 SFac= 1.00D+00 NAtFMM=   60 NAOKFM=F Big=F
 Integral buffers will be    131072 words long.
 Regular integral format.
 Two-electron integral symmetry is turned on.
 One-electron integrals computed using PRISM.
 NBasis=   475 RedAO= T EigKep=  2.22D-06  NBF=   475
 NBsUse=   475 1.00D-06 EigRej= -1.00D+00 NBFU=   475
 ExpMin= 3.31D-02 ExpMax= 1.61D+04 ExpMxC= 2.43D+03 IAcc=3 IRadAn=         5 AccDes= 0.00D+00
 Harris functional with IExCor=  402 and IRadAn=       5 diagonalized for initial guess.
 HarFok:  IExCor=  402 AccDes= 0.00D+00 IRadAn=         5 IDoV= 1 UseB2=F ITyADJ=14
 ICtDFT=  3500011 ScaDFX=  1.000000  1.000000  1.000000  1.000000
 FoFCou: FMM=F IPFlag=           0 FMFlag=      100000 FMFlg1=           0
         NFxFlg=           0 DoJE=T BraDBF=F KetDBF=T FulRan=T
         wScrn=  0.000000 ICntrl=       500 IOpCl=  0 I1Cent=   200000004 NGrid=           0
         NMat0=    1 NMatS0=      1 NMatT0=    0 NMatD0=    1 NMtDS0=    0 NMtDT0=    0
 Petite list used in FoFCou.
 Requested convergence on RMS density matrix=1.00D-08 within 128 cycles.
 Requested convergence on MAX density matrix=1.00D-06.
 Requested convergence on             energy=1.00D-06.
 No special actions if energy rises.
 SCF Done:  E(RB3LYP) =  -1059.08052389     A.U. after   16 cycles
            NFock= 16  Conv=0.79D-08     -V/T= 2.0082
 DoSCS=F DFT=T ScalE2(SS,OS)=  1.000000  1.000000
 ExpMin= 3.31D-02 ExpMax= 1.61D+04 ExpMxC= 2.43D+03 IAcc=3 IRadAn=         5 AccDes= 0.00D+00
 HarFok:  IExCor=  205 AccDes= 0.00D+00 IRadAn=         5 IDoV=-2 UseB2=F ITyADJ=14
 ICtDFT= 12500011 ScaDFX=  1.000000  1.000000  1.000000  1.000000
 GSVD:  LWork=        -713 too small for GESVD, short by        2990 words or        2990 for optimal perf.
 Range of M.O.s used for correlation:    24   475
 NBasis=   475 NAE=    74 NBE=    74 NFC=    23 NFV=     0
 NROrb=    452 NOA=    51 NOB=    51 NVA=   401 NVB=   401

 **** Warning!!: The largest alpha MO coefficient is  0.11968461D+03

 Orbital symmetries:
       Occupied  (A) (A) (A) (A) (A) (A) (A) (A) (A) (A) (A) (A)
                 (A) (A) (A) (A) (A) (A) (A) (A) (A) (A) (A) (A)
                 (A) (A) (A) (A) (A) (A) (A) (A) (A) (A) (A) (A)
                 (A) (A) (A) (A) (A) (A) (A) (A) (A) (A) (A) (A)
                 (A) (A) (A) (A) (A) (A) (A) (A) (A) (A) (A) (A)
                 (A) (A) (A) (A) (A) (A) (A) (A) (A) (A) (A) (A)
                 (A) (A)
       Virtual   (A) (A) (A) (A) (A) (A) (A) (A) (A) (A) (A) (A)
                 (A) (A) (A) (A) (A) (A) (A) (A) (A) (A) (A) (A)
                 (A) (A) (A) (A) (A) (A) (A) (A) (A) (A) (A) (A)
                 (A) (A) (A) (A) (A) (A) (A) (A) (A) (A) (A) (A)
                 (A) (A) (A) (A) (A) (A) (A) (A) (A) (A) (A) (A)
                 (A) (A) (A) (A) (A) (A) (A) (A) (A) (A) (A) (A)
                 (A) (A) (A) (A) (A) (A) (A) (A) (A) (A) (A) (A)
                 (A) (A) (A) (A) (A) (A) (A) (A) (A) (A) (A) (A)
                 (A) (A) (A) (A) (A) (A) (A) (A) (A) (A) (A) (A)
                 (A) (A) (A) (A) (A) (A) (A) (A) (A) (A) (A) (A)
                 (A) (A) (A) (A) (A) (A) (A) (A) (A) (A) (A) (A)
                 (A) (A) (A) (A) (A) (A) (A) (A) (A) (A) (A) (A)
                 (A) (A) (A) (A) (A) (A) (A) (A) (A) (A) (A) (A)
                 (A) (A) (A) (A) (A) (A) (A) (A) (A) (A) (A) (A)
                 (A) (A) (A) (A) (A) (A) (A) (A) (A) (A) (A) (A)
                 (A) (A) (A) (A) (A) (A) (A) (A) (A) (A) (A) (A)
                 (A) (A) (A) (A) (A) (A) (A) (A) (A) (A) (A) (A)
                 (A) (A) (A) (A) (A) (A) (A) (A) (A) (A) (A) (A)
                 (A) (A) (A) (A) (A) (A) (A) (A) (A) (A) (A) (A)
                 (A) (A) (A) (A) (A) (A) (A) (A) (A) (A) (A) (A)
                 (A) (A) (A) (A) (A) (A) (A) (A) (A) (A) (A) (A)
                 (A) (A) (A) (A) (A) (A) (A) (A) (A) (A) (A) (A)
                 (A) (A) (A) (A) (A) (A) (A) (A) (A) (A) (A) (A)
                 (A) (A) (A) (A) (A) (A) (A) (A) (A) (A) (A) (A)
                 (A) (A) (A) (A) (A) (A) (A) (A) (A) (A) (A) (A)
                 (A) (A) (A) (A) (A) (A) (A) (A) (A) (A) (A) (A)
                 (A) (A) (A) (A) (A) (A) (A) (A) (A) (A) (A) (A)
                 (A) (A) (A) (A) (A) (A) (A) (A) (A) (A) (A) (A)
                 (A) (A) (A) (A) (A) (A) (A) (A) (A) (A) (A) (A)
                 (A) (A) (A) (A) (A) (A) (A) (A) (A) (A) (A) (A)
                 (A) (A) (A) (A) (A) (A) (A) (A) (A) (A) (A) (A)
                 (A) (A) (A) (A) (A) (A) (A) (A) (A) (A) (A) (A)
                 (A) (A) (A) (A) (A) (A) (A) (A) (A) (A) (A) (A)
                 (A) (A) (A) (A) (A)
    24 initial guesses have been made.
 Convergence on wavefunction:    0.001000000000000
 Iteration     1 Dimension    24 NMult     0 NNew     24
 CISAX will form    24 AO SS matrices at one time.
 New state      1 was old state      2
 New state      2 was old state      1
 New state      3 was old state      4
 New state      4 was old state      3
 New state      5 was old state      6
 New state      6 was old state      8
 New state      7 was old state      5
 New state      8 was old state     10
 New state      9 was old state     20
 New state     10 was old state      9
 New state     11 was old state      7
 Vector   6 SDiff=5.90D-01 TDiff=9.78D+00 assumed to be singlet.
 Vector  12 SDiff=6.07D-01 TDiff=9.68D+00 assumed to be singlet.
 Iteration     2 Dimension    36 NMult    24 NNew     12
 New state      6 was old state      7
 Iteration     3 Dimension    48 NMult    36 NNew     12
 New state      4 was old state      5
 New state      5 was old state      4
 Iteration     4 Dimension    60 NMult    48 NNew     12
 Iteration     5 Dimension    70 NMult    60 NNew     10
 Iteration     6 Dimension    76 NMult    70 NNew      6
 Iteration     7 Dimension    80 NMult    76 NNew      4
 ***********************************************************************
 Excited states from <AA,BB:AA,BB> singles matrix:
 ***********************************************************************
 
 Ground to excited state transition densities written to RWF  633
 Ground to excited state transition electric dipole moments (Au):
       state          X           Y           Z        Dip. S.      Osc.
         1         0.0000     -0.0000      0.0000      0.0000      0.0000
         2         1.5608     -0.0520      0.0829      2.4456      0.2353
         3         0.0000      0.0000      0.0000      0.0000      0.0000
         4        -0.0000      0.0000      0.0000      0.0000      0.0000
         5         0.0227     -0.0996      0.0168      0.0107      0.0012
         6        -0.0077      0.0731     -0.0891      0.0133      0.0016
 Ground to excited state transition velocity dipole moments (Au):
       state          X           Y           Z        Dip. S.      Osc.
         1        -0.0000      0.0000     -0.0000      0.0000      0.0000
         2        -0.2217      0.0065     -0.0127      0.0494      0.2280
         3         0.0000      0.0000     -0.0000      0.0000      0.0000
         4         0.0000     -0.0000      0.0000      0.0000      0.0000
         5        -0.0044      0.0164     -0.0011      0.0003      0.0011
         6         0.0022     -0.0137      0.0151      0.0004      0.0015
 Ground to excited state transition magnetic dipole moments (Au):
       state          X           Y           Z
         1         0.0000     -0.0000     -0.0000
         2         0.1835      1.4610     -0.9356
         3         0.0000     -0.0000      0.0000
         4         0.0000      0.0000      0.0000
         5         0.0164     -0.1062     -0.1282
         6        -0.0592     -0.1458      0.0554
 Ground to excited state transition velocity quadrupole moments (Au):
       state          XX          YY          ZZ          XY          XZ          YZ
         1        -0.0000     -0.0000     -0.0000     -0.0000      0.0000     -0.0000
         2         0.5334     -0.0023      0.0105      0.0230     -0.0865     -0.0439
         3        -0.0000     -0.0000     -0.0000      0.0000     -0.0000     -0.0000
         4         0.0000      0.0000      0.0000      0.0000     -0.0000     -0.0000
         5         0.0433      0.0261      0.0027     -0.1901      0.1071      0.0371
         6         0.0687      0.0041     -0.0094      0.0913     -0.0625     -0.0329
 <0|del|b> * <b|rxdel|0> + <0|del|b> * <b|delr+rdel|0>
 Rotatory Strengths (R) in cgs (10**-40 erg-esu-cm/Gauss)
       state          XX          YY          ZZ    R(velocity)    E-M Angle
         1        -0.0000      0.0000     -0.0000      0.0000       90.00
         2        53.0328    -46.0573   -101.6270    -31.5505       92.86
         3        -0.0000      0.0000      0.0000      0.0000       90.00
         4        -0.0000     -0.0000      0.0000     -0.0000       90.00
         5        -6.4376     -0.6140      0.2186     -2.2776      126.14
         6         6.5530     -1.4469      5.4655      3.5239       37.69
 1/2[<0|r|b>*<b|rxdel|0> + (<0|rxdel|b>*<b|r|0>)*]
 Rotatory Strengths (R) in cgs (10**-40 erg-esu-cm/Gauss)
       state          XX          YY          ZZ     R(length)
         1        -0.0000     -0.0000      0.0000     -0.0000
         2      -202.5511     53.7322     54.8777    -31.3137
         3        -0.0000      0.0000     -0.0000     -0.0000
         4         0.0000     -0.0000     -0.0000     -0.0000
         5        -0.2630     -7.4748      1.5202     -2.0725
         6        -0.3239      7.5351      3.4898      3.5670
  1/2[<0|del|b>*<b|r|0> + (<0|r|b>*<b|del|0>)*] (Au)
       state          X           Y           Z        Dip. S.   Osc.(frdel)
         1        -0.0000     -0.0000     -0.0000      0.0000      0.0000
         2        -0.3460     -0.0003     -0.0011      0.3474      0.2316
         3         0.0000      0.0000     -0.0000      0.0000      0.0000
         4        -0.0000     -0.0000      0.0000      0.0000      0.0000
         5        -0.0001     -0.0016     -0.0000      0.0018      0.0012
         6        -0.0000     -0.0010     -0.0013      0.0024      0.0016

 Excitation energies and oscillator strengths:
 
 Excited State   1:      Triplet-A      2.3538 eV  526.74 nm  f=0.0000  <S**2>=2.000
      74 -> 75         0.69580
      74 <- 75         0.11064
 This state for optimization and/or second-order correction.
 Total Energy, E(TD-HF/TD-DFT) =  -1058.99402305    
 Copying the excited state density for this state as the 1-particle RhoCI density.
 
 Excited State   2:      Singlet-A      3.9268 eV  315.74 nm  f=0.2353  <S**2>=0.000
      74 -> 75         0.70169
 
 Excited State   3:      Triplet-A      4.4792 eV  276.80 nm  f=0.0000  <S**2>=2.000
      70 -> 75         0.35802
      72 -> 75         0.37462
      73 -> 75         0.12977
      74 -> 76         0.19835
      74 -> 82         0.17957
      74 -> 85        -0.19069
      74 -> 88        -0.11704
 
 Excited State   4:      Triplet-A      4.6660 eV  265.72 nm  f=0.0000  <S**2>=2.000
      72 -> 75        -0.13005
      74 -> 76         0.64751
      74 -> 77        -0.16423
 
 Excited State   5:      Singlet-A      4.7280 eV  262.23 nm  f=0.0012  <S**2>=0.000
      74 -> 76         0.69972
 
 Excited State   6:      Singlet-A      4.9276 eV  251.61 nm  f=0.0016  <S**2>=0.000
      74 -> 77         0.70161
 SavETr:  write IOETrn=   770 NScale= 10 NData=  16 NLR=1 NState=    6 LETran=     118.

 **********************************************************************

            Population analysis using the SCF Density.

 **********************************************************************

 Orbital symmetries:
       Occupied  (A) (A) (A) (A) (A) (A) (A) (A) (A) (A) (A) (A)
                 (A) (A) (A) (A) (A) (A) (A) (A) (A) (A) (A) (A)
                 (A) (A) (A) (A) (A) (A) (A) (A) (A) (A) (A) (A)
                 (A) (A) (A) (A) (A) (A) (A) (A) (A) (A) (A) (A)
                 (A) (A) (A) (A) (A) (A) (A) (A) (A) (A) (A) (A)
                 (A) (A) (A) (A) (A) (A) (A) (A) (A) (A) (A) (A)
                 (A) (A)
       Virtual   (A) (A) (A) (A) (A) (A) (A) (A) (A) (A) (A) (A)
                 (A) (A) (A) (A) (A) (A) (A) (A) (A) (A) (A) (A)
                 (A) (A) (A) (A) (A) (A) (A) (A) (A) (A) (A) (A)
                 (A) (A) (A) (A) (A) (A) (A) (A) (A) (A) (A) (A)
                 (A) (A) (A) (A) (A) (A) (A) (A) (A) (A) (A) (A)
                 (A) (A) (A) (A) (A) (A) (A) (A) (A) (A) (A) (A)
                 (A) (A) (A) (A) (A) (A) (A) (A) (A) (A) (A) (A)
                 (A) (A) (A) (A) (A) (A) (A) (A) (A) (A) (A) (A)
                 (A) (A) (A) (A) (A) (A) (A) (A) (A) (A) (A) (A)
                 (A) (A) (A) (A) (A) (A) (A) (A) (A) (A) (A) (A)
                 (A) (A) (A) (A) (A) (A) (A) (A) (A) (A) (A) (A)
                 (A) (A) (A) (A) (A) (A) (A) (A) (A) (A) (A) (A)
                 (A) (A) (A) (A) (A) (A) (A) (A) (A) (A) (A) (A)
                 (A) (A) (A) (A) (A) (A) (A) (A) (A) (A) (A) (A)
                 (A) (A) (A) (A) (A) (A) (A) (A) (A) (A) (A) (A)
                 (A) (A) (A) (A) (A) (A) (A) (A) (A) (A) (A) (A)
                 (A) (A) (A) (A) (A) (A) (A) (A) (A) (A) (A) (A)
                 (A) (A) (A) (A) (A) (A) (A) (A) (A) (A) (A) (A)
                 (A) (A) (A) (A) (A) (A) (A) (A) (A) (A) (A) (A)
                 (A) (A) (A) (A) (A) (A) (A) (A) (A) (A) (A) (A)
                 (A) (A) (A) (A) (A) (A) (A) (A) (A) (A) (A) (A)
                 (A) (A) (A) (A) (A) (A) (A) (A) (A) (A) (A) (A)
                 (A) (A) (A) (A) (A) (A) (A) (A) (A) (A) (A) (A)
                 (A) (A) (A) (A) (A) (A) (A) (A) (A) (A) (A) (A)
                 (A) (A) (A) (A) (A) (A) (A) (A) (A) (A) (A) (A)
                 (A) (A) (A) (A) (A) (A) (A) (A) (A) (A) (A) (A)
                 (A) (A) (A) (A) (A) (A) (A) (A) (A) (A) (A) (A)
                 (A) (A) (A) (A) (A) (A) (A) (A) (A) (A) (A) (A)
                 (A) (A) (A) (A) (A) (A) (A) (A) (A) (A) (A) (A)
                 (A) (A) (A) (A) (A) (A) (A) (A) (A) (A) (A) (A)
                 (A) (A) (A) (A) (A) (A) (A) (A) (A) (A) (A) (A)
                 (A) (A) (A) (A) (A) (A) (A) (A) (A) (A) (A) (A)
                 (A) (A) (A) (A) (A) (A) (A) (A) (A) (A) (A) (A)
                 (A) (A) (A) (A) (A)
 The electronic state is 1-A.
 Alpha  occ. eigenvalues --  -66.13986 -19.20459 -14.37222 -14.37045 -10.31251
 Alpha  occ. eigenvalues --  -10.27658 -10.26510 -10.26350 -10.25362 -10.23770
 Alpha  occ. eigenvalues --  -10.23009 -10.20445 -10.19767 -10.19542 -10.18768
 Alpha  occ. eigenvalues --  -10.18596 -10.18244 -10.17920 -10.17424  -5.28379
 Alpha  occ. eigenvalues --   -3.64345  -3.64232  -3.64185  -1.08143  -0.94727
 Alpha  occ. eigenvalues --   -0.93264  -0.87620  -0.81728  -0.81028  -0.80047
 Alpha  occ. eigenvalues --   -0.72814  -0.71223  -0.69593  -0.69283  -0.68661
 Alpha  occ. eigenvalues --   -0.65767  -0.64177  -0.59812  -0.56742  -0.55739
 Alpha  occ. eigenvalues --   -0.54427  -0.51605  -0.49933  -0.48252  -0.47168
 Alpha  occ. eigenvalues --   -0.46066  -0.44519  -0.44400  -0.43882  -0.43114
 Alpha  occ. eigenvalues --   -0.41915  -0.41121  -0.40979  -0.40754  -0.40088
 Alpha  occ. eigenvalues --   -0.39710  -0.39496  -0.39242  -0.39091  -0.38740
 Alpha  occ. eigenvalues --   -0.37392  -0.37123  -0.36876  -0.36785  -0.35946
 Alpha  occ. eigenvalues --   -0.35746  -0.34757  -0.34063  -0.33964  -0.33021
 Alpha  occ. eigenvalues --   -0.31572  -0.30465  -0.28079  -0.23005
 Alpha virt. eigenvalues --   -0.06656  -0.02767  -0.02208  -0.01483  -0.00538
 Alpha virt. eigenvalues --    0.00174   0.00372   0.00751   0.01230   0.01828
 Alpha virt. eigenvalues --    0.02429   0.02711   0.02943   0.03514   0.03845
 Alpha virt. eigenvalues --    0.04197   0.04643   0.05160   0.05280   0.06028
 Alpha virt. eigenvalues --    0.06284   0.06323   0.06526   0.06763   0.06918
 Alpha virt. eigenvalues --    0.07519   0.07732   0.07849   0.08497   0.08578
 Alpha virt. eigenvalues --    0.08778   0.09179   0.09855   0.10044   0.10121
 Alpha virt. eigenvalues --    0.10588   0.10782   0.11181   0.11200   0.11724
 Alpha virt. eigenvalues --    0.11817   0.12369   0.12759   0.13004   0.13152
 Alpha virt. eigenvalues --    0.13669   0.14385   0.14828   0.15074   0.15207
 Alpha virt. eigenvalues --    0.15320   0.15514   0.16119   0.16655   0.16973
 Alpha virt. eigenvalues --    0.17424   0.17619   0.17746   0.18276   0.18373
 Alpha virt. eigenvalues --    0.19075   0.19478   0.19805   0.19933   0.20269
 Alpha virt. eigenvalues --    0.20581   0.20735   0.20779   0.21267   0.21415
 Alpha virt. eigenvalues --    0.21772   0.21919   0.22253   0.22862   0.23057
 Alpha virt. eigenvalues --    0.23800   0.24079   0.24161   0.24439   0.24701
 Alpha virt. eigenvalues --    0.24800   0.25465   0.25850   0.26205   0.26405
 Alpha virt. eigenvalues --    0.26853   0.27056   0.27419   0.27735   0.28156
 Alpha virt. eigenvalues --    0.28258   0.28659   0.29023   0.29353   0.29968
 Alpha virt. eigenvalues --    0.30370   0.30637   0.31459   0.31978   0.32082
 Alpha virt. eigenvalues --    0.32529   0.33052   0.34266   0.34674   0.35566
 Alpha virt. eigenvalues --    0.36082   0.36568   0.37105   0.37961   0.38332
 Alpha virt. eigenvalues --    0.39119   0.39367   0.41187   0.41923   0.43160
 Alpha virt. eigenvalues --    0.44674   0.44760   0.46653   0.47181   0.47868
 Alpha virt. eigenvalues --    0.49407   0.51707   0.54598   0.55392   0.56141
 Alpha virt. eigenvalues --    0.56933   0.57545   0.61698   0.65507   0.67335
 Alpha virt. eigenvalues --    0.67459   0.68165   0.69237   0.69868   0.70551
 Alpha virt. eigenvalues --    0.71272   0.71659   0.73077   0.73479   0.73739
 Alpha virt. eigenvalues --    0.74655   0.75596   0.76071   0.76525   0.77201
 Alpha virt. eigenvalues --    0.78255   0.78474   0.79035   0.80534   0.80891
 Alpha virt. eigenvalues --    0.81721   0.82130   0.82529   0.83936   0.84230
 Alpha virt. eigenvalues --    0.84598   0.84752   0.85192   0.85558   0.86574
 Alpha virt. eigenvalues --    0.87237   0.87573   0.88353   0.89027   0.89596
 Alpha virt. eigenvalues --    0.90479   0.91055   0.92094   0.92682   0.93507
 Alpha virt. eigenvalues --    0.94165   0.95266   0.95543   0.96286   0.97013
 Alpha virt. eigenvalues --    0.97453   0.98062   0.99806   0.99912   1.01151
 Alpha virt. eigenvalues --    1.01410   1.01951   1.02384   1.02899   1.03950
 Alpha virt. eigenvalues --    1.03985   1.04492   1.04840   1.05591   1.06185
 Alpha virt. eigenvalues --    1.06750   1.06830   1.07548   1.08866   1.09839
 Alpha virt. eigenvalues --    1.10347   1.12395   1.15216   1.15944   1.17045
 Alpha virt. eigenvalues --    1.17421   1.17859   1.20117   1.20443   1.20538
 Alpha virt. eigenvalues --    1.22394   1.23044   1.24767   1.26479   1.26632
 Alpha virt. eigenvalues --    1.30502   1.31375   1.32224   1.33624   1.33795
 Alpha virt. eigenvalues --    1.34994   1.37188   1.38896   1.40669   1.43752
 Alpha virt. eigenvalues --    1.45176   1.45692   1.47289   1.47742   1.47908
 Alpha virt. eigenvalues --    1.48744   1.49912   1.51620   1.52135   1.52449
 Alpha virt. eigenvalues --    1.54772   1.55422   1.56740   1.58135   1.59702
 Alpha virt. eigenvalues --    1.63380   1.64250   1.65135   1.65396   1.68293
 Alpha virt. eigenvalues --    1.70810   1.71229   1.71496   1.72963   1.75457
 Alpha virt. eigenvalues --    1.76587   1.76800   1.78300   1.79605   1.81057
 Alpha virt. eigenvalues --    1.83269   1.85385   1.86942   1.87950   1.88461
 Alpha virt. eigenvalues --    1.89389   1.90377   1.90527   1.92338   1.93392
 Alpha virt. eigenvalues --    1.94132   1.94638   1.95743   1.96094   1.97514
 Alpha virt. eigenvalues --    1.98514   1.99539   2.02091   2.03417   2.04084
 Alpha virt. eigenvalues --    2.04154   2.04728   2.05881   2.06324   2.08025
 Alpha virt. eigenvalues --    2.08623   2.09270   2.09733   2.10406   2.11039
 Alpha virt. eigenvalues --    2.11661   2.12254   2.12954   2.13260   2.13415
 Alpha virt. eigenvalues --    2.14056   2.15016   2.15349   2.15612   2.16906
 Alpha virt. eigenvalues --    2.17947   2.18794   2.19115   2.19889   2.21486
 Alpha virt. eigenvalues --    2.22552   2.23010   2.25829   2.27645   2.29780
 Alpha virt. eigenvalues --    2.31346   2.33055   2.34560   2.35982   2.36668
 Alpha virt. eigenvalues --    2.36980   2.37406   2.38782   2.39135   2.40647
 Alpha virt. eigenvalues --    2.41228   2.42077   2.45047   2.48197   2.51521
 Alpha virt. eigenvalues --    2.52463   2.53572   2.54827   2.55026   2.57636
 Alpha virt. eigenvalues --    2.59719   2.61230   2.62431   2.63066   2.65089
 Alpha virt. eigenvalues --    2.66111   2.67434   2.68808   2.70530   2.71125
 Alpha virt. eigenvalues --    2.71538   2.73473   2.74745   2.75261   2.75409
 Alpha virt. eigenvalues --    2.77894   2.80389   2.81122   2.83150   2.83616
 Alpha virt. eigenvalues --    2.84317   2.84641   2.85902   2.86145   2.86389
 Alpha virt. eigenvalues --    2.87164   2.88511   2.91290   2.91707   2.94255
 Alpha virt. eigenvalues --    2.95256   2.95359   2.96149   3.00704   3.01491
 Alpha virt. eigenvalues --    3.04010   3.14526   3.15329   3.17986   3.19094
 Alpha virt. eigenvalues --    3.24326   3.25126   3.26811   3.27775   3.28723
 Alpha virt. eigenvalues --    3.29395   3.29660   3.33351   3.40542   3.42314
 Alpha virt. eigenvalues --    3.44008   3.44706   3.45322   3.46277   3.46985
 Alpha virt. eigenvalues --    3.47142   3.47851   3.48365   3.49443   3.51291
 Alpha virt. eigenvalues --    3.52683   3.53495   3.65701   4.22481   4.22961
 Alpha virt. eigenvalues --    4.35025   4.37012   4.40632   4.41854   4.46955
 Alpha virt. eigenvalues --    4.47516   4.49882   4.50808   4.52848   4.59836
 Alpha virt. eigenvalues --    4.62402   4.64151   4.68058   4.71419   4.79175
 Alpha virt. eigenvalues --    4.99700
          Condensed to atoms (all electrons):
               1          2          3          4          5          6
     1  C    6.433266  -0.801130  -0.175873  -0.140676  -0.460282  -0.030264
     2  C   -0.801130   9.801804  -0.944874  -0.928828   1.327332  -0.187121
     3  C   -0.175873  -0.944874   6.685598  -0.287740  -0.613500   0.085028
     4  C   -0.140676  -0.928828  -0.287740   6.554486  -0.226614   0.023879
     5  Si  -0.460282   1.327332  -0.613500  -0.226614  14.298202   0.036404
     6  C   -0.030264  -0.187121   0.085028   0.023879   0.036404   5.447907
     7  C    0.114999  -0.257581  -0.038410   0.088546   0.034833  -0.018646
     8  C    0.184199  -1.217809   0.369189   0.030222  -1.528286   0.115627
     9  C   -0.083174   0.253940   0.054399  -0.064271   0.331463  -0.015241
    10  C    0.023117   0.149900   0.023937   0.006525  -0.053344   0.002499
    11  C   -0.026672   0.011283   0.006988   0.002501  -0.018919  -0.003339
    12  C   -0.002828   0.009846   0.000576   0.001061  -0.060034  -0.000218
    13  C   -0.000684  -0.000649   0.001983  -0.000839  -0.002037   0.000474
    14  N    0.000029   0.000120  -0.000006   0.000012  -0.001673  -0.000021
    15  C    0.001818  -0.001072  -0.003001   0.000829   0.002108  -0.000469
    16  N   -0.000005  -0.000140   0.000112  -0.000009  -0.000193   0.000018
    17  C    0.096585  -0.258981  -0.014666  -0.008532   0.033966  -0.009253
    18  C    0.010826   0.056813  -0.026513  -0.002702  -0.064730  -0.004879
    19  O   -0.033820   0.076350  -0.047297  -0.007305   0.095013  -0.011027
    20  H    0.456408  -0.072380   0.016901  -0.038449  -0.030777  -0.000317
    21  H    0.471152  -0.139700   0.013765   0.000681  -0.007134  -0.000328
    22  H    0.489046  -0.112980  -0.028955   0.019653  -0.018422  -0.001112
    23  H    0.013153  -0.080534   0.451815  -0.040004  -0.002702  -0.000424
    24  H    0.012617  -0.154202   0.492218   0.014983  -0.027584   0.003898
    25  H   -0.012663  -0.119430   0.476805   0.006901  -0.024622   0.000055
    26  H    0.000629  -0.152575   0.009972   0.478853   0.001560   0.002947
    27  H   -0.031163  -0.112701   0.012400   0.482740  -0.005545  -0.000664
    28  H    0.004685  -0.101639  -0.033242   0.489129  -0.008091   0.000288
    29  H   -0.002745   0.013062   0.005231   0.002513  -0.055278   0.421630
    30  H    0.001765  -0.031359   0.002444   0.017652  -0.048526   0.414887
    31  H   -0.000444  -0.012531   0.020778  -0.006946  -0.066745   0.416751
    32  H    0.002797  -0.021096   0.000548   0.012638  -0.057097  -0.007121
    33  H    0.024775  -0.021225  -0.004281   0.000952  -0.045598   0.003442
    34  H    0.000819   0.013388  -0.002115   0.004444  -0.036391  -0.002924
    35  H   -0.000866   0.001053  -0.002830   0.000454   0.045186  -0.014203
    36  H    0.000083  -0.000247  -0.000155  -0.000042   0.000213   0.000797
    37  H   -0.000007  -0.000012  -0.000004  -0.000000   0.000327   0.000009
    38  H   -0.003249   0.006282  -0.000763  -0.000020   0.003858  -0.000080
    39  H   -0.003514   0.005402  -0.000894   0.000247   0.002159   0.000048
    40  H   -0.000160   0.000686  -0.000125  -0.000092  -0.005065   0.000199
    41  H   -0.000468   0.001052  -0.000646   0.000016   0.000563  -0.000014
               7          8          9         10         11         12
     1  C    0.114999   0.184199  -0.083174   0.023117  -0.026672  -0.002828
     2  C   -0.257581  -1.217809   0.253940   0.149900   0.011283   0.009846
     3  C   -0.038410   0.369189   0.054399   0.023937   0.006988   0.000576
     4  C    0.088546   0.030222  -0.064271   0.006525   0.002501   0.001061
     5  Si   0.034833  -1.528286   0.331463  -0.053344  -0.018919  -0.060034
     6  C   -0.018646   0.115627  -0.015241   0.002499  -0.003339  -0.000218
     7  C    5.485174   0.158576  -0.246528   0.036002  -0.023005  -0.002385
     8  C    0.158576  13.843737  -4.403029   1.185257  -1.252940  -0.540616
     9  C   -0.246528  -4.403029  11.739292  -2.505692   0.444740   0.597430
    10  C    0.036002   1.185257  -2.505692  14.440183  -4.404832  -0.426042
    11  C   -0.023005  -1.252940   0.444740  -4.404832  13.367642  -1.409351
    12  C   -0.002385  -0.540616   0.597430  -0.426042  -1.409351   8.379276
    13  C   -0.005016   0.115974  -0.115242   0.599151  -0.620833  -0.215228
    14  N    0.000247  -0.008250   0.004338  -0.025870   0.047700  -0.037597
    15  C    0.004951   0.076609  -0.059429   0.138542   0.181629  -0.834327
    16  N   -0.000064  -0.000275   0.000147  -0.014672   0.013940  -0.038282
    17  C    0.052206   0.021631  -0.591594  -3.756674  -0.219178  -0.595344
    18  C   -0.001120  -0.112618   0.111931   0.215899   0.269086   0.243940
    19  O   -0.007452   0.048096  -0.036690  -0.125716   0.150606   0.030646
    20  H    0.002013   0.016768   0.002468  -0.000370   0.000691  -0.000022
    21  H    0.002326  -0.005560  -0.000393   0.001109  -0.001093  -0.000042
    22  H   -0.000113  -0.009116   0.008200  -0.005130  -0.002165   0.000361
    23  H   -0.000113   0.024225  -0.015602  -0.000745   0.000073   0.000044
    24  H    0.000147  -0.016712   0.011177   0.002181  -0.000347  -0.000014
    25  H   -0.001997   0.030990  -0.005702  -0.005059   0.004668   0.000279
    26  H    0.002752  -0.007884   0.001879   0.000100   0.000024   0.000001
    27  H   -0.000354   0.007521  -0.003221  -0.000175   0.000002   0.000000
    28  H    0.000584  -0.002823   0.000928  -0.000074   0.000071   0.000002
    29  H   -0.006060  -0.065478   0.027728   0.025704  -0.002183   0.000249
    30  H   -0.004016   0.042162  -0.024415  -0.003111  -0.000561  -0.000041
    31  H    0.004024   0.005922   0.000078   0.007832  -0.001850  -0.000027
    32  H    0.417416   0.017471  -0.004650  -0.000166  -0.000157  -0.000002
    33  H    0.426903  -0.026477   0.008093   0.002031  -0.001821  -0.000060
    34  H    0.411556  -0.046416   0.020975   0.005950   0.000030   0.000678
    35  H   -0.001380  -0.072928   0.317372  -0.034175   0.035016  -0.004217
    36  H    0.000200   0.071726  -0.003935   0.327245  -0.030017  -0.105101
    37  H    0.000007   0.014116   0.020230   0.320625  -0.391699   0.406701
    38  H   -0.001111   0.013694  -0.012707   0.062884   0.047740   0.035480
    39  H   -0.000123   0.024351  -0.017152   0.031160   0.023702  -0.001329
    40  H   -0.000133  -0.001066   0.019634   0.009250   0.058800   0.028091
    41  H   -0.000051  -0.005535   0.011702   0.003910   0.047204   0.003849
              13         14         15         16         17         18
     1  C   -0.000684   0.000029   0.001818  -0.000005   0.096585   0.010826
     2  C   -0.000649   0.000120  -0.001072  -0.000140  -0.258981   0.056813
     3  C    0.001983  -0.000006  -0.003001   0.000112  -0.014666  -0.026513
     4  C   -0.000839   0.000012   0.000829  -0.000009  -0.008532  -0.002702
     5  Si  -0.002037  -0.001673   0.002108  -0.000193   0.033966  -0.064730
     6  C    0.000474  -0.000021  -0.000469   0.000018  -0.009253  -0.004879
     7  C   -0.005016   0.000247   0.004951  -0.000064   0.052206  -0.001120
     8  C    0.115974  -0.008250   0.076609  -0.000275   0.021631  -0.112618
     9  C   -0.115242   0.004338  -0.059429   0.000147  -0.591594   0.111931
    10  C    0.599151  -0.025870   0.138542  -0.014672  -3.756674   0.215899
    11  C   -0.620833   0.047700   0.181629   0.013940  -0.219178   0.269086
    12  C   -0.215228  -0.037597  -0.834327  -0.038282  -0.595344   0.243940
    13  C    7.445150   0.584540  -1.501246  -0.015810  -0.334527  -0.018295
    14  N    0.584540   6.911224  -0.015282   0.000054  -0.050580   0.003404
    15  C   -1.501246  -0.015282   7.415050   0.552668  -0.035609   0.000253
    16  N   -0.015810   0.000054   0.552668   6.945890   0.003019  -0.022486
    17  C   -0.334527  -0.050580  -0.035609   0.003019  13.343342  -1.503333
    18  C   -0.018295   0.003404   0.000253  -0.022486  -1.503333   6.013951
    19  O   -0.021715   0.001160  -0.002238  -0.000173  -0.163661   0.006621
    20  H    0.000037  -0.000000  -0.000016   0.000000  -0.000829  -0.000298
    21  H   -0.000003   0.000000   0.000000  -0.000000  -0.000461   0.000426
    22  H    0.000014   0.000001  -0.000053   0.000000   0.014692  -0.003750
    23  H    0.000002  -0.000000  -0.000002  -0.000000  -0.000408   0.000610
    24  H   -0.000003   0.000000   0.000004  -0.000000  -0.002039   0.001051
    25  H   -0.000031   0.000000   0.000121  -0.000002   0.001263  -0.003881
    26  H   -0.000000   0.000000  -0.000000  -0.000000  -0.000460   0.000080
    27  H    0.000000  -0.000000  -0.000000   0.000000   0.000232  -0.000112
    28  H   -0.000000  -0.000000   0.000000  -0.000000  -0.000041   0.000004
    29  H   -0.000041   0.000000   0.000021  -0.000000  -0.002815   0.000106
    30  H    0.000002  -0.000000  -0.000000   0.000000   0.000042  -0.000030
    31  H    0.000019  -0.000000  -0.000022   0.000000   0.000295  -0.000180
    32  H   -0.000014  -0.000000   0.000005  -0.000000   0.001034   0.000134
    33  H   -0.000083  -0.000001   0.000031  -0.000000   0.001770   0.000614
    34  H   -0.000331   0.000012   0.000037  -0.000000  -0.007094   0.000306
    35  H   -0.000526   0.000015  -0.001175   0.000011   0.027157   0.000915
    36  H    0.023529  -0.000707   0.017982  -0.000236  -0.011657   0.003269
    37  H    0.016719  -0.008211  -0.020046  -0.006528  -0.079168   0.000446
    38  H    0.006115   0.003275  -0.027684  -0.001935   0.217961  -0.036377
    39  H    0.004456  -0.000074  -0.003897  -0.000152  -0.162023   0.453066
    40  H   -0.000921   0.000036  -0.003652   0.000001  -0.182091   0.431252
    41  H   -0.002938  -0.000050   0.004101   0.000786  -0.175043   0.458308
              19         20         21         22         23         24
     1  C   -0.033820   0.456408   0.471152   0.489046   0.013153   0.012617
     2  C    0.076350  -0.072380  -0.139700  -0.112980  -0.080534  -0.154202
     3  C   -0.047297   0.016901   0.013765  -0.028955   0.451815   0.492218
     4  C   -0.007305  -0.038449   0.000681   0.019653  -0.040004   0.014983
     5  Si   0.095013  -0.030777  -0.007134  -0.018422  -0.002702  -0.027584
     6  C   -0.011027  -0.000317  -0.000328  -0.001112  -0.000424   0.003898
     7  C   -0.007452   0.002013   0.002326  -0.000113  -0.000113   0.000147
     8  C    0.048096   0.016768  -0.005560  -0.009116   0.024225  -0.016712
     9  C   -0.036690   0.002468  -0.000393   0.008200  -0.015602   0.011177
    10  C   -0.125716  -0.000370   0.001109  -0.005130  -0.000745   0.002181
    11  C    0.150606   0.000691  -0.001093  -0.002165   0.000073  -0.000347
    12  C    0.030646  -0.000022  -0.000042   0.000361   0.000044  -0.000014
    13  C   -0.021715   0.000037  -0.000003   0.000014   0.000002  -0.000003
    14  N    0.001160  -0.000000   0.000000   0.000001  -0.000000   0.000000
    15  C   -0.002238  -0.000016   0.000000  -0.000053  -0.000002   0.000004
    16  N   -0.000173   0.000000  -0.000000   0.000000  -0.000000  -0.000000
    17  C   -0.163661  -0.000829  -0.000461   0.014692  -0.000408  -0.002039
    18  C    0.006621  -0.000298   0.000426  -0.003750   0.000610   0.001051
    19  O    8.281542  -0.001351   0.000341   0.000936  -0.000115   0.000057
    20  H   -0.001351   0.556846  -0.029597  -0.028250  -0.000156   0.000048
    21  H    0.000341  -0.029597   0.571452  -0.029545   0.000068   0.005562
    22  H    0.000936  -0.028250  -0.029545   0.544864   0.000053  -0.000370
    23  H   -0.000115  -0.000156   0.000068   0.000053   0.564620  -0.029806
    24  H    0.000057   0.000048   0.005562  -0.000370  -0.029806   0.564788
    25  H    0.000100   0.000056  -0.000495   0.002961  -0.029456  -0.028775
    26  H   -0.000037  -0.000479   0.005653   0.000056  -0.000316   0.005466
    27  H   -0.000020   0.002709  -0.000315   0.000053   0.000057   0.000030
    28  H    0.000007   0.000065   0.000038  -0.000155   0.002746  -0.000394
    29  H   -0.000582  -0.000001   0.000000  -0.000001   0.000007   0.000001
    30  H    0.000003   0.000001  -0.000000   0.000000   0.000032  -0.000002
    31  H   -0.000250   0.000000  -0.000000  -0.000000   0.000629  -0.000005
    32  H    0.000646  -0.000000  -0.000003   0.000032  -0.000001  -0.000000
    33  H   -0.000242  -0.000266   0.000018  -0.000028   0.000000   0.000000
    34  H   -0.001802   0.000033   0.000001  -0.000008  -0.000001   0.000000
    35  H    0.011335  -0.000000   0.000000  -0.000002  -0.000020   0.000000
    36  H    0.000214  -0.000000   0.000000  -0.000000   0.000000   0.000000
    37  H   -0.000572   0.000000   0.000000  -0.000000   0.000000  -0.000000
    38  H   -0.051892  -0.000000   0.000000  -0.000050  -0.000000   0.000000
    39  H    0.000791  -0.000005   0.000006   0.000877   0.000001  -0.000002
    40  H   -0.003416   0.000000  -0.000001  -0.000002  -0.000004   0.000000
    41  H    0.011550  -0.000000  -0.000000   0.000012  -0.000000  -0.000000
              25         26         27         28         29         30
     1  C   -0.012663   0.000629  -0.031163   0.004685  -0.002745   0.001765
     2  C   -0.119430  -0.152575  -0.112701  -0.101639   0.013062  -0.031359
     3  C    0.476805   0.009972   0.012400  -0.033242   0.005231   0.002444
     4  C    0.006901   0.478853   0.482740   0.489129   0.002513   0.017652
     5  Si  -0.024622   0.001560  -0.005545  -0.008091  -0.055278  -0.048526
     6  C    0.000055   0.002947  -0.000664   0.000288   0.421630   0.414887
     7  C   -0.001997   0.002752  -0.000354   0.000584  -0.006060  -0.004016
     8  C    0.030990  -0.007884   0.007521  -0.002823  -0.065478   0.042162
     9  C   -0.005702   0.001879  -0.003221   0.000928   0.027728  -0.024415
    10  C   -0.005059   0.000100  -0.000175  -0.000074   0.025704  -0.003111
    11  C    0.004668   0.000024   0.000002   0.000071  -0.002183  -0.000561
    12  C    0.000279   0.000001   0.000000   0.000002   0.000249  -0.000041
    13  C   -0.000031  -0.000000   0.000000  -0.000000  -0.000041   0.000002
    14  N    0.000000   0.000000  -0.000000  -0.000000   0.000000  -0.000000
    15  C    0.000121  -0.000000  -0.000000   0.000000   0.000021  -0.000000
    16  N   -0.000002  -0.000000   0.000000  -0.000000  -0.000000   0.000000
    17  C    0.001263  -0.000460   0.000232  -0.000041  -0.002815   0.000042
    18  C   -0.003881   0.000080  -0.000112   0.000004   0.000106  -0.000030
    19  O    0.000100  -0.000037  -0.000020   0.000007  -0.000582   0.000003
    20  H    0.000056  -0.000479   0.002709   0.000065  -0.000001   0.000001
    21  H   -0.000495   0.005653  -0.000315   0.000038   0.000000  -0.000000
    22  H    0.002961   0.000056   0.000053  -0.000155  -0.000001   0.000000
    23  H   -0.029456  -0.000316   0.000057   0.002746   0.000007   0.000032
    24  H   -0.028775   0.005466   0.000030  -0.000394   0.000001  -0.000002
    25  H    0.553313   0.000033  -0.000159   0.000071  -0.000006   0.000001
    26  H    0.000033   0.561815  -0.029424  -0.029220   0.000000   0.000006
    27  H   -0.000159  -0.029424   0.561004  -0.030233  -0.000010  -0.000048
    28  H    0.000071  -0.029220  -0.030233   0.556958   0.000030   0.000175
    29  H   -0.000006   0.000000  -0.000010   0.000030   0.518396  -0.023573
    30  H    0.000001   0.000006  -0.000048   0.000175  -0.023573   0.514384
    31  H   -0.000031  -0.000002   0.000027   0.000030  -0.025237  -0.024574
    32  H    0.000000  -0.000016   0.000843  -0.000018   0.000034   0.000414
    33  H    0.000002  -0.000001  -0.000010   0.000001   0.000020   0.000017
    34  H   -0.000001   0.000001  -0.000006  -0.000005   0.000586  -0.000004
    35  H   -0.000004   0.000000  -0.000000  -0.000000  -0.000330   0.000076
    36  H   -0.000000   0.000000   0.000000   0.000000  -0.000000  -0.000000
    37  H   -0.000000  -0.000000   0.000000   0.000000  -0.000000  -0.000000
    38  H    0.000001   0.000000  -0.000000  -0.000000   0.000000  -0.000000
    39  H    0.000100   0.000000  -0.000000  -0.000000   0.000000   0.000000
    40  H    0.000622   0.000000  -0.000000  -0.000000  -0.000000  -0.000000
    41  H    0.000016  -0.000000  -0.000000  -0.000000  -0.000000   0.000000
              31         32         33         34         35         36
     1  C   -0.000444   0.002797   0.024775   0.000819  -0.000866   0.000083
     2  C   -0.012531  -0.021096  -0.021225   0.013388   0.001053  -0.000247
     3  C    0.020778   0.000548  -0.004281  -0.002115  -0.002830  -0.000155
     4  C   -0.006946   0.012638   0.000952   0.004444   0.000454  -0.000042
     5  Si  -0.066745  -0.057097  -0.045598  -0.036391   0.045186   0.000213
     6  C    0.416751  -0.007121   0.003442  -0.002924  -0.014203   0.000797
     7  C    0.004024   0.417416   0.426903   0.411556  -0.001380   0.000200
     8  C    0.005922   0.017471  -0.026477  -0.046416  -0.072928   0.071726
     9  C    0.000078  -0.004650   0.008093   0.020975   0.317372  -0.003935
    10  C    0.007832  -0.000166   0.002031   0.005950  -0.034175   0.327245
    11  C   -0.001850  -0.000157  -0.001821   0.000030   0.035016  -0.030017
    12  C   -0.000027  -0.000002  -0.000060   0.000678  -0.004217  -0.105101
    13  C    0.000019  -0.000014  -0.000083  -0.000331  -0.000526   0.023529
    14  N   -0.000000  -0.000000  -0.000001   0.000012   0.000015  -0.000707
    15  C   -0.000022   0.000005   0.000031   0.000037  -0.001175   0.017982
    16  N    0.000000  -0.000000  -0.000000  -0.000000   0.000011  -0.000236
    17  C    0.000295   0.001034   0.001770  -0.007094   0.027157  -0.011657
    18  C   -0.000180   0.000134   0.000614   0.000306   0.000915   0.003269
    19  O   -0.000250   0.000646  -0.000242  -0.001802   0.011335   0.000214
    20  H    0.000000  -0.000000  -0.000266   0.000033  -0.000000  -0.000000
    21  H   -0.000000  -0.000003   0.000018   0.000001   0.000000   0.000000
    22  H   -0.000000   0.000032  -0.000028  -0.000008  -0.000002  -0.000000
    23  H    0.000629  -0.000001   0.000000  -0.000001  -0.000020   0.000000
    24  H   -0.000005  -0.000000   0.000000   0.000000   0.000000   0.000000
    25  H   -0.000031   0.000000   0.000002  -0.000001  -0.000004  -0.000000
    26  H   -0.000002  -0.000016  -0.000001   0.000001   0.000000   0.000000
    27  H    0.000027   0.000843  -0.000010  -0.000006  -0.000000   0.000000
    28  H    0.000030  -0.000018   0.000001  -0.000005  -0.000000   0.000000
    29  H   -0.025237   0.000034   0.000020   0.000586  -0.000330  -0.000000
    30  H   -0.024574   0.000414   0.000017  -0.000004   0.000076  -0.000000
    31  H    0.516364   0.000009  -0.000014   0.000019  -0.000268  -0.000000
    32  H    0.000009   0.524400  -0.024061  -0.024499  -0.000002  -0.000000
    33  H   -0.000014  -0.024061   0.497829  -0.022585  -0.000002   0.000000
    34  H    0.000019  -0.024499  -0.022585   0.520055  -0.000006   0.000000
    35  H   -0.000268  -0.000002  -0.000002  -0.000006   0.569851  -0.004811
    36  H   -0.000000  -0.000000   0.000000   0.000000  -0.004811   0.582490
    37  H    0.000000  -0.000000   0.000000  -0.000000  -0.000010   0.005056
    38  H    0.000000  -0.000000  -0.000002   0.000001   0.000013  -0.000147
    39  H   -0.000000   0.000000  -0.000000   0.000000  -0.000000   0.000005
    40  H   -0.000000  -0.000000  -0.000000   0.000000  -0.000010  -0.000053
    41  H    0.000000  -0.000000   0.000000  -0.000000  -0.000001  -0.000003
              37         38         39         40         41
     1  C   -0.000007  -0.003249  -0.003514  -0.000160  -0.000468
     2  C   -0.000012   0.006282   0.005402   0.000686   0.001052
     3  C   -0.000004  -0.000763  -0.000894  -0.000125  -0.000646
     4  C   -0.000000  -0.000020   0.000247  -0.000092   0.000016
     5  Si   0.000327   0.003858   0.002159  -0.005065   0.000563
     6  C    0.000009  -0.000080   0.000048   0.000199  -0.000014
     7  C    0.000007  -0.001111  -0.000123  -0.000133  -0.000051
     8  C    0.014116   0.013694   0.024351  -0.001066  -0.005535
     9  C    0.020230  -0.012707  -0.017152   0.019634   0.011702
    10  C    0.320625   0.062884   0.031160   0.009250   0.003910
    11  C   -0.391699   0.047740   0.023702   0.058800   0.047204
    12  C    0.406701   0.035480  -0.001329   0.028091   0.003849
    13  C    0.016719   0.006115   0.004456  -0.000921  -0.002938
    14  N   -0.008211   0.003275  -0.000074   0.000036  -0.000050
    15  C   -0.020046  -0.027684  -0.003897  -0.003652   0.004101
    16  N   -0.006528  -0.001935  -0.000152   0.000001   0.000786
    17  C   -0.079168   0.217961  -0.162023  -0.182091  -0.175043
    18  C    0.000446  -0.036377   0.453066   0.431252   0.458308
    19  O   -0.000572  -0.051892   0.000791  -0.003416   0.011550
    20  H    0.000000  -0.000000  -0.000005   0.000000  -0.000000
    21  H    0.000000   0.000000   0.000006  -0.000001  -0.000000
    22  H   -0.000000  -0.000050   0.000877  -0.000002   0.000012
    23  H    0.000000  -0.000000   0.000001  -0.000004  -0.000000
    24  H   -0.000000   0.000000  -0.000002   0.000000  -0.000000
    25  H   -0.000000   0.000001   0.000100   0.000622   0.000016
    26  H   -0.000000   0.000000   0.000000   0.000000  -0.000000
    27  H    0.000000  -0.000000  -0.000000  -0.000000  -0.000000
    28  H    0.000000  -0.000000  -0.000000  -0.000000  -0.000000
    29  H   -0.000000   0.000000   0.000000  -0.000000  -0.000000
    30  H   -0.000000  -0.000000   0.000000  -0.000000   0.000000
    31  H    0.000000   0.000000  -0.000000  -0.000000   0.000000
    32  H   -0.000000  -0.000000   0.000000  -0.000000  -0.000000
    33  H    0.000000  -0.000002  -0.000000  -0.000000   0.000000
    34  H   -0.000000   0.000001   0.000000   0.000000  -0.000000
    35  H   -0.000010   0.000013  -0.000000  -0.000010  -0.000001
    36  H    0.005056  -0.000147   0.000005  -0.000053  -0.000003
    37  H    0.509351  -0.000022   0.000002  -0.000000   0.000000
    38  H   -0.000022   0.592153  -0.004165   0.004853  -0.001883
    39  H    0.000002  -0.004165   0.540067  -0.026416  -0.024140
    40  H   -0.000000   0.004853  -0.026416   0.530965  -0.023221
    41  H    0.000000  -0.001883  -0.024140  -0.023221   0.522969
 Mulliken charges:
               1
     1  C   -0.532082
     2  C    0.002482
     3  C   -0.504795
     4  C   -0.486845
     5  Si   1.256002
     6  C   -0.669120
     7  C   -0.627805
     8  C   -1.094245
     9  C    0.220522
    10  C   -0.259144
    11  C   -0.303173
    12  C    0.534597
    13  C    0.058848
    14  N   -0.407845
    15  C    0.112460
    16  N   -0.415684
    17  C    0.350866
    18  C   -0.482007
    19  O   -0.198641
    20  H    0.148521
    21  H    0.142073
    22  H    0.158395
    23  H    0.142271
    24  H    0.146028
    25  H    0.153956
    26  H    0.148589
    27  H    0.146542
    28  H    0.150124
    29  H    0.169021
    30  H    0.166197
    31  H    0.166351
    32  H    0.160479
    33  H    0.180258
    34  H    0.165296
    35  H    0.129308
    36  H    0.124300
    37  H    0.212690
    38  H    0.147776
    39  H    0.157444
    40  H    0.162037
    41  H    0.167954
 Sum of Mulliken charges =  -0.00000
 Mulliken charges with hydrogens summed into heavy atoms:
               1
     1  C   -0.083093
     2  C    0.002482
     3  C   -0.062540
     4  C   -0.041591
     5  Si   1.256002
     6  C   -0.167551
     7  C   -0.121772
     8  C   -1.094245
     9  C    0.349829
    10  C   -0.134844
    11  C   -0.303173
    12  C    0.747287
    13  C    0.058848
    14  N   -0.407845
    15  C    0.112460
    16  N   -0.415684
    17  C    0.498642
    18  C    0.005428
    19  O   -0.198641
 Electronic spatial extent (au):  <R**2>=           6817.1478
 Charge=             -0.0000 electrons
 Dipole moment (field-independent basis, Debye):
    X=              4.1572    Y=             -1.0452    Z=             -3.0223  Tot=              5.2449
 Quadrupole moment (field-independent basis, Debye-Ang):
   XX=           -143.7087   YY=           -131.5835   ZZ=           -127.8748
   XY=              5.4501   XZ=             10.8463   YZ=              9.6748
 Traceless Quadrupole moment (field-independent basis, Debye-Ang):
   XX=             -9.3197   YY=              2.8054   ZZ=              6.5142
   XY=              5.4501   XZ=             10.8463   YZ=              9.6748
 Octapole moment (field-independent basis, Debye-Ang**2):
  XXX=            158.4976  YYY=             -3.4036  ZZZ=            -14.9357  XYY=             44.4252
  XXY=            -47.9913  XXZ=            -43.7319  XZZ=             19.5927  YZZ=              4.8981
  YYZ=             -6.9259  XYZ=            -37.4424
 Hexadecapole moment (field-independent basis, Debye-Ang**3):
 XXXX=          -8081.8233 YYYY=          -1501.5178 ZZZZ=          -1034.1662 XXXY=            248.2478
 XXXZ=            204.5364 YYYX=             34.9097 YYYZ=             36.6585 ZZZX=             65.8131
 ZZZY=             42.5654 XXYY=          -1671.2384 XXZZ=          -1478.1755 YYZZ=           -439.9501
 XXYZ=            161.5747 YYXZ=             36.3780 ZZXY=            -32.9918
 N-N= 1.555077970337D+03 E-N=-5.581919640309D+03  KE= 1.050445395348D+03
 Unable to Open any file for archive entry.
 1\1\GINC-N1\SP\RB3LYP TD-FC\6-31+G(d,p)\C15H22N2O1Si1\HPCMGAC13\12-Aug
 -2025\0\\# td=(50-50,nstates=3) b3lyp/6-31+g(d,p) geom=connectivity\\T
 itle Card Required\\0,1\C,0,2.759585,-1.51925,-1.569403\C,0,3.22908,-0
 .877335,-0.245079\C,0,2.954715,-1.854894,0.918513\C,0,4.751096,-0.6175
 03,-0.331205\Si,0,2.318886,0.794635,0.058326\C,0,3.025521,1.68187,1.57
 3584\C,0,2.421842,1.919396,-1.457491\C,0,0.460028,0.494619,0.394311\C,
 0,-0.210422,0.825758,1.531031\C,0,-1.659288,0.839844,1.516726\C,0,-2.3
 28223,0.244918,0.508594\C,0,-3.835875,0.41013,0.347884\C,0,-4.178388,1
 .117952,-0.906633\N,0,-4.414387,1.69263,-1.88671\C,0,-4.580386,-0.8682
 41,0.420892\N,0,-5.147133,-1.876974,0.507975\C,0,-1.538218,-0.576524,-
 0.48997\C,0,-1.371153,-2.043003,-0.079494\O,0,-0.224622,0.026053,-0.69
 5724\H,0,2.985821,-0.884822,-2.433558\H,0,3.273622,-2.478407,-1.724597
 \H,0,1.68265,-1.713047,-1.573138\H,0,3.285616,-1.452067,1.882946\H,0,3
 .496511,-2.797406,0.75697\H,0,1.8905,-2.099377,1.006075\H,0,5.281142,-
 1.55864,-0.534067\H,0,5.007248,0.077467,-1.139567\H,0,5.155558,-0.2124
 85,0.603161\H,0,2.481573,2.612444,1.769111\H,0,4.075231,1.946519,1.405
 863\H,0,2.981119,1.067494,2.479332\H,0,3.462468,2.098005,-1.750721\H,0
 ,1.896171,1.48544,-2.313567\H,0,1.963631,2.89137,-1.243878\H,0,0.32907
 3,1.214549,2.385586\H,0,-2.186632,1.410425,2.278688\H,0,-4.198778,1.03
 2967,1.176379\H,0,-1.998606,-0.524187,-1.481958\H,0,-0.766221,-2.57233
 2,-0.821892\H,0,-0.886336,-2.121017,0.897857\H,0,-2.347628,-2.532232,-
 0.018205\\Version=ES64L-G16RevC.02\State=1-A\HF=-1059.0805239\RMSD=7.9
 43e-09\PG=C01 [X(C15H22N2O1Si1)]\\@
 The archive entry for this job was punched.


 THERE IS MUCH PLEASURE TO BE GAINED FROM USELESS KNOWLEDGE

                                       -- BERTRAND RUSSELL
 Job cpu time:       0 days  1 hours 48 minutes 30.3 seconds.
 Elapsed time:       0 days  0 hours 13 minutes 46.5 seconds.
 File lengths (MBytes):  RWF=   1241 Int=      0 D2E=      0 Chk=     58 Scr=      2
 Normal termination of Gaussian 16 at Tue Aug 12 16:46:44 2025.
