 Entering Gaussian System, Link 0=g16
 Input=M961e.gjf
 Output=M961e.log
 Initial command:
 /hpc/softwares/Gaussian/g16/l1.exe "/hpc/home/hpcmgac13/pbs.13686.admin1.x8z/Gau-697296.inp" -scrdir="/hpc/home/hpcmgac13/pbs.13686.admin1.x8z/"
 Default linda workers: n1
 Default is to use   8 SMP processors on each worker.
 Entering Link 1 = /hpc/softwares/Gaussian/g16/l1.exe PID=    697297.
  
 Copyright (c) 1988-2021, Gaussian, Inc.  All Rights Reserved.
  
 This is part of the Gaussian(R) 16 program.  It is based on
 the Gaussian(R) 09 system (copyright 2009, Gaussian, Inc.),
 the Gaussian(R) 03 system (copyright 2003, Gaussian, Inc.),
 the Gaussian(R) 98 system (copyright 1998, Gaussian, Inc.),
 the Gaussian(R) 94 system (copyright 1995, Gaussian, Inc.),
 the Gaussian 92(TM) system (copyright 1992, Gaussian, Inc.),
 the Gaussian 90(TM) system (copyright 1990, Gaussian, Inc.),
 the Gaussian 88(TM) system (copyright 1988, Gaussian, Inc.),
 the Gaussian 86(TM) system (copyright 1986, Carnegie Mellon
 University), and the Gaussian 82(TM) system (copyright 1983,
 Carnegie Mellon University). Gaussian is a federally registered
 trademark of Gaussian, Inc.
  
 This software contains proprietary and confidential information,
 including trade secrets, belonging to Gaussian, Inc.
  
 This software is provided under written license and may be
 used, copied, transmitted, or stored only in accord with that
 written license.
  
 The following legend is applicable only to US Government
 contracts under FAR:
  
                    RESTRICTED RIGHTS LEGEND
  
 Use, reproduction and disclosure by the US Government is
 subject to restrictions as set forth in subparagraphs (a)
 and (c) of the Commercial Computer Software - Restricted
 Rights clause in FAR 52.227-19.
  
 Gaussian, Inc.
 340 Quinnipiac St., Bldg. 40, Wallingford CT 06492
  
  
 ---------------------------------------------------------------
 Warning -- This program may not be used in any manner that
 competes with the business of Gaussian, Inc. or will provide
 assistance to any competitor of Gaussian, Inc.  The licensee
 of this program is prohibited from giving any competitor of
 Gaussian, Inc. access to this program.  By using this program,
 the user acknowledges that Gaussian, Inc. is engaged in the
 business of creating and licensing software in the field of
 computational chemistry and represents and warrants to the
 licensee that it is not a competitor of Gaussian, Inc. and that
 it will not use this program in any manner prohibited above.
 ---------------------------------------------------------------
  

 Cite this work as:
 Gaussian 16, Revision C.02,
 M. J. Frisch, G. W. Trucks, H. B. Schlegel, G. E. Scuseria, 
 M. A. Robb, J. R. Cheeseman, G. Scalmani, V. Barone, 
 G. A. Petersson, H. Nakatsuji, X. Li, M. Caricato, A. V. Marenich, 
 J. Bloino, B. G. Janesko, R. Gomperts, B. Mennucci, H. P. Hratchian, 
 J. V. Ortiz, A. F. Izmaylov, J. L. Sonnenberg, D. Williams-Young, 
 F. Ding, F. Lipparini, F. Egidi, J. Goings, B. Peng, A. Petrone, 
 T. Henderson, D. Ranasinghe, V. G. Zakrzewski, J. Gao, N. Rega, 
 G. Zheng, W. Liang, M. Hada, M. Ehara, K. Toyota, R. Fukuda, 
 J. Hasegawa, M. Ishida, T. Nakajima, Y. Honda, O. Kitao, H. Nakai, 
 T. Vreven, K. Throssell, J. A. Montgomery, Jr., J. E. Peralta, 
 F. Ogliaro, M. J. Bearpark, J. J. Heyd, E. N. Brothers, K. N. Kudin, 
 V. N. Staroverov, T. A. Keith, R. Kobayashi, J. Normand, 
 K. Raghavachari, A. P. Rendell, J. C. Burant, S. S. Iyengar, 
 J. Tomasi, M. Cossi, J. M. Millam, M. Klene, C. Adamo, R. Cammi, 
 J. W. Ochterski, R. L. Martin, K. Morokuma, O. Farkas, 
 J. B. Foresman, and D. J. Fox, Gaussian, Inc., Wallingford CT, 2019.
 
 ******************************************
 Gaussian 16:  ES64L-G16RevC.02  7-Dec-2021
                29-Aug-2025 
 ******************************************
 SetLPE:    new flags="-opt 'Tsnet.Node.lindarsharg: ssh'  -nodelist 'n1' -env GAUSS_MDEF=2147483648 -env GAUSS_EXEDIR="/hpc/softwares/Gaussian/g16/bsd:/hpc/softwares/Gaussian/g16""
 Will use up to    1 processors via Linda.
 ----------------------------------------------------------
 # td=(50-50,nstates=3) b3lyp/6-31+g(d,p) geom=connectivity
 ----------------------------------------------------------
 1/38=1,57=2,172=1/1;
 2/12=2,17=6,18=5,40=1/2;
 3/5=1,6=6,7=111,11=9,25=1,30=1,74=-5/1,2,3,8;
 4//1;
 5/5=2,38=5/2;
 8/6=1,10=2,108=3/1;
 9/41=3,42=1,48=2,70=2/14;
 6/7=2,8=2,9=2,10=2/1;
 99/5=1,9=1/99;
 -------------------
 Title Card Required
 -------------------
 Symbolic Z-matrix:
 Charge =  0 Multiplicity = 1
 C                     2.717     0.054     3.0839 
 N                     2.7903   -0.1092    1.6248 
 C                     3.961    -0.7828    0.9013 
 C                     3.4663   -1.7816   -0.1492 
 N                     2.6399   -1.0849   -1.2352 
 C                     2.8189   -1.321    -2.675 
 C                     1.6338   -0.1407   -0.6692 
 C                     0.5606    0.4005   -1.2656 
 C                     0.1647    0.1409   -2.4903 
 N                    -0.1844   -0.0881   -3.5704 
 C                    -0.1188    1.348    -0.3198 
 C                    -1.5244    0.9177   -0.0365 
 C                    -2.2912    1.6393    0.7875 
 C                    -3.6968    1.209     1.0707 
 O                    -3.6877   -0.0682    1.6488 
 C                     0.7416    1.2386    0.9056 
 C                     0.5523    1.8997    2.0241 
 N                     0.3854    2.4829    3.0106 
 C                     1.7334    0.3625    0.6841 
 H                     1.7693    0.5721    3.3527 
 H                     2.7429   -0.9468    3.5704 
 H                     3.5828    0.6598    3.4333 
 H                     4.5858   -1.3223    1.6479 
 H                     4.5546    0.0045    0.3852 
 H                     2.8338   -2.5491    0.3506 
 H                     4.3524   -2.2528   -0.6304 
 H                     3.63     -2.0669   -2.8312 
 H                     1.8698   -1.7096   -3.1075 
 H                     3.0922   -0.3656   -3.1763 
 H                    -0.2095    2.3854   -0.7126 
 H                    -1.9263    0.0079   -0.5063 
 H                    -1.8892    2.5491    1.2572 
 H                    -4.1705    1.9304    1.7736 
 H                    -4.2749    1.1818    0.1201 
 H                    -4.5858   -0.3017    1.811 
 
                          Input orientation:                          
 ---------------------------------------------------------------------
 Center     Atomic      Atomic             Coordinates (Angstroms)
 Number     Number       Type             X           Y           Z
 ---------------------------------------------------------------------
      1          6           0        2.717000    0.054000    3.083900
      2          7           0        2.790300   -0.109200    1.624800
      3          6           0        3.961000   -0.782800    0.901300
      4          6           0        3.466300   -1.781600   -0.149200
      5          7           0        2.639900   -1.084900   -1.235200
      6          6           0        2.818900   -1.321000   -2.675000
      7          6           0        1.633800   -0.140700   -0.669200
      8          6           0        0.560600    0.400500   -1.265600
      9          6           0        0.164700    0.140900   -2.490300
     10          7           0       -0.184400   -0.088100   -3.570400
     11          6           0       -0.118800    1.348000   -0.319800
     12          6           0       -1.524400    0.917700   -0.036500
     13          6           0       -2.291200    1.639300    0.787500
     14          6           0       -3.696800    1.209000    1.070700
     15          8           0       -3.687700   -0.068200    1.648800
     16          6           0        0.741600    1.238600    0.905600
     17          6           0        0.552300    1.899700    2.024100
     18          7           0        0.385400    2.482900    3.010600
     19          6           0        1.733400    0.362500    0.684100
     20          1           0        1.769300    0.572100    3.352700
     21          1           0        2.742900   -0.946800    3.570400
     22          1           0        3.582800    0.659800    3.433300
     23          1           0        4.585800   -1.322300    1.647900
     24          1           0        4.554600    0.004500    0.385200
     25          1           0        2.833800   -2.549100    0.350600
     26          1           0        4.352400   -2.252800   -0.630400
     27          1           0        3.630000   -2.066900   -2.831200
     28          1           0        1.869800   -1.709600   -3.107500
     29          1           0        3.092200   -0.365600   -3.176300
     30          1           0       -0.209500    2.385400   -0.712600
     31          1           0       -1.926300    0.007900   -0.506300
     32          1           0       -1.889200    2.549100    1.257200
     33          1           0       -4.170500    1.930400    1.773600
     34          1           0       -4.274900    1.181800    0.120100
     35          1           0       -4.585800   -0.301700    1.811000
 ---------------------------------------------------------------------
                    Distance matrix (angstroms):
                    1          2          3          4          5
     1  C    0.000000
     2  N    1.470027   0.000000
     3  C    2.647926   1.532230   0.000000
     4  C    3.792600   2.530015   1.531627   0.000000
     5  N    4.467400   3.025593   2.530060   1.532228   0.000000
     6  C    5.921650   4.467388   3.792621   2.647819   1.469969
     7  C    3.911137   2.569226   2.880039   2.514162   1.491344
     8  C    4.867060   3.685888   4.202187   3.801447   2.555548
     9  C    6.131353   4.887778   5.173786   4.480772   3.033888
    10  N    7.260718   5.986601   6.137023   5.282060   3.797820
    11  C    4.615341   3.790483   4.761949   4.761979   3.790433
    12  C    5.335949   4.736146   5.819002   5.675034   4.773749
    13  C    5.733123   5.438747   6.705932   6.762305   5.985677
    14  C    6.820838   6.642827   7.914409   7.857598   7.122704
    15  O    6.564650   6.478174   7.718291   7.572863   7.027778
    16  C    3.170248   2.555579   3.801396   4.202166   3.685813
    17  C    3.035739   3.033771   4.480594   5.173645   4.887632
    18  N    3.367683   3.797758   5.281937   6.136957   5.986550
    19  C    2.611835   1.491461   2.514178   2.880017   2.569129
    20  H    1.113021   2.119493   3.556496   4.547858   4.955040
    21  H    1.113083   2.118768   2.938496   3.880158   4.808687
    22  H    1.112962   2.118983   2.938563   4.336855   5.072271
    23  H    2.729233   2.167018   1.113035   2.166519   3.486424
    24  H    3.265303   2.159234   1.112907   2.158734   2.734696
    25  H    3.776334   2.752924   2.166487   1.113064   2.167081
    26  H    4.668178   3.481538   2.158749   1.112994   2.159266
    27  H    6.349818   4.938990   3.961064   2.702095   2.119396
    28  H    6.493186   5.079691   4.615469   3.362370   2.118682
    29  H    6.285455   4.817411   4.189951   3.362788   2.118924
    30  H    5.330407   4.548106   5.480441   5.585053   4.520528
    31  H    5.869574   5.177028   6.104658   5.692975   4.751388
    32  H    5.547922   5.394387   6.741889   7.029531   6.319079
    33  H    7.257783   7.254988   8.616476   8.706137   8.032836
    34  H    7.677416   7.338110   8.502939   8.293397   7.401974
    35  H    7.421434   7.380960   8.608531   8.418361   7.880576
                    6          7          8          9         10
     6  C    0.000000
     7  C    2.611667   0.000000
     8  C    3.170156   1.341771   0.000000
     9  C    3.035794   2.356684   1.313019   0.000000
    10  N    3.367728   3.424263   2.471003   1.157984   0.000000
    11  C    4.615258   2.325922   1.501292   2.499707   3.554305
    12  C    5.553172   3.390390   2.474956   3.078573   3.910970
    13  C    6.845831   4.549286   3.725937   4.361264   5.139437
    14  C    7.930039   5.767516   4.923152   5.360293   5.963156
    15  O    7.912054   5.804890   5.173148   5.658344   6.285981
    16  C    4.866973   2.275628   2.334370   3.615231   4.759431
    17  C    6.131225   3.547779   3.615217   4.860393   5.982684
    18  N    7.260690   4.688572   4.759514   5.982773   7.088320
    19  C    3.911015   1.447256   2.275573   3.547780   4.688472
    20  H    6.404581   4.086823   4.776934   6.074646   7.223719
    21  H    6.257062   4.455795   5.473988   6.675499   7.765145
    22  H    6.466718   4.611931   5.592905   6.858695   7.987676
    23  H    4.670054   3.934391   5.259159   6.229910   7.176957
    24  H    3.759578   3.108684   4.339815   5.249603   6.173611
    25  H    3.265380   2.877565   4.059517   4.736128   5.526327
    26  H    2.720342   3.442856   4.671320   5.169706   5.823408
    27  H    1.112946   3.517002   4.237969   4.122972   4.360242
    28  H    1.113040   2.909029   3.091783   2.590879   2.657683
    29  H    1.113007   2.909134   3.262925   3.049163   3.311862
    30  H    5.172970   3.127430   2.199702   2.887564   3.779663
    31  H    5.383879   3.566922   2.629704   2.885520   3.525924
    32  H    7.253005   4.832967   4.120986   4.905272   5.759070
    33  H    8.900189   6.629225   5.827576   6.338542   6.965750
    34  H    8.024873   6.106123   5.090447   5.254304   5.653727
    35  H    8.717382   6.697816   6.036885   6.423732   6.955387
                   11         12         13         14         15
    11  C    0.000000
    12  C    1.497040   0.000000
    13  C    2.455665   1.337036   0.000000
    14  C    3.841210   2.455620   1.497021   0.000000
    15  O    4.314864   2.914121   2.368038   1.401971   0.000000
    16  C    1.501287   2.474931   3.061435   4.441568   4.677475
    17  C    2.499723   3.085949   3.111668   4.409182   4.689465
    18  N    3.554403   3.921990   3.580227   4.695784   4.995273
    19  C    2.325870   3.382421   4.223543   5.509364   5.523086
    20  H    4.201690   4.738626   4.920043   5.957467   5.752574
    21  H    5.346877   5.890326   6.306711   7.236416   6.768833
    22  H    5.316128   6.179767   6.516407   7.673075   7.521609
    23  H    5.756354   6.722302   7.536875   8.679983   8.368009
    24  H    4.913521   6.161656   7.049780   8.366979   8.338914
    25  H    4.935045   5.582334   6.633189   7.569055   7.097193
    26  H    5.749249   6.703847   7.829196   8.925661   8.637733
    27  H    5.658814   6.579212   7.867116   8.924032   8.809877
    28  H    4.590721   5.277721   6.610603   7.547358   7.496825
    29  H    4.626720   5.728717   6.979422   8.161305   8.326889
    30  H    1.112977   2.083319   2.672160   4.089662   4.867673
    31  H    2.257810   1.099987   2.113891   2.657864   2.784381
    32  H    2.657797   2.113813   1.099981   2.257890   3.199721
    33  H    4.597585   3.362123   2.142172   1.113049   2.059872
    34  H    4.182619   2.767584   2.142381   1.112915   2.060152
    35  H    5.216887   3.777878   3.174937   1.902782   0.942027
                   16         17         18         19         20
    16  C    0.000000
    17  C    1.312985   0.000000
    18  N    2.471070   1.158085   0.000000
    19  C    1.341745   2.356604   3.424296   0.000000
    20  H    2.736547   2.238032   2.383982   2.677059   0.000000
    21  H    3.985265   3.910541   4.199289   3.326272   1.817236
    22  H    3.846647   3.564706   3.704826   3.326675   1.817407
    23  H    4.678364   5.176092   5.829225   3.450166   3.798390
    24  H    4.041384   4.721883   5.515199   2.859489   4.109273
    25  H    4.362568   5.272349   6.196070   3.130418   4.459558
    26  H    5.252337   6.223374   7.170832   3.927705   5.524269
    27  H    5.764795   6.984275   8.084228   4.675084   6.976184
    28  H    5.105849   6.410630   7.563838   4.323012   6.852039
    29  H    4.976011   6.215049   7.329287   4.156820   6.727346
    30  H    2.199616   2.881973   3.771688   3.133330   4.871383
    31  H    3.259720   4.015631   4.882435   3.864738   5.372863
    32  H    2.960091   2.640223   2.872734   4.269999   4.656637
    33  H    5.035945   4.729538   4.753067   6.204946   6.294423
    34  H    5.077943   5.238555   5.636155   6.090075   6.881409
    35  H    5.619027   5.593894   5.822874   6.453166   6.597550
                   21         22         23         24         25
    21  H    0.000000
    22  H    1.818074   0.000000
    23  H    2.689477   2.849979   0.000000
    24  H    3.785859   3.265689   1.831880   0.000000
    25  H    3.597602   4.512325   2.501505   3.079484   0.000000
    26  H    4.684319   5.058575   2.472035   2.483492   1.832021
    27  H    6.559120   6.832355   4.640078   3.935837   3.315163
    28  H    6.777796   7.164530   5.490035   4.727076   3.686802
    29  H    6.780691   6.706634   5.139944   3.867799   4.156136
    30  H    6.177727   5.877731   6.504914   5.437876   5.894180
    31  H    6.271552   6.804087   6.986949   6.541930   5.470930
    32  H    6.247284   6.184468   7.554205   6.982688   7.008587
    33  H    7.700771   8.030111   9.341769   9.042351   8.435109
    34  H    8.104630   8.543607   9.333632   8.911587   8.031585
    35  H    7.564488   8.383458   9.229652   9.256002   7.888855
                   26         27         28         29         30
    26  H    0.000000
    27  H    2.323777   0.000000
    28  H    3.548858   1.817226   0.000000
    29  H    3.410460   1.817345   1.818057   0.000000
    30  H    6.506196   6.249256   5.179581   4.953690   0.000000
    31  H    6.674447   6.370434   4.911866   5.696819   2.939808
    32  H    8.098077   8.275508   7.163603   7.277757   2.593897
    33  H    9.793784   9.901030   8.576710   9.084049   4.698695
    34  H    9.316117   9.041663   7.518972   8.217960   4.320824
    35  H    9.468825   9.600277   8.237026   9.155814   5.721981
                   31         32         33         34         35
    31  H    0.000000
    32  H    3.093381   0.000000
    33  H    3.732343   2.419460   0.000000
    34  H    2.699322   2.975579   1.818066   0.000000
    35  H    3.540999   3.963005   2.270714   2.270809   0.000000
 Stoichiometry    C14H16N4O
 Framework group  C1[X(C14H16N4O)]
 Deg. of freedom    99
 Full point group                 C1      NOp   1
 Largest Abelian subgroup         C1      NOp   1
 Largest concise Abelian subgroup C1      NOp   1
                         Standard orientation:                         
 ---------------------------------------------------------------------
 Center     Atomic      Atomic             Coordinates (Angstroms)
 Number     Number       Type             X           Y           Z
 ---------------------------------------------------------------------
      1          6           0       -1.209938   -3.288653    0.437005
      2          7           0       -1.701270   -1.928654    0.172476
      3          6           0       -3.172362   -1.516898    0.291106
      4          6           0       -3.322337   -0.201156    1.060658
      5          7           0       -2.615616    0.950689    0.338494
      6          6           0       -3.222309    2.271479    0.118844
      7          6           0       -1.243898    0.582934   -0.116754
      8          6           0       -0.240521    1.388542   -0.496991
      9          6           0       -0.278344    2.700962   -0.485024
     10          7           0       -0.311769    3.858415   -0.474437
     11          6           0        0.932032    0.561300   -0.938203
     12          6           0        2.137167    0.833079   -0.092677
     13          6           0        3.282959    0.187959   -0.334841
     14          6           0        4.488069    0.459830    0.510658
     15          8           0        4.201354    0.149805    1.847521
     16          6           0        0.425354   -0.836595   -0.730775
     17          6           0        1.101325   -1.932165   -0.989080
     18          7           0        1.697506   -2.898481   -1.217027
     19          6           0       -0.823245   -0.796235   -0.241231
     20          1           0       -0.108568   -3.322917    0.280076
     21          1           0       -1.443142   -3.568799    1.488711
     22          1           0       -1.705805   -4.003666   -0.256938
     23          1           0       -3.729834   -2.316325    0.828683
     24          1           0       -3.580341   -1.372495   -0.734205
     25          1           0       -2.876579   -0.321328    2.073461
     26          1           0       -4.406076    0.041899    1.132713
     27          1           0       -4.246883    2.286619    0.553203
     28          1           0       -2.599579    3.051698    0.611107
     29          1           0       -3.279690    2.476158   -0.973675
     30          1           0        1.260057    0.768971   -1.981271
     31          1           0        2.079974    1.563546    0.727761
     32          1           0        3.340035   -0.542448   -1.155332
     33          1           0        5.336877   -0.168217    0.158579
     34          1           0        4.762668    1.535312    0.429944
     35          1           0        4.980388    0.333472    2.344298
 ---------------------------------------------------------------------
 Rotational constants (GHZ):           0.4881035           0.2996838           0.2103728
 Standard basis: 6-31+G(d,p) (6D, 7F)
 There are   441 symmetry adapted cartesian basis functions of A   symmetry.
 There are   441 symmetry adapted basis functions of A   symmetry.
   441 basis functions,   720 primitive gaussians,   441 cartesian basis functions
    68 alpha electrons       68 beta electrons
       nuclear repulsion energy      1389.2420069459 Hartrees.
 NAtoms=   35 NActive=   35 NUniq=   35 SFac= 1.00D+00 NAtFMM=   60 NAOKFM=F Big=F
 Integral buffers will be    131072 words long.
 Regular integral format.
 Two-electron integral symmetry is turned on.
 One-electron integrals computed using PRISM.
 NBasis=   441 RedAO= T EigKep=  1.08D-06  NBF=   441
 NBsUse=   439 1.00D-06 EigRej=  7.83D-07 NBFU=   439
 ExpMin= 4.38D-02 ExpMax= 5.48D+03 ExpMxC= 8.25D+02 IAcc=3 IRadAn=         5 AccDes= 0.00D+00
 Harris functional with IExCor=  402 and IRadAn=       5 diagonalized for initial guess.
 HarFok:  IExCor=  402 AccDes= 0.00D+00 IRadAn=         5 IDoV= 1 UseB2=F ITyADJ=14
 ICtDFT=  3500011 ScaDFX=  1.000000  1.000000  1.000000  1.000000
 FoFCou: FMM=F IPFlag=           0 FMFlag=      100000 FMFlg1=           0
         NFxFlg=           0 DoJE=T BraDBF=F KetDBF=T FulRan=T
         wScrn=  0.000000 ICntrl=       500 IOpCl=  0 I1Cent=   200000004 NGrid=           0
         NMat0=    1 NMatS0=      1 NMatT0=    0 NMatD0=    1 NMtDS0=    0 NMtDT0=    0
 Petite list used in FoFCou.
 Requested convergence on RMS density matrix=1.00D-08 within 128 cycles.
 Requested convergence on MAX density matrix=1.00D-06.
 Requested convergence on             energy=1.00D-06.
 No special actions if energy rises.
 SCF Done:  E(RB3LYP) =  -837.245474975     A.U. after   17 cycles
            NFock= 17  Conv=0.33D-08     -V/T= 2.0093
 DoSCS=F DFT=T ScalE2(SS,OS)=  1.000000  1.000000
 ExpMin= 4.38D-02 ExpMax= 5.48D+03 ExpMxC= 8.25D+02 IAcc=3 IRadAn=         5 AccDes= 0.00D+00
 HarFok:  IExCor=  205 AccDes= 0.00D+00 IRadAn=         5 IDoV=-2 UseB2=F ITyADJ=14
 ICtDFT= 12500011 ScaDFX=  1.000000  1.000000  1.000000  1.000000
 Range of M.O.s used for correlation:    20   439
 NBasis=   441 NAE=    68 NBE=    68 NFC=    19 NFV=     0
 NROrb=    420 NOA=    49 NOB=    49 NVA=   371 NVB=   371

 **** Warning!!: The largest alpha MO coefficient is  0.15837734D+03

 Orbital symmetries:
       Occupied  (A) (A) (A) (A) (A) (A) (A) (A) (A) (A) (A) (A)
                 (A) (A) (A) (A) (A) (A) (A) (A) (A) (A) (A) (A)
                 (A) (A) (A) (A) (A) (A) (A) (A) (A) (A) (A) (A)
                 (A) (A) (A) (A) (A) (A) (A) (A) (A) (A) (A) (A)
                 (A) (A) (A) (A) (A) (A) (A) (A) (A) (A) (A) (A)
                 (A) (A) (A) (A) (A) (A) (A) (A)
       Virtual   (A) (A) (A) (A) (A) (A) (A) (A) (A) (A) (A) (A)
                 (A) (A) (A) (A) (A) (A) (A) (A) (A) (A) (A) (A)
                 (A) (A) (A) (A) (A) (A) (A) (A) (A) (A) (A) (A)
                 (A) (A) (A) (A) (A) (A) (A) (A) (A) (A) (A) (A)
                 (A) (A) (A) (A) (A) (A) (A) (A) (A) (A) (A) (A)
                 (A) (A) (A) (A) (A) (A) (A) (A) (A) (A) (A) (A)
                 (A) (A) (A) (A) (A) (A) (A) (A) (A) (A) (A) (A)
                 (A) (A) (A) (A) (A) (A) (A) (A) (A) (A) (A) (A)
                 (A) (A) (A) (A) (A) (A) (A) (A) (A) (A) (A) (A)
                 (A) (A) (A) (A) (A) (A) (A) (A) (A) (A) (A) (A)
                 (A) (A) (A) (A) (A) (A) (A) (A) (A) (A) (A) (A)
                 (A) (A) (A) (A) (A) (A) (A) (A) (A) (A) (A) (A)
                 (A) (A) (A) (A) (A) (A) (A) (A) (A) (A) (A) (A)
                 (A) (A) (A) (A) (A) (A) (A) (A) (A) (A) (A) (A)
                 (A) (A) (A) (A) (A) (A) (A) (A) (A) (A) (A) (A)
                 (A) (A) (A) (A) (A) (A) (A) (A) (A) (A) (A) (A)
                 (A) (A) (A) (A) (A) (A) (A) (A) (A) (A) (A) (A)
                 (A) (A) (A) (A) (A) (A) (A) (A) (A) (A) (A) (A)
                 (A) (A) (A) (A) (A) (A) (A) (A) (A) (A) (A) (A)
                 (A) (A) (A) (A) (A) (A) (A) (A) (A) (A) (A) (A)
                 (A) (A) (A) (A) (A) (A) (A) (A) (A) (A) (A) (A)
                 (A) (A) (A) (A) (A) (A) (A) (A) (A) (A) (A) (A)
                 (A) (A) (A) (A) (A) (A) (A) (A) (A) (A) (A) (A)
                 (A) (A) (A) (A) (A) (A) (A) (A) (A) (A) (A) (A)
                 (A) (A) (A) (A) (A) (A) (A) (A) (A) (A) (A) (A)
                 (A) (A) (A) (A) (A) (A) (A) (A) (A) (A) (A) (A)
                 (A) (A) (A) (A) (A) (A) (A) (A) (A) (A) (A) (A)
                 (A) (A) (A) (A) (A) (A) (A) (A) (A) (A) (A) (A)
                 (A) (A) (A) (A) (A) (A) (A) (A) (A) (A) (A) (A)
                 (A) (A) (A) (A) (A) (A) (A) (A) (A) (A) (A) (A)
                 (A) (A) (A) (A) (A) (A) (A) (A) (A) (A) (A)
    24 initial guesses have been made.
 Convergence on wavefunction:    0.001000000000000
 Iteration     1 Dimension    24 NMult     0 NNew     24
 CISAX will form    24 AO SS matrices at one time.
 New state      1 was old state      2
 New state      2 was old state      4
 New state      3 was old state      1
 New state      4 was old state      6
 New state      6 was old state     10
 New state      7 was old state      8
 New state      8 was old state      3
 New state      9 was old state      7
 New state     10 was old state     12
 New state     12 was old state     16
 Vector   6 SDiff=7.48D-01 TDiff=6.49D+01 assumed to be singlet.
 Vector  12 SDiff=5.56D-01 TDiff=4.57D+01 assumed to be singlet.
 Iteration     2 Dimension    36 NMult    24 NNew     12
 New state      4 was old state      8
 New state      5 was old state      4
 New state      6 was old state      5
 Iteration     3 Dimension    48 NMult    36 NNew     12
 New state      4 was old state      5
 New state      5 was old state      4
 Iteration     4 Dimension    60 NMult    48 NNew     12
 Iteration     5 Dimension    72 NMult    60 NNew     12
 Iteration     6 Dimension    78 NMult    72 NNew      6
 Iteration     7 Dimension    80 NMult    78 NNew      2
 ***********************************************************************
 Excited states from <AA,BB:AA,BB> singles matrix:
 ***********************************************************************
 
 Ground to excited state transition densities written to RWF  633
 Ground to excited state transition electric dipole moments (Au):
       state          X           Y           Z        Dip. S.      Osc.
         1        -0.0000     -0.0000      0.0000      0.0000      0.0000
         2        -0.0000     -0.0000      0.0000      0.0000      0.0000
         3         0.3570     -0.7574     -0.1107      0.7133      0.0571
         4        -0.0000      0.0000     -0.0000      0.0000      0.0000
         5        -1.3572     -0.4532      0.4137      2.2185      0.1997
         6         0.0002      0.0966      0.1079      0.0210      0.0021
 Ground to excited state transition velocity dipole moments (Au):
       state          X           Y           Z        Dip. S.      Osc.
         1         0.0000      0.0000      0.0000      0.0000      0.0000
         2        -0.0000     -0.0000      0.0000      0.0000      0.0000
         3        -0.0417      0.0891      0.0139      0.0099      0.0549
         4         0.0000     -0.0000      0.0000      0.0000      0.0000
         5         0.1788      0.0593     -0.0536      0.0384      0.1893
         6        -0.0007     -0.0148     -0.0164      0.0005      0.0022
 Ground to excited state transition magnetic dipole moments (Au):
       state          X           Y           Z
         1         0.0000     -0.0000     -0.0000
         2        -0.0000      0.0000      0.0000
         3        -0.0131      0.1336     -0.3230
         4         0.0000     -0.0000      0.0000
         5         0.0323     -0.2353     -0.0880
         6        -0.0833      0.0203     -0.0573
 Ground to excited state transition velocity quadrupole moments (Au):
       state          XX          YY          ZZ          XY          XZ          YZ
         1         0.0000      0.0000     -0.0000     -0.0000     -0.0000     -0.0000
         2        -0.0000      0.0000     -0.0000      0.0000     -0.0000     -0.0000
         3        -0.2851      0.4186     -0.0726      0.3674      0.1108     -0.2706
         4        -0.0000     -0.0000     -0.0000      0.0000      0.0000      0.0000
         5        -0.3766      0.1384      0.0410     -0.0938      0.0423      0.0663
         6        -0.1782     -0.0398      0.0676     -0.1580     -0.0322      0.0688
 <0|del|b> * <b|rxdel|0> + <0|del|b> * <b|delr+rdel|0>
 Rotatory Strengths (R) in cgs (10**-40 erg-esu-cm/Gauss)
       state          XX          YY          ZZ    R(velocity)    E-M Angle
         1         0.0000     -0.0000     -0.0000      0.0000       90.00
         2         0.0000      0.0000     -0.0000      0.0000       90.00
         3         7.8061      6.5811     32.5679     15.6517       76.75
         4         0.0000      0.0000     -0.0000      0.0000       90.00
         5       -17.5905     45.3724    -45.8670     -6.0284       93.99
         6         6.5867     -3.9202      0.6700      1.1122       72.13
 1/2[<0|r|b>*<b|rxdel|0> + (<0|rxdel|b>*<b|r|0>)*]
 Rotatory Strengths (R) in cgs (10**-40 erg-esu-cm/Gauss)
       state          XX          YY          ZZ     R(length)
         1         0.0000     -0.0000      0.0000      0.0000
         2        -0.0000      0.0000     -0.0000      0.0000
         3         3.3050     71.5564    -25.2748     16.5289
         4         0.0000      0.0000      0.0000      0.0000
         5        31.0315    -75.4068     25.7528     -6.2075
         6         0.0099     -1.3859      4.3754      0.9998
  1/2[<0|del|b>*<b|r|0> + (<0|r|b>*<b|del|0>)*] (Au)
       state          X           Y           Z        Dip. S.   Osc.(frdel)
         1        -0.0000     -0.0000      0.0000      0.0000      0.0000
         2         0.0000      0.0000      0.0000     -0.0000     -0.0000
         3        -0.0149     -0.0675     -0.0015      0.0839      0.0560
         4        -0.0000     -0.0000     -0.0000      0.0000      0.0000
         5        -0.2427     -0.0269     -0.0222      0.2917      0.1945
         6        -0.0000     -0.0014     -0.0018      0.0032      0.0021

 Excitation energies and oscillator strengths:
 
 Excited State   1:      Triplet-A      1.9049 eV  650.87 nm  f=0.0000  <S**2>=2.000
      65 -> 69         0.10741
      68 -> 69         0.69632
      68 <- 69         0.11037
 This state for optimization and/or second-order correction.
 Total Energy, E(TD-HF/TD-DFT) =  -837.175471210    
 Copying the excited state density for this state as the 1-particle RhoCI density.
 
 Excited State   2:      Triplet-A      2.5998 eV  476.90 nm  f=0.0000  <S**2>=2.000
      67 -> 69         0.68959
      68 -> 75        -0.11332
 
 Excited State   3:      Singlet-A      3.2660 eV  379.62 nm  f=0.0571  <S**2>=0.000
      68 -> 69         0.69846
 
 Excited State   4:      Triplet-A      3.5244 eV  351.79 nm  f=0.0000  <S**2>=2.000
      64 -> 70        -0.18779
      66 -> 69         0.18306
      66 -> 70        -0.55754
      68 -> 70        -0.21938
 
 Excited State   5:      Singlet-A      3.6750 eV  337.38 nm  f=0.1997  <S**2>=0.000
      67 -> 69         0.69570
 
 Excited State   6:      Singlet-A      4.0363 eV  307.18 nm  f=0.0021  <S**2>=0.000
      66 -> 69         0.69718
 SavETr:  write IOETrn=   770 NScale= 10 NData=  16 NLR=1 NState=    6 LETran=     118.

 **********************************************************************

            Population analysis using the SCF Density.

 **********************************************************************

 Orbital symmetries:
       Occupied  (A) (A) (A) (A) (A) (A) (A) (A) (A) (A) (A) (A)
                 (A) (A) (A) (A) (A) (A) (A) (A) (A) (A) (A) (A)
                 (A) (A) (A) (A) (A) (A) (A) (A) (A) (A) (A) (A)
                 (A) (A) (A) (A) (A) (A) (A) (A) (A) (A) (A) (A)
                 (A) (A) (A) (A) (A) (A) (A) (A) (A) (A) (A) (A)
                 (A) (A) (A) (A) (A) (A) (A) (A)
       Virtual   (A) (A) (A) (A) (A) (A) (A) (A) (A) (A) (A) (A)
                 (A) (A) (A) (A) (A) (A) (A) (A) (A) (A) (A) (A)
                 (A) (A) (A) (A) (A) (A) (A) (A) (A) (A) (A) (A)
                 (A) (A) (A) (A) (A) (A) (A) (A) (A) (A) (A) (A)
                 (A) (A) (A) (A) (A) (A) (A) (A) (A) (A) (A) (A)
                 (A) (A) (A) (A) (A) (A) (A) (A) (A) (A) (A) (A)
                 (A) (A) (A) (A) (A) (A) (A) (A) (A) (A) (A) (A)
                 (A) (A) (A) (A) (A) (A) (A) (A) (A) (A) (A) (A)
                 (A) (A) (A) (A) (A) (A) (A) (A) (A) (A) (A) (A)
                 (A) (A) (A) (A) (A) (A) (A) (A) (A) (A) (A) (A)
                 (A) (A) (A) (A) (A) (A) (A) (A) (A) (A) (A) (A)
                 (A) (A) (A) (A) (A) (A) (A) (A) (A) (A) (A) (A)
                 (A) (A) (A) (A) (A) (A) (A) (A) (A) (A) (A) (A)
                 (A) (A) (A) (A) (A) (A) (A) (A) (A) (A) (A) (A)
                 (A) (A) (A) (A) (A) (A) (A) (A) (A) (A) (A) (A)
                 (A) (A) (A) (A) (A) (A) (A) (A) (A) (A) (A) (A)
                 (A) (A) (A) (A) (A) (A) (A) (A) (A) (A) (A) (A)
                 (A) (A) (A) (A) (A) (A) (A) (A) (A) (A) (A) (A)
                 (A) (A) (A) (A) (A) (A) (A) (A) (A) (A) (A) (A)
                 (A) (A) (A) (A) (A) (A) (A) (A) (A) (A) (A) (A)
                 (A) (A) (A) (A) (A) (A) (A) (A) (A) (A) (A) (A)
                 (A) (A) (A) (A) (A) (A) (A) (A) (A) (A) (A) (A)
                 (A) (A) (A) (A) (A) (A) (A) (A) (A) (A) (A) (A)
                 (A) (A) (A) (A) (A) (A) (A) (A) (A) (A) (A) (A)
                 (A) (A) (A) (A) (A) (A) (A) (A) (A) (A) (A) (A)
                 (A) (A) (A) (A) (A) (A) (A) (A) (A) (A) (A) (A)
                 (A) (A) (A) (A) (A) (A) (A) (A) (A) (A) (A) (A)
                 (A) (A) (A) (A) (A) (A) (A) (A) (A) (A) (A) (A)
                 (A) (A) (A) (A) (A) (A) (A) (A) (A) (A) (A) (A)
                 (A) (A) (A) (A) (A) (A) (A) (A) (A) (A) (A) (A)
                 (A) (A) (A) (A) (A) (A) (A) (A) (A) (A) (A)
 The electronic state is 1-A.
 Alpha  occ. eigenvalues --  -19.15834 -14.38951 -14.38898 -14.33437 -14.33324
 Alpha  occ. eigenvalues --  -10.27432 -10.27393 -10.26132 -10.26062 -10.24292
 Alpha  occ. eigenvalues --  -10.24117 -10.23727 -10.23426 -10.22466 -10.22313
 Alpha  occ. eigenvalues --  -10.21951 -10.21912 -10.20230 -10.19411  -1.04178
 Alpha  occ. eigenvalues --   -0.97174  -0.92648  -0.92137  -0.90947  -0.89341
 Alpha  occ. eigenvalues --   -0.81238  -0.79651  -0.78249  -0.75446  -0.70516
 Alpha  occ. eigenvalues --   -0.70288  -0.67428  -0.65310  -0.64144  -0.57500
 Alpha  occ. eigenvalues --   -0.56166  -0.55227  -0.52534  -0.51378  -0.51309
 Alpha  occ. eigenvalues --   -0.48913  -0.48046  -0.47094  -0.46910  -0.46295
 Alpha  occ. eigenvalues --   -0.45672  -0.44754  -0.43666  -0.42609  -0.41713
 Alpha  occ. eigenvalues --   -0.40828  -0.40383  -0.39835  -0.39356  -0.38751
 Alpha  occ. eigenvalues --   -0.38272  -0.37223  -0.36526  -0.36308  -0.34514
 Alpha  occ. eigenvalues --   -0.34257  -0.32613  -0.31995  -0.28605  -0.28290
 Alpha  occ. eigenvalues --   -0.25923  -0.23295  -0.21589
 Alpha virt. eigenvalues --   -0.08317  -0.02821  -0.01576  -0.00028   0.00320
 Alpha virt. eigenvalues --    0.00348   0.01170   0.01361   0.01695   0.02620
 Alpha virt. eigenvalues --    0.02880   0.02950   0.03334   0.03993   0.04269
 Alpha virt. eigenvalues --    0.04402   0.04989   0.05174   0.05348   0.06324
 Alpha virt. eigenvalues --    0.06628   0.07160   0.07522   0.07765   0.08298
 Alpha virt. eigenvalues --    0.09176   0.09691   0.10007   0.10312   0.10582
 Alpha virt. eigenvalues --    0.11037   0.11525   0.11715   0.12062   0.12400
 Alpha virt. eigenvalues --    0.12754   0.13345   0.13919   0.14636   0.14714
 Alpha virt. eigenvalues --    0.14996   0.15573   0.16083   0.16254   0.16549
 Alpha virt. eigenvalues --    0.16958   0.17159   0.17468   0.18087   0.18304
 Alpha virt. eigenvalues --    0.18753   0.19139   0.19468   0.19720   0.20098
 Alpha virt. eigenvalues --    0.20599   0.20658   0.20905   0.21277   0.21992
 Alpha virt. eigenvalues --    0.22082   0.22387   0.22607   0.23297   0.23508
 Alpha virt. eigenvalues --    0.23894   0.24153   0.24399   0.24572   0.24676
 Alpha virt. eigenvalues --    0.25428   0.25461   0.25885   0.26101   0.26494
 Alpha virt. eigenvalues --    0.26942   0.27378   0.27474   0.27860   0.27992
 Alpha virt. eigenvalues --    0.28373   0.28747   0.29279   0.29620   0.30014
 Alpha virt. eigenvalues --    0.30378   0.30719   0.30966   0.31705   0.31795
 Alpha virt. eigenvalues --    0.31972   0.32444   0.32627   0.32908   0.33559
 Alpha virt. eigenvalues --    0.34473   0.35256   0.35617   0.36420   0.36672
 Alpha virt. eigenvalues --    0.37630   0.38083   0.38835   0.39532   0.39709
 Alpha virt. eigenvalues --    0.40869   0.42029   0.42221   0.43398   0.45282
 Alpha virt. eigenvalues --    0.46538   0.46888   0.47942   0.50375   0.58030
 Alpha virt. eigenvalues --    0.60660   0.63652   0.64710   0.65190   0.65847
 Alpha virt. eigenvalues --    0.67285   0.67898   0.68478   0.68728   0.69878
 Alpha virt. eigenvalues --    0.70716   0.71804   0.72277   0.72615   0.73221
 Alpha virt. eigenvalues --    0.74715   0.75693   0.76021   0.77322   0.78534
 Alpha virt. eigenvalues --    0.79176   0.79826   0.80566   0.81652   0.82252
 Alpha virt. eigenvalues --    0.83118   0.84382   0.84706   0.85867   0.86639
 Alpha virt. eigenvalues --    0.88451   0.89225   0.89780   0.90921   0.91946
 Alpha virt. eigenvalues --    0.92553   0.92835   0.93845   0.94453   0.94716
 Alpha virt. eigenvalues --    0.95768   0.96154   0.97147   0.97751   0.99367
 Alpha virt. eigenvalues --    0.99650   1.00061   1.00736   1.01662   1.02149
 Alpha virt. eigenvalues --    1.03312   1.03690   1.04631   1.05116   1.05953
 Alpha virt. eigenvalues --    1.06674   1.07217   1.07986   1.09003   1.10242
 Alpha virt. eigenvalues --    1.11070   1.11917   1.12580   1.13057   1.13816
 Alpha virt. eigenvalues --    1.14297   1.16809   1.18081   1.19581   1.22215
 Alpha virt. eigenvalues --    1.22903   1.23275   1.24357   1.25713   1.25990
 Alpha virt. eigenvalues --    1.26933   1.28651   1.30355   1.31490   1.32153
 Alpha virt. eigenvalues --    1.33200   1.35863   1.37124   1.38881   1.40671
 Alpha virt. eigenvalues --    1.41882   1.42890   1.44316   1.48062   1.48454
 Alpha virt. eigenvalues --    1.49750   1.51202   1.52088   1.53553   1.54377
 Alpha virt. eigenvalues --    1.55627   1.56075   1.57013   1.58508   1.59530
 Alpha virt. eigenvalues --    1.60779   1.62673   1.63813   1.65664   1.67163
 Alpha virt. eigenvalues --    1.68402   1.70349   1.70810   1.71940   1.72978
 Alpha virt. eigenvalues --    1.74387   1.75664   1.76427   1.78359   1.80407
 Alpha virt. eigenvalues --    1.81230   1.83344   1.84649   1.84897   1.88067
 Alpha virt. eigenvalues --    1.88621   1.89805   1.90336   1.91175   1.92064
 Alpha virt. eigenvalues --    1.92455   1.94502   1.95916   1.96790   1.96950
 Alpha virt. eigenvalues --    1.97132   1.98139   1.98614   2.00096   2.01878
 Alpha virt. eigenvalues --    2.02565   2.02778   2.03340   2.03960   2.04733
 Alpha virt. eigenvalues --    2.05900   2.06220   2.06659   2.07154   2.07756
 Alpha virt. eigenvalues --    2.08072   2.09200   2.10103   2.10870   2.12701
 Alpha virt. eigenvalues --    2.14008   2.14915   2.16117   2.17672   2.19476
 Alpha virt. eigenvalues --    2.23166   2.24366   2.25528   2.26396   2.29128
 Alpha virt. eigenvalues --    2.31762   2.32527   2.34363   2.35570   2.36499
 Alpha virt. eigenvalues --    2.38009   2.41026   2.42053   2.42666   2.43626
 Alpha virt. eigenvalues --    2.43663   2.47645   2.49425   2.50557   2.52384
 Alpha virt. eigenvalues --    2.52958   2.53558   2.55034   2.55109   2.56675
 Alpha virt. eigenvalues --    2.57514   2.59207   2.59968   2.61125   2.62626
 Alpha virt. eigenvalues --    2.64411   2.65478   2.65974   2.66922   2.68436
 Alpha virt. eigenvalues --    2.69419   2.71237   2.72968   2.74210   2.75093
 Alpha virt. eigenvalues --    2.76762   2.78454   2.78983   2.79891   2.80857
 Alpha virt. eigenvalues --    2.82984   2.83636   2.85196   2.86167   2.88038
 Alpha virt. eigenvalues --    2.89952   2.91169   2.92874   2.94723   2.97322
 Alpha virt. eigenvalues --    2.99722   2.99801   3.03171   3.07192   3.12847
 Alpha virt. eigenvalues --    3.14499   3.16494   3.19646   3.22711   3.25326
 Alpha virt. eigenvalues --    3.25480   3.26827   3.27503   3.38169   3.39264
 Alpha virt. eigenvalues --    3.40051   3.40656   3.41116   3.41311   3.43697
 Alpha virt. eigenvalues --    3.44134   3.46134   3.48884   3.52506   3.54750
 Alpha virt. eigenvalues --    3.55263   3.59309   4.19773   4.31236   4.32097
 Alpha virt. eigenvalues --    4.38219   4.40336   4.42410   4.44872   4.48195
 Alpha virt. eigenvalues --    4.50789   4.52148   4.55206   4.57394   4.57976
 Alpha virt. eigenvalues --    4.66063   4.66476   4.70829   4.76775   4.93649
 Alpha virt. eigenvalues --    4.95250
          Condensed to atoms (all electrons):
               1          2          3          4          5          6
     1  C    5.144010   0.124094  -0.038488  -0.031529  -0.012761  -0.003287
     2  N    0.124094   7.215227   0.122154  -0.038234  -0.063242  -0.012357
     3  C   -0.038488   0.122154   5.497176   0.097931  -0.054162  -0.018356
     4  C   -0.031529  -0.038234   0.097931   5.478877   0.149273  -0.033717
     5  N   -0.012761  -0.063242  -0.054162   0.149273   7.252897   0.128373
     6  C   -0.003287  -0.012357  -0.018356  -0.033717   0.128373   5.155627
     7  C    0.046423  -0.053130  -0.499509   0.496919   0.236722  -0.273449
     8  C    0.027712   0.050360  -0.293864   0.180817  -0.324218   0.234876
     9  C   -0.030301   0.029787   0.002123   0.082651  -0.045622  -0.093986
    10  N    0.000531   0.000308   0.001245  -0.004369  -0.008811  -0.013250
    11  C   -0.018622   0.023204   0.037179  -0.155495   0.039672   0.067979
    12  C   -0.025620   0.010936  -0.000346   0.020472   0.006687  -0.007542
    13  C    0.005393  -0.008552  -0.010514   0.005518   0.007315   0.004463
    14  C   -0.001779   0.002337   0.000496  -0.001275   0.000570   0.000861
    15  O   -0.000028  -0.000048   0.000038  -0.000085  -0.000003  -0.000027
    16  C   -0.054542  -0.196256   0.240623  -0.297541   0.061318   0.020149
    17  C   -0.109245  -0.108970   0.018043   0.018527  -0.017656  -0.026313
    18  N   -0.008465   0.003704  -0.001948  -0.000190   0.001130   0.000446
    19  C   -0.026154   0.270466   0.328656  -0.512093   0.027737  -0.143683
    20  H    0.411503  -0.057599   0.010016  -0.002799  -0.000920  -0.000131
    21  H    0.421150  -0.068200  -0.004265   0.001517  -0.000585   0.000103
    22  H    0.411980  -0.048725   0.003639  -0.002661  -0.000026  -0.000158
    23  H    0.004209  -0.048813   0.379955  -0.030490   0.007242   0.000847
    24  H    0.003581  -0.053791   0.462137  -0.070006   0.013199  -0.001599
    25  H   -0.002938   0.018258  -0.094323   0.486190  -0.073654   0.003242
    26  H    0.000957   0.004165  -0.020327   0.364110  -0.038850  -0.003846
    27  H    0.000002   0.000164  -0.000042  -0.008983  -0.046218   0.393645
    28  H   -0.000146  -0.000970  -0.004429   0.008400  -0.043027   0.428614
    29  H    0.000090  -0.000488   0.002710   0.002250  -0.076423   0.435099
    30  H   -0.001784   0.000295  -0.000906   0.001365   0.000584   0.000691
    31  H   -0.000209  -0.000107  -0.000186   0.000343  -0.000267   0.000563
    32  H   -0.000267  -0.000131  -0.000108   0.000039   0.000028   0.000015
    33  H   -0.000001   0.000004   0.000003  -0.000005  -0.000000  -0.000000
    34  H    0.000003   0.000004   0.000000   0.000001   0.000003   0.000008
    35  H    0.000000  -0.000001  -0.000006   0.000009   0.000001   0.000003
               7          8          9         10         11         12
     1  C    0.046423   0.027712  -0.030301   0.000531  -0.018622  -0.025620
     2  N   -0.053130   0.050360   0.029787   0.000308   0.023204   0.010936
     3  C   -0.499509  -0.293864   0.002123   0.001245   0.037179  -0.000346
     4  C    0.496919   0.180817   0.082651  -0.004369  -0.155495   0.020472
     5  N    0.236722  -0.324218  -0.045622  -0.008811   0.039672   0.006687
     6  C   -0.273449   0.234876  -0.093986  -0.013250   0.067979  -0.007542
     7  C   17.619324  -2.253126   0.450129   0.040383  -6.656827   1.253796
     8  C   -2.253126  18.725022  -6.247874   0.994974   0.485298   0.468212
     9  C    0.450129  -6.247874  15.800258  -0.999435  -0.446239  -0.049147
    10  N    0.040383   0.994974  -0.999435   7.628311  -0.184620   0.030581
    11  C   -6.656827   0.485298  -0.446239  -0.184620  15.161928  -1.863264
    12  C    1.253796   0.468212  -0.049147   0.030581  -1.863264   9.189480
    13  C   -0.418531  -0.178912  -0.107569  -0.012497   0.538052  -1.871782
    14  C   -0.145967  -0.360143   0.088806  -0.001803  -0.089640  -0.127553
    15  O   -0.012271  -0.024089   0.003129  -0.000179   0.042942   0.013905
    16  C   -3.079602  -1.442247  -0.484410   0.043796   1.822324  -0.705638
    17  C   -3.152650   0.537352  -0.649008   0.002758   0.772366  -1.015780
    18  N    0.131343   0.011087  -0.003946   0.000209  -0.149492   0.056674
    19  C    2.234582  -4.106920  -1.700262   0.130629  -4.421398   0.788841
    20  H    0.029626   0.004062   0.000010   0.000002  -0.033832  -0.002446
    21  H   -0.004745   0.005320   0.000763  -0.000000   0.012722   0.000243
    22  H   -0.016708  -0.004600  -0.000361   0.000000  -0.000624   0.000193
    23  H    0.000884   0.002046   0.000082  -0.000002   0.002349  -0.000021
    24  H   -0.011658  -0.051292   0.001588  -0.000006  -0.024202   0.000200
    25  H    0.115362  -0.030049   0.025275  -0.000241  -0.024875   0.001763
    26  H   -0.025492   0.005508  -0.007620   0.000039   0.003024  -0.000316
    27  H    0.007263  -0.009722   0.001750   0.000424   0.001585  -0.000696
    28  H   -0.057745   0.060244  -0.020283  -0.004895   0.002642   0.001752
    29  H   -0.046002   0.074554  -0.080670   0.002425   0.000968   0.000371
    30  H    0.002716  -0.037965   0.043895  -0.001365   0.211796  -0.047104
    31  H    0.010362   0.031948  -0.032130   0.001928  -0.102543   0.313092
    32  H   -0.003083  -0.009340  -0.005005   0.000012   0.021845  -0.055495
    33  H   -0.000442  -0.004879   0.000234  -0.000002  -0.005370  -0.007123
    34  H   -0.002689  -0.014029   0.004255  -0.000023   0.011452  -0.033832
    35  H    0.000704   0.000348   0.000121  -0.000005  -0.007292   0.005962
              13         14         15         16         17         18
     1  C    0.005393  -0.001779  -0.000028  -0.054542  -0.109245  -0.008465
     2  N   -0.008552   0.002337  -0.000048  -0.196256  -0.108970   0.003704
     3  C   -0.010514   0.000496   0.000038   0.240623   0.018043  -0.001948
     4  C    0.005518  -0.001275  -0.000085  -0.297541   0.018527  -0.000190
     5  N    0.007315   0.000570  -0.000003   0.061318  -0.017656   0.001130
     6  C    0.004463   0.000861  -0.000027   0.020149  -0.026313   0.000446
     7  C   -0.418531  -0.145967  -0.012271  -3.079602  -3.152650   0.131343
     8  C   -0.178912  -0.360143  -0.024089  -1.442247   0.537352   0.011087
     9  C   -0.107569   0.088806   0.003129  -0.484410  -0.649008  -0.003946
    10  N   -0.012497  -0.001803  -0.000179   0.043796   0.002758   0.000209
    11  C    0.538052  -0.089640   0.042942   1.822324   0.772366  -0.149492
    12  C   -1.871782  -0.127553   0.013905  -0.705638  -1.015780   0.056674
    13  C    7.953639  -0.721618  -0.205674   0.392122   0.500936  -0.020928
    14  C   -0.721618   6.443658   0.264485   0.349033  -0.093213  -0.001783
    15  O   -0.205674   0.264485   8.387821  -0.047209   0.037030  -0.001505
    16  C    0.392122   0.349033  -0.047209  16.892088  -8.427231   1.063486
    17  C    0.500936  -0.093213   0.037030  -8.427231  19.778333  -1.065352
    18  N   -0.020928  -0.001783  -0.001505   1.063486  -1.065352   7.597235
    19  C   -0.323382  -0.117530  -0.013640  -0.239696  -0.940961  -0.007357
    20  H    0.001117   0.000120  -0.000004  -0.093691   0.015273   0.001228
    21  H    0.000141   0.000064   0.000001   0.067340  -0.013903  -0.000612
    22  H   -0.000275  -0.000035  -0.000000   0.018223  -0.004612   0.001814
    23  H    0.000007   0.000002  -0.000000   0.004318  -0.001839  -0.000059
    24  H   -0.000296  -0.000013   0.000000  -0.009837  -0.009090   0.000164
    25  H   -0.000393   0.000010   0.000000  -0.048958  -0.008962   0.000038
    26  H    0.000015  -0.000001   0.000000   0.007625   0.000645  -0.000002
    27  H   -0.000024  -0.000001  -0.000000   0.001798   0.000060  -0.000000
    28  H    0.000205   0.000033   0.000000   0.000392  -0.000472   0.000002
    29  H    0.000013  -0.000009  -0.000000   0.008627   0.001491  -0.000000
    30  H    0.003745   0.007058   0.000089   0.049160   0.002194   0.000510
    31  H    0.052162  -0.031853   0.004779   0.047041   0.002062  -0.000342
    32  H    0.386339  -0.014036   0.007735  -0.047655   0.039442  -0.000994
    33  H   -0.164244   0.559775  -0.058357  -0.003070  -0.000701  -0.000281
    34  H   -0.122176   0.505972  -0.059815   0.012781  -0.004618   0.000037
    35  H    0.083265  -0.073691   0.203276   0.007805  -0.002940   0.000140
              19         20         21         22         23         24
     1  C   -0.026154   0.411503   0.421150   0.411980   0.004209   0.003581
     2  N    0.270466  -0.057599  -0.068200  -0.048725  -0.048813  -0.053791
     3  C    0.328656   0.010016  -0.004265   0.003639   0.379955   0.462137
     4  C   -0.512093  -0.002799   0.001517  -0.002661  -0.030490  -0.070006
     5  N    0.027737  -0.000920  -0.000585  -0.000026   0.007242   0.013199
     6  C   -0.143683  -0.000131   0.000103  -0.000158   0.000847  -0.001599
     7  C    2.234582   0.029626  -0.004745  -0.016708   0.000884  -0.011658
     8  C   -4.106920   0.004062   0.005320  -0.004600   0.002046  -0.051292
     9  C   -1.700262   0.000010   0.000763  -0.000361   0.000082   0.001588
    10  N    0.130629   0.000002  -0.000000   0.000000  -0.000002  -0.000006
    11  C   -4.421398  -0.033832   0.012722  -0.000624   0.002349  -0.024202
    12  C    0.788841  -0.002446   0.000243   0.000193  -0.000021   0.000200
    13  C   -0.323382   0.001117   0.000141  -0.000275   0.000007  -0.000296
    14  C   -0.117530   0.000120   0.000064  -0.000035   0.000002  -0.000013
    15  O   -0.013640  -0.000004   0.000001  -0.000000  -0.000000   0.000000
    16  C   -0.239696  -0.093691   0.067340   0.018223   0.004318  -0.009837
    17  C   -0.940961   0.015273  -0.013903  -0.004612  -0.001839  -0.009090
    18  N   -0.007357   0.001228  -0.000612   0.001814  -0.000059   0.000164
    19  C   14.821841   0.084665  -0.077845  -0.005412   0.003510   0.049894
    20  H    0.084665   0.508582  -0.020707  -0.021175   0.000137  -0.000118
    21  H   -0.077845  -0.020707   0.578913  -0.042814   0.002310  -0.000488
    22  H   -0.005412  -0.021175  -0.042814   0.560607  -0.001069   0.001486
    23  H    0.003510   0.000137   0.002310  -0.001069   0.562460  -0.030660
    24  H    0.049894  -0.000118  -0.000488   0.001486  -0.030660   0.566621
    25  H   -0.069832  -0.000008   0.000024   0.000013  -0.000872   0.004512
    26  H    0.031990   0.000002  -0.000029   0.000007  -0.003315  -0.001196
    27  H    0.010572  -0.000000   0.000000   0.000000  -0.000012   0.000013
    28  H   -0.013315   0.000000  -0.000000   0.000000   0.000003  -0.000000
    29  H    0.016209  -0.000000  -0.000000  -0.000000  -0.000003  -0.000052
    30  H    0.029544  -0.000000   0.000000  -0.000000   0.000000  -0.000001
    31  H    0.008377   0.000000   0.000000  -0.000000   0.000000  -0.000000
    32  H   -0.009979  -0.000001   0.000000  -0.000000   0.000000  -0.000000
    33  H   -0.002884   0.000000   0.000000  -0.000000   0.000000  -0.000000
    34  H   -0.000562  -0.000000  -0.000000   0.000000  -0.000000   0.000000
    35  H    0.001354  -0.000000  -0.000000  -0.000000  -0.000000   0.000000
              25         26         27         28         29         30
     1  C   -0.002938   0.000957   0.000002  -0.000146   0.000090  -0.001784
     2  N    0.018258   0.004165   0.000164  -0.000970  -0.000488   0.000295
     3  C   -0.094323  -0.020327  -0.000042  -0.004429   0.002710  -0.000906
     4  C    0.486190   0.364110  -0.008983   0.008400   0.002250   0.001365
     5  N   -0.073654  -0.038850  -0.046218  -0.043027  -0.076423   0.000584
     6  C    0.003242  -0.003846   0.393645   0.428614   0.435099   0.000691
     7  C    0.115362  -0.025492   0.007263  -0.057745  -0.046002   0.002716
     8  C   -0.030049   0.005508  -0.009722   0.060244   0.074554  -0.037965
     9  C    0.025275  -0.007620   0.001750  -0.020283  -0.080670   0.043895
    10  N   -0.000241   0.000039   0.000424  -0.004895   0.002425  -0.001365
    11  C   -0.024875   0.003024   0.001585   0.002642   0.000968   0.211796
    12  C    0.001763  -0.000316  -0.000696   0.001752   0.000371  -0.047104
    13  C   -0.000393   0.000015  -0.000024   0.000205   0.000013   0.003745
    14  C    0.000010  -0.000001  -0.000001   0.000033  -0.000009   0.007058
    15  O    0.000000   0.000000  -0.000000   0.000000  -0.000000   0.000089
    16  C   -0.048958   0.007625   0.001798   0.000392   0.008627   0.049160
    17  C   -0.008962   0.000645   0.000060  -0.000472   0.001491   0.002194
    18  N    0.000038  -0.000002  -0.000000   0.000002  -0.000000   0.000510
    19  C   -0.069832   0.031990   0.010572  -0.013315   0.016209   0.029544
    20  H   -0.000008   0.000002  -0.000000   0.000000  -0.000000  -0.000000
    21  H    0.000024  -0.000029   0.000000  -0.000000  -0.000000   0.000000
    22  H    0.000013   0.000007   0.000000   0.000000  -0.000000  -0.000000
    23  H   -0.000872  -0.003315  -0.000012   0.000003  -0.000003   0.000000
    24  H    0.004512  -0.001196   0.000013  -0.000000  -0.000052  -0.000001
    25  H    0.570252  -0.030671   0.000095   0.000381  -0.000302   0.000001
    26  H   -0.030671   0.569067   0.003099  -0.000144   0.000571  -0.000000
    27  H    0.000095   0.003099   0.555112  -0.023351  -0.024805  -0.000000
    28  H    0.000381  -0.000144  -0.023351   0.523298  -0.037075   0.000005
    29  H   -0.000302   0.000571  -0.024805  -0.037075   0.559125  -0.000012
    30  H    0.000001  -0.000000  -0.000000   0.000005  -0.000012   0.543220
    31  H   -0.000000  -0.000000  -0.000000  -0.000001   0.000000   0.003606
    32  H   -0.000000   0.000000   0.000000  -0.000000  -0.000000   0.000631
    33  H    0.000000   0.000000  -0.000000   0.000000  -0.000000  -0.000013
    34  H   -0.000000   0.000000  -0.000000  -0.000000   0.000000   0.000056
    35  H    0.000000   0.000000  -0.000000   0.000000  -0.000000   0.000001
              31         32         33         34         35
     1  C   -0.000209  -0.000267  -0.000001   0.000003   0.000000
     2  N   -0.000107  -0.000131   0.000004   0.000004  -0.000001
     3  C   -0.000186  -0.000108   0.000003   0.000000  -0.000006
     4  C    0.000343   0.000039  -0.000005   0.000001   0.000009
     5  N   -0.000267   0.000028  -0.000000   0.000003   0.000001
     6  C    0.000563   0.000015  -0.000000   0.000008   0.000003
     7  C    0.010362  -0.003083  -0.000442  -0.002689   0.000704
     8  C    0.031948  -0.009340  -0.004879  -0.014029   0.000348
     9  C   -0.032130  -0.005005   0.000234   0.004255   0.000121
    10  N    0.001928   0.000012  -0.000002  -0.000023  -0.000005
    11  C   -0.102543   0.021845  -0.005370   0.011452  -0.007292
    12  C    0.313092  -0.055495  -0.007123  -0.033832   0.005962
    13  C    0.052162   0.386339  -0.164244  -0.122176   0.083265
    14  C   -0.031853  -0.014036   0.559775   0.505972  -0.073691
    15  O    0.004779   0.007735  -0.058357  -0.059815   0.203276
    16  C    0.047041  -0.047655  -0.003070   0.012781   0.007805
    17  C    0.002062   0.039442  -0.000701  -0.004618  -0.002940
    18  N   -0.000342  -0.000994  -0.000281   0.000037   0.000140
    19  C    0.008377  -0.009979  -0.002884  -0.000562   0.001354
    20  H    0.000000  -0.000001   0.000000  -0.000000  -0.000000
    21  H    0.000000   0.000000   0.000000  -0.000000  -0.000000
    22  H   -0.000000  -0.000000  -0.000000   0.000000  -0.000000
    23  H    0.000000   0.000000   0.000000  -0.000000  -0.000000
    24  H   -0.000000  -0.000000  -0.000000   0.000000   0.000000
    25  H   -0.000000  -0.000000   0.000000  -0.000000   0.000000
    26  H   -0.000000   0.000000   0.000000   0.000000   0.000000
    27  H   -0.000000   0.000000  -0.000000  -0.000000  -0.000000
    28  H   -0.000001  -0.000000   0.000000  -0.000000   0.000000
    29  H    0.000000  -0.000000  -0.000000   0.000000  -0.000000
    30  H    0.003606   0.000631  -0.000013   0.000056   0.000001
    31  H    0.537290   0.004177   0.000153   0.001334  -0.000007
    32  H    0.004177   0.550394  -0.007579   0.003805  -0.000148
    33  H    0.000153  -0.007579   0.635478  -0.052650  -0.005628
    34  H    0.001334   0.003805  -0.052650   0.624913  -0.005808
    35  H   -0.000007  -0.000148  -0.005628  -0.005808   0.438687
 Mulliken charges:
               1
     1  C   -0.235472
     2  N   -0.115854
     3  C   -0.162342
     4  C   -0.205737
     5  N   -0.126306
     6  C   -0.243902
     7  C    0.037088
     8  C   -0.506472
     9  C    0.469011
    10  N   -0.647051
    11  C    0.925011
    12  C   -0.349453
    13  C    0.232922
    14  C   -0.441336
    15  O   -0.542295
    16  C    0.067531
    17  C   -0.072998
    18  N   -0.605989
    19  C   -0.105962
    20  H    0.167090
    21  H    0.143583
    22  H    0.151292
    23  H    0.146796
    24  H    0.160912
    25  H    0.160666
    26  H    0.140985
    27  H    0.138273
    28  H    0.179885
    29  H    0.161337
    30  H    0.187990
    31  H    0.148429
    32  H    0.139360
    33  H    0.117581
    34  H    0.131577
    35  H    0.353852
 Sum of Mulliken charges =  -0.00000
 Mulliken charges with hydrogens summed into heavy atoms:
               1
     1  C    0.226493
     2  N   -0.115854
     3  C    0.145366
     4  C    0.095914
     5  N   -0.126306
     6  C    0.235592
     7  C    0.037088
     8  C   -0.506472
     9  C    0.469011
    10  N   -0.647051
    11  C    1.113000
    12  C   -0.201024
    13  C    0.372282
    14  C   -0.192178
    15  O   -0.188444
    16  C    0.067531
    17  C   -0.072998
    18  N   -0.605989
    19  C   -0.105962
 Electronic spatial extent (au):  <R**2>=           5327.5795
 Charge=             -0.0000 electrons
 Dipole moment (field-independent basis, Debye):
    X=             -3.9933    Y=             -1.3880    Z=              1.8457  Tot=              4.6130
 Quadrupole moment (field-independent basis, Debye-Ang):
   XX=            -83.0531   YY=           -138.9091   ZZ=           -113.4927
   XY=             12.7654   XZ=              0.3168   YZ=             -2.6981
 Traceless Quadrupole moment (field-independent basis, Debye-Ang):
   XX=             28.7652   YY=            -27.0908   ZZ=             -1.6744
   XY=             12.7654   XZ=              0.3168   YZ=             -2.6981
 Octapole moment (field-independent basis, Debye-Ang**2):
  XXX=             38.7650  YYY=            -79.1176  ZZZ=             17.1144  XYY=            -39.7181
  XXY=             31.2114  XXZ=             47.7969  XZZ=              5.3697  YZZ=              7.6238
  YYZ=             40.1894  XYZ=             -0.2440
 Hexadecapole moment (field-independent basis, Debye-Ang**3):
 XXXX=          -3309.1970 YYYY=          -3034.5173 ZZZZ=           -525.9590 XXXY=             88.8044
 XXXZ=            191.7313 YYYX=            140.9533 YYYZ=            -16.1778 ZZZX=             68.1324
 ZZZY=            -11.7360 XXYY=          -1106.0624 XXZZ=           -707.3522 YYZZ=           -541.4048
 XXYZ=             15.6669 YYXZ=             37.3406 ZZXY=             35.1883
 N-N= 1.389242006946D+03 E-N=-4.721871698292D+03  KE= 8.295066155538D+02
 Unable to Open any file for archive entry.
 1\1\GINC-N1\SP\RB3LYP TD-FC\6-31+G(d,p)\C14H16N4O1\HPCMGAC13\29-Aug-20
 25\0\\# td=(50-50,nstates=3) b3lyp/6-31+g(d,p) geom=connectivity\\Titl
 e Card Required\\0,1\C,0,2.717,0.054,3.0839\N,0,2.7903,-0.1092,1.6248\
 C,0,3.961,-0.7828,0.9013\C,0,3.4663,-1.7816,-0.1492\N,0,2.6399,-1.0849
 ,-1.2352\C,0,2.8189,-1.321,-2.675\C,0,1.6338,-0.1407,-0.6692\C,0,0.560
 6,0.4005,-1.2656\C,0,0.1647,0.1409,-2.4903\N,0,-0.1844,-0.0881,-3.5704
 \C,0,-0.1188,1.348,-0.3198\C,0,-1.5244,0.9177,-0.0365\C,0,-2.2912,1.63
 93,0.7875\C,0,-3.6968,1.209,1.0707\O,0,-3.6877,-0.0682,1.6488\C,0,0.74
 16,1.2386,0.9056\C,0,0.5523,1.8997,2.0241\N,0,0.3854,2.4829,3.0106\C,0
 ,1.7334,0.3625,0.6841\H,0,1.7693,0.5721,3.3527\H,0,2.7429,-0.9468,3.57
 04\H,0,3.5828,0.6598,3.4333\H,0,4.5858,-1.3223,1.6479\H,0,4.5546,0.004
 5,0.3852\H,0,2.8338,-2.5491,0.3506\H,0,4.3524,-2.2528,-0.6304\H,0,3.63
 ,-2.0669,-2.8312\H,0,1.8698,-1.7096,-3.1075\H,0,3.0922,-0.3656,-3.1763
 \H,0,-0.2095,2.3854,-0.7126\H,0,-1.9263,0.0079,-0.5063\H,0,-1.8892,2.5
 491,1.2572\H,0,-4.1705,1.9304,1.7736\H,0,-4.2749,1.1818,0.1201\H,0,-4.
 5858,-0.3017,1.811\\Version=ES64L-G16RevC.02\State=1-A\HF=-837.245475\
 RMSD=3.297e-09\PG=C01 [X(C14H16N4O1)]\\@
 The archive entry for this job was punched.


 DIATOMIC MOLECULES ARE PECULIAR BECAUSE THEY ONLY HAVE TWO ENDS,
 AND THESE ENDS ARE VERY CLOSE TOGETHER.
 KLAUS RUEDENBERG, REV.MOD.PHYS. PG 176, 32, (1960)
 Job cpu time:       0 days  1 hours 12 minutes 13.0 seconds.
 Elapsed time:       0 days  0 hours  9 minutes 10.5 seconds.
 File lengths (MBytes):  RWF=   1117 Int=      0 D2E=      0 Chk=     51 Scr=      2
 Normal termination of Gaussian 16 at Fri Aug 29 22:34:33 2025.
