 Entering Gaussian System, Link 0=g16
 Input=M975e.gjf
 Output=M975e.log
 Initial command:
 /hpc/softwares/Gaussian/g16/l1.exe "/hpc/home/hpcmgac13/pbs.13681.admin1.x8z/Gau-695611.inp" -scrdir="/hpc/home/hpcmgac13/pbs.13681.admin1.x8z/"
 Default linda workers: n1
 Default is to use   8 SMP processors on each worker.
 Entering Link 1 = /hpc/softwares/Gaussian/g16/l1.exe PID=    695612.
  
 Copyright (c) 1988-2021, Gaussian, Inc.  All Rights Reserved.
  
 This is part of the Gaussian(R) 16 program.  It is based on
 the Gaussian(R) 09 system (copyright 2009, Gaussian, Inc.),
 the Gaussian(R) 03 system (copyright 2003, Gaussian, Inc.),
 the Gaussian(R) 98 system (copyright 1998, Gaussian, Inc.),
 the Gaussian(R) 94 system (copyright 1995, Gaussian, Inc.),
 the Gaussian 92(TM) system (copyright 1992, Gaussian, Inc.),
 the Gaussian 90(TM) system (copyright 1990, Gaussian, Inc.),
 the Gaussian 88(TM) system (copyright 1988, Gaussian, Inc.),
 the Gaussian 86(TM) system (copyright 1986, Carnegie Mellon
 University), and the Gaussian 82(TM) system (copyright 1983,
 Carnegie Mellon University). Gaussian is a federally registered
 trademark of Gaussian, Inc.
  
 This software contains proprietary and confidential information,
 including trade secrets, belonging to Gaussian, Inc.
  
 This software is provided under written license and may be
 used, copied, transmitted, or stored only in accord with that
 written license.
  
 The following legend is applicable only to US Government
 contracts under FAR:
  
                    RESTRICTED RIGHTS LEGEND
  
 Use, reproduction and disclosure by the US Government is
 subject to restrictions as set forth in subparagraphs (a)
 and (c) of the Commercial Computer Software - Restricted
 Rights clause in FAR 52.227-19.
  
 Gaussian, Inc.
 340 Quinnipiac St., Bldg. 40, Wallingford CT 06492
  
  
 ---------------------------------------------------------------
 Warning -- This program may not be used in any manner that
 competes with the business of Gaussian, Inc. or will provide
 assistance to any competitor of Gaussian, Inc.  The licensee
 of this program is prohibited from giving any competitor of
 Gaussian, Inc. access to this program.  By using this program,
 the user acknowledges that Gaussian, Inc. is engaged in the
 business of creating and licensing software in the field of
 computational chemistry and represents and warrants to the
 licensee that it is not a competitor of Gaussian, Inc. and that
 it will not use this program in any manner prohibited above.
 ---------------------------------------------------------------
  

 Cite this work as:
 Gaussian 16, Revision C.02,
 M. J. Frisch, G. W. Trucks, H. B. Schlegel, G. E. Scuseria, 
 M. A. Robb, J. R. Cheeseman, G. Scalmani, V. Barone, 
 G. A. Petersson, H. Nakatsuji, X. Li, M. Caricato, A. V. Marenich, 
 J. Bloino, B. G. Janesko, R. Gomperts, B. Mennucci, H. P. Hratchian, 
 J. V. Ortiz, A. F. Izmaylov, J. L. Sonnenberg, D. Williams-Young, 
 F. Ding, F. Lipparini, F. Egidi, J. Goings, B. Peng, A. Petrone, 
 T. Henderson, D. Ranasinghe, V. G. Zakrzewski, J. Gao, N. Rega, 
 G. Zheng, W. Liang, M. Hada, M. Ehara, K. Toyota, R. Fukuda, 
 J. Hasegawa, M. Ishida, T. Nakajima, Y. Honda, O. Kitao, H. Nakai, 
 T. Vreven, K. Throssell, J. A. Montgomery, Jr., J. E. Peralta, 
 F. Ogliaro, M. J. Bearpark, J. J. Heyd, E. N. Brothers, K. N. Kudin, 
 V. N. Staroverov, T. A. Keith, R. Kobayashi, J. Normand, 
 K. Raghavachari, A. P. Rendell, J. C. Burant, S. S. Iyengar, 
 J. Tomasi, M. Cossi, J. M. Millam, M. Klene, C. Adamo, R. Cammi, 
 J. W. Ochterski, R. L. Martin, K. Morokuma, O. Farkas, 
 J. B. Foresman, and D. J. Fox, Gaussian, Inc., Wallingford CT, 2019.
 
 ******************************************
 Gaussian 16:  ES64L-G16RevC.02  7-Dec-2021
                29-Aug-2025 
 ******************************************
 SetLPE:    new flags="-opt 'Tsnet.Node.lindarsharg: ssh'  -nodelist 'n1' -env GAUSS_MDEF=2147483648 -env GAUSS_EXEDIR="/hpc/softwares/Gaussian/g16/bsd:/hpc/softwares/Gaussian/g16""
 Will use up to    1 processors via Linda.
 ----------------------------------------------------------
 # td=(50-50,nstates=3) b3lyp/6-31+g(d,p) geom=connectivity
 ----------------------------------------------------------
 1/38=1,57=2,172=1/1;
 2/12=2,17=6,18=5,40=1/2;
 3/5=1,6=6,7=111,11=9,25=1,30=1,74=-5/1,2,3,8;
 4//1;
 5/5=2,38=5/2;
 8/6=1,10=2,108=3/1;
 9/41=3,42=1,48=2,70=2/14;
 6/7=2,8=2,9=2,10=2/1;
 99/5=1,9=1/99;
 -------------------
 Title Card Required
 -------------------
 Symbolic Z-matrix:
 Charge =  0 Multiplicity = 1
 C                    -3.45863  -2.12296   0.00153 
 C                    -2.87224  -0.90239   0.00028 
 C                    -3.73701   0.24917  -0.00112 
 N                    -4.48916   1.13675  -0.00225 
 C                    -1.42024  -0.73392   0.00001 
 C                    -0.56871   0.33011   0.00021 
 C                    -0.93097   1.8       0.00082 
 C                    -0.45867   2.52319   1.281 
 C                    -0.45922   2.52414  -1.27901 
 C                     0.78832  -0.23695  -0.00012 
 C                     1.98849   0.39179  -0.00004 
 C                     3.3584   -0.22415  -0.00042 
 C                     4.12142   0.20988  -1.27081 
 C                     4.12168   0.20881   1.27018 
 C                     0.61321  -1.71937  -0.00033 
 O                     1.40336  -2.63225  -0.00051 
 O                    -0.74876  -1.95852  -0.00029 
 H                    -2.85819  -3.02384   0.00242 
 H                    -4.53805  -2.21617   0.0016 
 H                    -2.01994   1.86354   0.00108 
 H                    -0.83653   3.55099   1.28363 
 H                    -0.83784   2.02269   2.17751 
 H                     0.63148   2.57034   1.35926 
 H                    -0.83678   3.55205  -1.28057 
 H                    -0.83906   2.02451  -2.17572 
 H                     0.6309    2.57102  -1.35786 
 H                     1.98466   1.4808    0.00025 
 H                     3.26602  -1.31179  -0.00086 
 H                     5.12702  -0.22411  -1.27018 
 H                     3.60875  -0.12434  -2.17813 
 H                     4.22656   1.30082  -1.31948 
 H                     5.12728  -0.22516   1.26898 
 H                     3.60919  -0.12621   2.17731 
 H                     4.2268    1.29971   1.31976 
 
                          Input orientation:                          
 ---------------------------------------------------------------------
 Center     Atomic      Atomic             Coordinates (Angstroms)
 Number     Number       Type             X           Y           Z
 ---------------------------------------------------------------------
      1          6           0       -3.458626   -2.122958    0.001530
      2          6           0       -2.872240   -0.902385    0.000280
      3          6           0       -3.737010    0.249168   -0.001124
      4          7           0       -4.489164    1.136753   -0.002248
      5          6           0       -1.420238   -0.733923    0.000014
      6          6           0       -0.568706    0.330108    0.000212
      7          6           0       -0.930970    1.800000    0.000817
      8          6           0       -0.458673    2.523187    1.280996
      9          6           0       -0.459218    2.524143   -1.279008
     10          6           0        0.788322   -0.236950   -0.000119
     11          6           0        1.988492    0.391786   -0.000043
     12          6           0        3.358400   -0.224145   -0.000418
     13          6           0        4.121422    0.209881   -1.270807
     14          6           0        4.121676    0.208807    1.270181
     15          6           0        0.613205   -1.719374   -0.000330
     16          8           0        1.403364   -2.632253   -0.000509
     17          8           0       -0.748761   -1.958522   -0.000287
     18          1           0       -2.858185   -3.023836    0.002418
     19          1           0       -4.538046   -2.216170    0.001598
     20          1           0       -2.019938    1.863540    0.001082
     21          1           0       -0.836526    3.550988    1.283630
     22          1           0       -0.837838    2.022690    2.177513
     23          1           0        0.631475    2.570338    1.359258
     24          1           0       -0.836779    3.552053   -1.280566
     25          1           0       -0.839056    2.024508   -2.175721
     26          1           0        0.630901    2.571024   -1.357860
     27          1           0        1.984656    1.480795    0.000250
     28          1           0        3.266015   -1.311789   -0.000857
     29          1           0        5.127024   -0.224105   -1.270176
     30          1           0        3.608754   -0.124339   -2.178128
     31          1           0        4.226564    1.300820   -1.319476
     32          1           0        5.127285   -0.225159    1.268984
     33          1           0        3.609192   -0.126212    2.177313
     34          1           0        4.226803    1.299705    1.319760
 ---------------------------------------------------------------------
                    Distance matrix (angstroms):
                    1          2          3          4          5
     1  C    0.000000
     2  C    1.354123   0.000000
     3  C    2.388407   1.440105   0.000000
     4  N    3.418733   2.602409   1.163419   0.000000
     5  C    2.466667   1.461742   2.516724   3.594126   0.000000
     6  C    3.790669   2.612529   3.169338   4.002583   1.362816
     7  C    4.666760   3.327373   3.206079   3.619482   2.580727
     8  C    5.676567   4.381790   4.190762   4.451266   3.629640
     9  C    5.677303   4.381820   4.189561   4.449206   3.629663
    10  C    4.646891   3.720553   4.551367   5.453341   2.263784
    11  C    5.999586   5.030069   5.727278   6.520353   3.589800
    12  C    7.076534   6.267446   7.111179   7.964691   4.805752
    13  C    8.032316   7.194728   7.960439   8.752744   5.763310
    14  C    8.031661   7.194599   7.960954   8.753669   5.763235
    15  C    4.091783   3.579916   4.774885   5.847361   2.259647
    16  O    4.888592   4.612292   5.892880   6.994805   3.402409
    17  O    2.714850   2.371622   3.715310   4.855033   1.396612
    18  H    1.082641   2.121499   3.388938   4.468849   2.703960
    19  H    1.083437   2.121542   2.592211   3.353282   3.452215
    20  H    4.238159   2.894263   2.356807   2.573967   2.665794
    21  H    6.380662   5.061981   4.578801   4.563308   4.510970
    22  H    5.365615   4.175548   4.036959   4.343780   3.560844
    23  H    6.371764   5.116898   5.130510   5.489063   4.120098
    24  H    6.381505   5.062182   4.577921   4.561544   4.511086
    25  H    5.366940   4.175586   4.034705   4.339975   3.560974
    26  H    6.372255   5.116748   5.129366   5.487247   4.119911
    27  H    6.528120   5.410082   5.852723   6.482956   4.061807
    28  H    6.773389   6.151893   7.174883   8.132537   4.721747
    29  H    8.884608   8.127875   8.966916   9.794419   6.688792
    30  H    7.661152   6.881432   7.670665   8.479451   5.514223
    31  H    8.516423   7.549098   8.140180   8.816231   6.145535
    32  H    8.884028   8.127770   8.967379   9.795250   6.688736
    33  H    7.659966   6.881197   7.671583   8.481093   5.514083
    34  H    8.515760   7.548950   8.140681   8.817162   6.145441
                    6          7          8          9         10
     6  C    0.000000
     7  C    1.513875   0.000000
     8  C    2.542068   1.544319   0.000000
     9  C    2.542082   1.544307   2.560004   0.000000
    10  C    1.470741   2.665545   3.288557   3.288700   0.000000
    11  C    2.557942   3.241346   3.488918   3.489123   1.354886
    12  C    3.966026   4.742980   4.874413   4.874637   2.570110
    13  C    4.860786   5.447217   5.730650   5.132070   3.594977
    14  C    4.860784   5.447239   5.131868   5.730945   3.594942
    15  C    2.365859   3.843237   4.559610   4.559884   1.492731
    16  O    3.558742   5.009390   5.629209   5.629582   2.473005
    17  O    2.295702   3.762936   4.670284   4.670466   2.307907
    18  H    4.060869   5.194570   6.177531   6.178767   4.589526
    19  H    4.715845   5.398205   6.382762   6.383366   5.682210
    20  H    2.111277   1.090820   2.123879   2.123882   3.506905
    21  H    3.477493   2.172668   1.095059   2.786375   4.317015
    22  H    2.770903   2.190039   1.094535   3.513167   3.534466
    23  H    2.882025   2.209076   1.093970   2.855204   3.123039
    24  H    3.477526   2.172672   2.786239   1.095059   4.317064
    25  H    2.771058   2.190016   3.513156   1.094535   3.534939
    26  H    2.881861   2.209055   2.855350   1.093972   3.122973
    27  H    2.800667   2.933047   2.949025   2.949169   2.093290
    28  H    4.171440   5.224741   5.497589   5.497764   2.700785
    29  H    5.861943   6.512428   6.727266   6.225676   4.520790
    30  H    4.733166   5.390731   5.959773   4.936727   3.565283
    31  H    5.067393   5.347197   5.496188   4.843006   3.990858
    32  H    5.861947   6.512447   6.225470   6.727551   4.520770
    33  H    4.733163   5.390779   4.936621   5.960075   3.565218
    34  H    5.067369   5.347198   4.842736   5.496511   3.990807
                   11         12         13         14         15
    11  C    0.000000
    12  C    1.502005   0.000000
    13  C    2.489442   1.544173   0.000000
    14  C    2.489463   1.544170   2.540988   0.000000
    15  C    2.519605   3.125989   4.200443   4.200172   0.000000
    16  O    3.080128   3.101798   4.132702   4.132251   1.207352
    17  O    3.607839   4.458344   5.480408   5.480197   1.382803
    18  H    5.929313   6.817933   7.796983   7.795875   3.708393
    19  H    7.028310   8.143834   9.082462   9.081883   5.175152
    20  H    4.270079   5.769311   6.486031   6.485998   4.446427
    21  H    4.428216   5.787729   6.501492   5.979475   5.614890
    22  H    3.922976   5.234507   6.306461   5.358190   4.566352
    23  H    2.904356   4.134486   4.966762   4.215005   4.500049
    24  H    4.428226   5.787744   5.979462   6.501529   5.615105
    25  H    3.923568   5.235171   5.358925   6.307129   4.567060
    26  H    2.904445   4.134594   4.215010   4.967110   4.500080
    27  H    1.089016   2.189519   2.792235   2.792406   3.481660
    28  H    2.129374   1.091561   2.158697   2.158681   2.683939
    29  H    3.441358   2.177227   1.095253   2.766144   4.921677
    30  H    2.763275   2.194324   1.094424   3.502129   4.032401
    31  H    2.752492   2.195254   1.097074   2.812440   4.890612
    32  H    3.441376   2.177231   2.766145   1.095252   4.921459
    33  H    2.763308   2.194311   3.502124   1.094425   4.031902
    34  H    2.752496   2.195248   2.812447   1.097073   4.890354
                   16         17         18         19         20
    16  O    0.000000
    17  O    2.255118   0.000000
    18  H    4.279503   2.363170   0.000000
    19  H    5.955962   3.798035   1.863936   0.000000
    20  H    5.650766   4.027909   4.958740   4.794257   0.000000
    21  H    6.700641   5.657813   6.996922   6.971726   2.427524
    22  H    5.606716   4.538810   5.854935   6.032751   2.481842
    23  H    5.432470   4.925849   6.731532   7.174806   3.061731
    24  H    6.700927   5.658030   6.998174   6.972497   2.427666
    25  H    5.607621   4.539294   5.857213   6.033788   2.481706
    26  H    5.432605   4.925775   6.732498   7.175191   3.061732
    27  H    4.153922   4.393230   6.613986   7.497546   4.022843
    28  H    2.283220   4.066533   6.359005   7.856289   6.166362
    29  H    4.612686   6.256650   8.556959   9.949840   7.553372
    30  H    3.986904   5.205301   7.415063   8.688919   6.354746
    31  H    5.017888   6.092407   8.404982   9.535871   6.409315
    32  H    4.612299   6.256478   8.555964   9.949322   7.553346
    33  H    3.986079   5.204907   7.413053   8.687874   6.354699
    34  H    5.017491   6.092192   8.403895   9.535277   6.409259
                   21         22         23         24         25
    21  H    0.000000
    22  H    1.770515   0.000000
    23  H    1.767037   1.768711   0.000000
    24  H    2.564196   3.781172   3.176193   0.000000
    25  H    3.781171   4.353235   3.867359   1.770509   0.000000
    26  H    3.176656   3.867393   2.717118   1.767053   1.768714
    27  H    3.727175   3.605634   2.205698   3.727076   3.606081
    28  H    6.490559   5.718886   4.884836   6.490573   5.719486
    29  H    7.505810   7.246670   5.910397   7.058783   6.439750
    30  H    6.726984   6.584339   5.351502   5.838171   4.939693
    31  H    6.121625   6.196628   4.659609   5.541390   5.188197
    32  H    7.058792   6.439017   5.294833   7.505837   7.247359
    33  H    5.838226   4.939014   4.099682   6.727051   6.584938
    34  H    5.541379   5.187392   3.813457   6.121653   6.197310
                   26         27         28         29         30
    26  H    0.000000
    27  H    2.205836   0.000000
    28  H    4.884825   3.072525   0.000000
    29  H    5.294861   3.794093   2.501516   0.000000
    30  H    4.099443   3.155864   2.503601   1.771856   0.000000
    31  H    3.813618   2.607723   3.080120   1.771625   1.774838
    32  H    5.910704   3.794217   2.501517   2.539160   3.768114
    33  H    5.351892   3.156136   2.503555   3.768100   4.355441
    34  H    4.660087   2.607896   3.080105   3.136903   3.826893
                   31         32         33         34
    31  H    0.000000
    32  H    3.136883   0.000000
    33  H    3.826892   1.771852   0.000000
    34  H    2.639236   1.771625   1.774846   0.000000
 Stoichiometry    C14H17NO2
 Framework group  C1[X(C14H17NO2)]
 Deg. of freedom    96
 Full point group                 C1      NOp   1
 Largest Abelian subgroup         C1      NOp   1
 Largest concise Abelian subgroup C1      NOp   1
                         Standard orientation:                         
 ---------------------------------------------------------------------
 Center     Atomic      Atomic             Coordinates (Angstroms)
 Number     Number       Type             X           Y           Z
 ---------------------------------------------------------------------
      1          6           0       -3.458626   -2.122958    0.001530
      2          6           0       -2.872240   -0.902385    0.000280
      3          6           0       -3.737010    0.249168   -0.001124
      4          7           0       -4.489164    1.136753   -0.002248
      5          6           0       -1.420238   -0.733923    0.000014
      6          6           0       -0.568706    0.330108    0.000212
      7          6           0       -0.930970    1.800000    0.000817
      8          6           0       -0.458673    2.523187    1.280996
      9          6           0       -0.459218    2.524143   -1.279008
     10          6           0        0.788322   -0.236950   -0.000119
     11          6           0        1.988492    0.391786   -0.000043
     12          6           0        3.358400   -0.224145   -0.000418
     13          6           0        4.121422    0.209881   -1.270807
     14          6           0        4.121676    0.208807    1.270181
     15          6           0        0.613205   -1.719374   -0.000330
     16          8           0        1.403364   -2.632253   -0.000509
     17          8           0       -0.748761   -1.958522   -0.000287
     18          1           0       -2.858185   -3.023836    0.002418
     19          1           0       -4.538046   -2.216170    0.001598
     20          1           0       -2.019938    1.863540    0.001082
     21          1           0       -0.836526    3.550988    1.283630
     22          1           0       -0.837838    2.022690    2.177513
     23          1           0        0.631475    2.570338    1.359258
     24          1           0       -0.836779    3.552053   -1.280566
     25          1           0       -0.839056    2.024508   -2.175721
     26          1           0        0.630901    2.571024   -1.357860
     27          1           0        1.984656    1.480795    0.000250
     28          1           0        3.266015   -1.311789   -0.000857
     29          1           0        5.127024   -0.224105   -1.270176
     30          1           0        3.608754   -0.124339   -2.178128
     31          1           0        4.226564    1.300820   -1.319476
     32          1           0        5.127285   -0.225159    1.268984
     33          1           0        3.609192   -0.126212    2.177313
     34          1           0        4.226803    1.299705    1.319760
 ---------------------------------------------------------------------
 Rotational constants (GHZ):           0.7477062           0.3053506           0.2396230
 Standard basis: 6-31+G(d,p) (6D, 7F)
 There are   408 symmetry adapted cartesian basis functions of A   symmetry.
 There are   408 symmetry adapted basis functions of A   symmetry.
   408 basis functions,   663 primitive gaussians,   408 cartesian basis functions
    62 alpha electrons       62 beta electrons
       nuclear repulsion energy      1175.6425682729 Hartrees.
 NAtoms=   34 NActive=   34 NUniq=   34 SFac= 1.00D+00 NAtFMM=   60 NAOKFM=F Big=F
 Integral buffers will be    131072 words long.
 Regular integral format.
 Two-electron integral symmetry is turned on.
 One-electron integrals computed using PRISM.
 NBasis=   408 RedAO= T EigKep=  1.43D-06  NBF=   408
 NBsUse=   406 1.00D-06 EigRej=  5.73D-07 NBFU=   406
 ExpMin= 4.38D-02 ExpMax= 5.48D+03 ExpMxC= 8.25D+02 IAcc=3 IRadAn=         5 AccDes= 0.00D+00
 Harris functional with IExCor=  402 and IRadAn=       5 diagonalized for initial guess.
 HarFok:  IExCor=  402 AccDes= 0.00D+00 IRadAn=         5 IDoV= 1 UseB2=F ITyADJ=14
 ICtDFT=  3500011 ScaDFX=  1.000000  1.000000  1.000000  1.000000
 FoFCou: FMM=F IPFlag=           0 FMFlag=      100000 FMFlg1=           0
         NFxFlg=           0 DoJE=T BraDBF=F KetDBF=T FulRan=T
         wScrn=  0.000000 ICntrl=       500 IOpCl=  0 I1Cent=   200000004 NGrid=           0
         NMat0=    1 NMatS0=      1 NMatT0=    0 NMatD0=    1 NMtDS0=    0 NMtDT0=    0
 Petite list used in FoFCou.
 Requested convergence on RMS density matrix=1.00D-08 within 128 cycles.
 Requested convergence on MAX density matrix=1.00D-06.
 Requested convergence on             energy=1.00D-06.
 No special actions if energy rises.
 SCF Done:  E(RB3LYP) =  -748.935721159     A.U. after   16 cycles
            NFock= 16  Conv=0.45D-08     -V/T= 2.0096
 DoSCS=F DFT=T ScalE2(SS,OS)=  1.000000  1.000000
 ExpMin= 4.38D-02 ExpMax= 5.48D+03 ExpMxC= 8.25D+02 IAcc=3 IRadAn=         5 AccDes= 0.00D+00
 HarFok:  IExCor=  205 AccDes= 0.00D+00 IRadAn=         5 IDoV=-2 UseB2=F ITyADJ=14
 ICtDFT= 12500011 ScaDFX=  1.000000  1.000000  1.000000  1.000000
 Range of M.O.s used for correlation:    18   406
 NBasis=   408 NAE=    62 NBE=    62 NFC=    17 NFV=     0
 NROrb=    389 NOA=    45 NOB=    45 NVA=   344 NVB=   344

 **** Warning!!: The largest alpha MO coefficient is  0.16538244D+03

 Orbital symmetries:
       Occupied  (A) (A) (A) (A) (A) (A) (A) (A) (A) (A) (A) (A)
                 (A) (A) (A) (A) (A) (A) (A) (A) (A) (A) (A) (A)
                 (A) (A) (A) (A) (A) (A) (A) (A) (A) (A) (A) (A)
                 (A) (A) (A) (A) (A) (A) (A) (A) (A) (A) (A) (A)
                 (A) (A) (A) (A) (A) (A) (A) (A) (A) (A) (A) (A)
                 (A) (A)
       Virtual   (A) (A) (A) (A) (A) (A) (A) (A) (A) (A) (A) (A)
                 (A) (A) (A) (A) (A) (A) (A) (A) (A) (A) (A) (A)
                 (A) (A) (A) (A) (A) (A) (A) (A) (A) (A) (A) (A)
                 (A) (A) (A) (A) (A) (A) (A) (A) (A) (A) (A) (A)
                 (A) (A) (A) (A) (A) (A) (A) (A) (A) (A) (A) (A)
                 (A) (A) (A) (A) (A) (A) (A) (A) (A) (A) (A) (A)
                 (A) (A) (A) (A) (A) (A) (A) (A) (A) (A) (A) (A)
                 (A) (A) (A) (A) (A) (A) (A) (A) (A) (A) (A) (A)
                 (A) (A) (A) (A) (A) (A) (A) (A) (A) (A) (A) (A)
                 (A) (A) (A) (A) (A) (A) (A) (A) (A) (A) (A) (A)
                 (A) (A) (A) (A) (A) (A) (A) (A) (A) (A) (A) (A)
                 (A) (A) (A) (A) (A) (A) (A) (A) (A) (A) (A) (A)
                 (A) (A) (A) (A) (A) (A) (A) (A) (A) (A) (A) (A)
                 (A) (A) (A) (A) (A) (A) (A) (A) (A) (A) (A) (A)
                 (A) (A) (A) (A) (A) (A) (A) (A) (A) (A) (A) (A)
                 (A) (A) (A) (A) (A) (A) (A) (A) (A) (A) (A) (A)
                 (A) (A) (A) (A) (A) (A) (A) (A) (A) (A) (A) (A)
                 (A) (A) (A) (A) (A) (A) (A) (A) (A) (A) (A) (A)
                 (A) (A) (A) (A) (A) (A) (A) (A) (A) (A) (A) (A)
                 (A) (A) (A) (A) (A) (A) (A) (A) (A) (A) (A) (A)
                 (A) (A) (A) (A) (A) (A) (A) (A) (A) (A) (A) (A)
                 (A) (A) (A) (A) (A) (A) (A) (A) (A) (A) (A) (A)
                 (A) (A) (A) (A) (A) (A) (A) (A) (A) (A) (A) (A)
                 (A) (A) (A) (A) (A) (A) (A) (A) (A) (A) (A) (A)
                 (A) (A) (A) (A) (A) (A) (A) (A) (A) (A) (A) (A)
                 (A) (A) (A) (A) (A) (A) (A) (A) (A) (A) (A) (A)
                 (A) (A) (A) (A) (A) (A) (A) (A) (A) (A) (A) (A)
                 (A) (A) (A) (A) (A) (A) (A) (A) (A) (A) (A) (A)
                 (A) (A) (A) (A) (A) (A) (A) (A)
    24 initial guesses have been made.
 Convergence on wavefunction:    0.001000000000000
 Iteration     1 Dimension    24 NMult     0 NNew     24
 CISAX will form    24 AO SS matrices at one time.
 New state      1 was old state      2
 New state      2 was old state      4
 New state      3 was old state      6
 New state      4 was old state      1
 New state      6 was old state      3
 New state      7 was old state      8
 New state      8 was old state     10
 New state      9 was old state     14
 New state     10 was old state     13
 New state     11 was old state     20
 Iteration     2 Dimension    36 NMult    24 NNew     12
 New state      3 was old state      4
 New state      4 was old state      3
 Iteration     3 Dimension    48 NMult    36 NNew     12
 Iteration     4 Dimension    60 NMult    48 NNew     12
 Iteration     5 Dimension    72 NMult    60 NNew     12
 Iteration     6 Dimension    74 NMult    72 NNew      2
 ***********************************************************************
 Excited states from <AA,BB:AA,BB> singles matrix:
 ***********************************************************************
 
 Ground to excited state transition densities written to RWF  633
 Ground to excited state transition electric dipole moments (Au):
       state          X           Y           Z        Dip. S.      Osc.
         1        -0.0000      0.0000      0.0000      0.0000      0.0000
         2        -0.0000     -0.0000     -0.0000      0.0000      0.0000
         3         1.8670      1.0918     -0.0002      4.6779      0.4069
         4        -0.0000     -0.0000      0.0000      0.0000      0.0000
         5         0.0006      0.0003     -0.0005      0.0000      0.0000
         6         0.5159      0.2550     -0.0003      0.3312      0.0337
 Ground to excited state transition velocity dipole moments (Au):
       state          X           Y           Z        Dip. S.      Osc.
         1        -0.0000     -0.0000     -0.0000      0.0000      0.0000
         2         0.0000      0.0000      0.0000      0.0000      0.0000
         3        -0.2319     -0.1435      0.0000      0.0744      0.3799
         4         0.0000      0.0000      0.0000      0.0000      0.0000
         5        -0.0001     -0.0001     -0.0015      0.0000      0.0000
         6        -0.0790     -0.0354      0.0001      0.0075      0.0327
 Ground to excited state transition magnetic dipole moments (Au):
       state          X           Y           Z
         1         0.0000      0.0000      0.0000
         2        -0.0000     -0.0000     -0.0000
         3        -0.0000      0.0001      0.3617
         4        -0.0000     -0.0000     -0.0000
         5        -0.1344      0.2528      0.0001
         6        -0.0000      0.0000      0.2070
 Ground to excited state transition velocity quadrupole moments (Au):
       state          XX          YY          ZZ          XY          XZ          YZ
         1         0.0000      0.0000      0.0000      0.0000     -0.0000      0.0000
         2        -0.0000      0.0000     -0.0000     -0.0000      0.0000     -0.0000
         3         0.1665      0.3996     -0.1130      0.3560     -0.0002     -0.0002
         4        -0.0000     -0.0000     -0.0000     -0.0000     -0.0000     -0.0000
         5         0.0007      0.0000      0.0000      0.0005     -0.0065      0.0011
         6         0.7205     -0.0327      0.0254      0.5821     -0.0003     -0.0003
 <0|del|b> * <b|rxdel|0> + <0|del|b> * <b|delr+rdel|0>
 Rotatory Strengths (R) in cgs (10**-40 erg-esu-cm/Gauss)
       state          XX          YY          ZZ    R(velocity)    E-M Angle
         1        -0.0000     -0.0000      0.0000     -0.0000       90.00
         2        -0.0000     -0.0000      0.0000     -0.0000       90.00
         3        -0.0640      0.1425     -0.0848     -0.0021       90.00
         4        -0.0000     -0.0000      0.0000     -0.0000       90.00
         5        -0.0329      0.0306      0.0006     -0.0006       90.00
         6         0.0686      0.0165     -0.0294      0.0186       90.00
 1/2[<0|r|b>*<b|rxdel|0> + (<0|rxdel|b>*<b|r|0>)*]
 Rotatory Strengths (R) in cgs (10**-40 erg-esu-cm/Gauss)
       state          XX          YY          ZZ     R(length)
         1         0.0000     -0.0000     -0.0000      0.0000
         2        -0.0000     -0.0000     -0.0000     -0.0000
         3         0.0027     -0.0643      0.0568     -0.0016
         4        -0.0000     -0.0000      0.0000     -0.0000
         5         0.0601     -0.0603      0.0000     -0.0000
         6         0.0085     -0.0020      0.0381      0.0149
  1/2[<0|del|b>*<b|r|0> + (<0|r|b>*<b|del|0>)*] (Au)
       state          X           Y           Z        Dip. S.   Osc.(frdel)
         1         0.0000     -0.0000     -0.0000      0.0000      0.0000
         2        -0.0000     -0.0000     -0.0000      0.0000      0.0000
         3        -0.4330     -0.1566     -0.0000      0.5896      0.3931
         4        -0.0000     -0.0000      0.0000      0.0000      0.0000
         5        -0.0000     -0.0000      0.0000     -0.0000     -0.0000
         6        -0.0408     -0.0090     -0.0000      0.0498      0.0332

 Excitation energies and oscillator strengths:
 
 Excited State   1:      Triplet-A      1.7357 eV  714.33 nm  f=0.0000  <S**2>=2.000
      60 -> 64         0.13295
      62 -> 63         0.70000
      62 <- 63         0.15698
 This state for optimization and/or second-order correction.
 Total Energy, E(TD-HF/TD-DFT) =  -748.871936465    
 Copying the excited state density for this state as the 1-particle RhoCI density.
 
 Excited State   2:      Triplet-A      2.9633 eV  418.40 nm  f=0.0000  <S**2>=2.000
      59 -> 63         0.10918
      60 -> 63         0.34274
      62 -> 64         0.58534
 
 Excited State   3:      Singlet-A      3.5504 eV  349.21 nm  f=0.4069  <S**2>=0.000
      62 -> 63         0.69043
 
 Excited State   4:      Triplet-A      3.8187 eV  324.68 nm  f=0.0000  <S**2>=2.000
      61 -> 63         0.62680
      61 -> 64        -0.30051
 
 Excited State   5:      Singlet-A      4.0833 eV  303.64 nm  f=0.0000  <S**2>=0.000
      61 -> 63         0.67118
      61 -> 64        -0.20965
 
 Excited State   6:      Singlet-A      4.1579 eV  298.19 nm  f=0.0337  <S**2>=0.000
      60 -> 63        -0.19653
      62 -> 64         0.66861
 SavETr:  write IOETrn=   770 NScale= 10 NData=  16 NLR=1 NState=    6 LETran=     118.

 **********************************************************************

            Population analysis using the SCF Density.

 **********************************************************************

 Orbital symmetries:
       Occupied  (A) (A) (A) (A) (A) (A) (A) (A) (A) (A) (A) (A)
                 (A) (A) (A) (A) (A) (A) (A) (A) (A) (A) (A) (A)
                 (A) (A) (A) (A) (A) (A) (A) (A) (A) (A) (A) (A)
                 (A) (A) (A) (A) (A) (A) (A) (A) (A) (A) (A) (A)
                 (A) (A) (A) (A) (A) (A) (A) (A) (A) (A) (A) (A)
                 (A) (A)
       Virtual   (A) (A) (A) (A) (A) (A) (A) (A) (A) (A) (A) (A)
                 (A) (A) (A) (A) (A) (A) (A) (A) (A) (A) (A) (A)
                 (A) (A) (A) (A) (A) (A) (A) (A) (A) (A) (A) (A)
                 (A) (A) (A) (A) (A) (A) (A) (A) (A) (A) (A) (A)
                 (A) (A) (A) (A) (A) (A) (A) (A) (A) (A) (A) (A)
                 (A) (A) (A) (A) (A) (A) (A) (A) (A) (A) (A) (A)
                 (A) (A) (A) (A) (A) (A) (A) (A) (A) (A) (A) (A)
                 (A) (A) (A) (A) (A) (A) (A) (A) (A) (A) (A) (A)
                 (A) (A) (A) (A) (A) (A) (A) (A) (A) (A) (A) (A)
                 (A) (A) (A) (A) (A) (A) (A) (A) (A) (A) (A) (A)
                 (A) (A) (A) (A) (A) (A) (A) (A) (A) (A) (A) (A)
                 (A) (A) (A) (A) (A) (A) (A) (A) (A) (A) (A) (A)
                 (A) (A) (A) (A) (A) (A) (A) (A) (A) (A) (A) (A)
                 (A) (A) (A) (A) (A) (A) (A) (A) (A) (A) (A) (A)
                 (A) (A) (A) (A) (A) (A) (A) (A) (A) (A) (A) (A)
                 (A) (A) (A) (A) (A) (A) (A) (A) (A) (A) (A) (A)
                 (A) (A) (A) (A) (A) (A) (A) (A) (A) (A) (A) (A)
                 (A) (A) (A) (A) (A) (A) (A) (A) (A) (A) (A) (A)
                 (A) (A) (A) (A) (A) (A) (A) (A) (A) (A) (A) (A)
                 (A) (A) (A) (A) (A) (A) (A) (A) (A) (A) (A) (A)
                 (A) (A) (A) (A) (A) (A) (A) (A) (A) (A) (A) (A)
                 (A) (A) (A) (A) (A) (A) (A) (A) (A) (A) (A) (A)
                 (A) (A) (A) (A) (A) (A) (A) (A) (A) (A) (A) (A)
                 (A) (A) (A) (A) (A) (A) (A) (A) (A) (A) (A) (A)
                 (A) (A) (A) (A) (A) (A) (A) (A) (A) (A) (A) (A)
                 (A) (A) (A) (A) (A) (A) (A) (A) (A) (A) (A) (A)
                 (A) (A) (A) (A) (A) (A) (A) (A) (A) (A) (A) (A)
                 (A) (A) (A) (A) (A) (A) (A) (A) (A) (A) (A) (A)
                 (A) (A) (A) (A) (A) (A) (A) (A)
 The electronic state is 1-A.
 Alpha  occ. eigenvalues --  -19.22526 -19.16379 -14.36081 -10.33845 -10.28545
 Alpha  occ. eigenvalues --  -10.26965 -10.25423 -10.23725 -10.23453 -10.23352
 Alpha  occ. eigenvalues --  -10.23040 -10.21959 -10.21328 -10.19535 -10.19535
 Alpha  occ. eigenvalues --  -10.19421 -10.19420  -1.13654  -1.05300  -0.93018
 Alpha  occ. eigenvalues --   -0.86894  -0.85176  -0.82796  -0.79206  -0.75261
 Alpha  occ. eigenvalues --   -0.70214  -0.70092  -0.70004  -0.66829  -0.63917
 Alpha  occ. eigenvalues --   -0.60650  -0.58737  -0.55922  -0.53362  -0.51000
 Alpha  occ. eigenvalues --   -0.49228  -0.48140  -0.47252  -0.46055  -0.45830
 Alpha  occ. eigenvalues --   -0.44709  -0.43657  -0.42960  -0.42795  -0.42431
 Alpha  occ. eigenvalues --   -0.40767  -0.40469  -0.40349  -0.40113  -0.38244
 Alpha  occ. eigenvalues --   -0.37319  -0.37111  -0.36611  -0.36532  -0.36143
 Alpha  occ. eigenvalues --   -0.36036  -0.35421  -0.33412  -0.32117  -0.30615
 Alpha  occ. eigenvalues --   -0.29006  -0.23716
 Alpha virt. eigenvalues --   -0.10096  -0.06287  -0.01048  -0.00003   0.00617
 Alpha virt. eigenvalues --    0.00825   0.01033   0.01678   0.02098   0.02749
 Alpha virt. eigenvalues --    0.03302   0.03735   0.04339   0.04426   0.04645
 Alpha virt. eigenvalues --    0.05583   0.05876   0.06238   0.06525   0.06612
 Alpha virt. eigenvalues --    0.06804   0.07835   0.08223   0.08372   0.08991
 Alpha virt. eigenvalues --    0.09435   0.10012   0.10143   0.10169   0.10975
 Alpha virt. eigenvalues --    0.11457   0.11465   0.11843   0.12355   0.12864
 Alpha virt. eigenvalues --    0.12933   0.13470   0.14012   0.14123   0.14431
 Alpha virt. eigenvalues --    0.15126   0.15371   0.16081   0.16808   0.17047
 Alpha virt. eigenvalues --    0.17736   0.17819   0.18104   0.18482   0.19451
 Alpha virt. eigenvalues --    0.19671   0.20010   0.20069   0.20181   0.20897
 Alpha virt. eigenvalues --    0.21116   0.21616   0.22427   0.22684   0.22696
 Alpha virt. eigenvalues --    0.23213   0.23787   0.24370   0.24425   0.24545
 Alpha virt. eigenvalues --    0.24837   0.26055   0.26070   0.26363   0.26516
 Alpha virt. eigenvalues --    0.27074   0.27290   0.27962   0.28888   0.28939
 Alpha virt. eigenvalues --    0.28981   0.29187   0.29419   0.30397   0.30398
 Alpha virt. eigenvalues --    0.31562   0.32054   0.32386   0.32638   0.33425
 Alpha virt. eigenvalues --    0.33796   0.34429   0.34822   0.35772   0.36672
 Alpha virt. eigenvalues --    0.37596   0.37955   0.38767   0.39538   0.39749
 Alpha virt. eigenvalues --    0.41423   0.41726   0.44927   0.45686   0.47233
 Alpha virt. eigenvalues --    0.48606   0.49464   0.49917   0.50889   0.58409
 Alpha virt. eigenvalues --    0.62194   0.62631   0.65638   0.66006   0.66471
 Alpha virt. eigenvalues --    0.67570   0.68382   0.68575   0.69735   0.69944
 Alpha virt. eigenvalues --    0.70657   0.71417   0.72397   0.73218   0.73614
 Alpha virt. eigenvalues --    0.75196   0.75297   0.75932   0.76856   0.76978
 Alpha virt. eigenvalues --    0.78874   0.78933   0.79209   0.80558   0.81538
 Alpha virt. eigenvalues --    0.81968   0.83561   0.83818   0.84472   0.85864
 Alpha virt. eigenvalues --    0.87605   0.88794   0.88909   0.90187   0.91853
 Alpha virt. eigenvalues --    0.93224   0.96040   0.96263   0.96992   0.97791
 Alpha virt. eigenvalues --    0.98616   0.99619   0.99853   1.00438   1.00733
 Alpha virt. eigenvalues --    1.01309   1.01593   1.03292   1.05132   1.05536
 Alpha virt. eigenvalues --    1.07445   1.07869   1.09978   1.10939   1.11886
 Alpha virt. eigenvalues --    1.13706   1.14358   1.15464   1.15687   1.15721
 Alpha virt. eigenvalues --    1.17322   1.18705   1.18935   1.21379   1.23384
 Alpha virt. eigenvalues --    1.24209   1.24448   1.25120   1.26861   1.28588
 Alpha virt. eigenvalues --    1.28927   1.29110   1.30759   1.32330   1.33796
 Alpha virt. eigenvalues --    1.35197   1.36790   1.38338   1.39386   1.39425
 Alpha virt. eigenvalues --    1.42566   1.43414   1.43669   1.44530   1.45489
 Alpha virt. eigenvalues --    1.45756   1.49671   1.51410   1.52321   1.53082
 Alpha virt. eigenvalues --    1.53882   1.54723   1.55107   1.57902   1.58042
 Alpha virt. eigenvalues --    1.60521   1.64161   1.70508   1.71025   1.71112
 Alpha virt. eigenvalues --    1.74558   1.75568   1.76105   1.78285   1.79917
 Alpha virt. eigenvalues --    1.80473   1.82087   1.84321   1.85066   1.86274
 Alpha virt. eigenvalues --    1.86296   1.88379   1.89137   1.90021   1.90574
 Alpha virt. eigenvalues --    1.92072   1.92903   1.93496   1.94434   1.96694
 Alpha virt. eigenvalues --    1.97776   1.98600   2.00975   2.01346   2.02324
 Alpha virt. eigenvalues --    2.03211   2.03744   2.03828   2.04920   2.05846
 Alpha virt. eigenvalues --    2.07435   2.09094   2.09903   2.10893   2.11255
 Alpha virt. eigenvalues --    2.11863   2.12636   2.12950   2.13170   2.13988
 Alpha virt. eigenvalues --    2.14554   2.14644   2.16711   2.17494   2.17598
 Alpha virt. eigenvalues --    2.23591   2.25964   2.26038   2.28080   2.30198
 Alpha virt. eigenvalues --    2.30518   2.32186   2.33179   2.34151   2.34513
 Alpha virt. eigenvalues --    2.36190   2.36989   2.40219   2.41954   2.46431
 Alpha virt. eigenvalues --    2.47861   2.49297   2.49465   2.50648   2.51590
 Alpha virt. eigenvalues --    2.53207   2.55466   2.55714   2.56040   2.61672
 Alpha virt. eigenvalues --    2.62401   2.65451   2.65856   2.68526   2.68952
 Alpha virt. eigenvalues --    2.69555   2.71287   2.71843   2.72922   2.73505
 Alpha virt. eigenvalues --    2.73986   2.74486   2.74952   2.80404   2.80781
 Alpha virt. eigenvalues --    2.82900   2.84744   2.87086   2.87212   2.87836
 Alpha virt. eigenvalues --    2.88935   2.89286   2.89637   2.91315   2.94868
 Alpha virt. eigenvalues --    2.95564   2.98715   3.01663   3.06035   3.07022
 Alpha virt. eigenvalues --    3.11637   3.20786   3.25825   3.25836   3.25990
 Alpha virt. eigenvalues --    3.26909   3.27430   3.30531   3.30816   3.37319
 Alpha virt. eigenvalues --    3.39967   3.42997   3.43253   3.43982   3.45282
 Alpha virt. eigenvalues --    3.48646   3.48773   3.50934   3.54619   3.58345
 Alpha virt. eigenvalues --    3.59643   3.60763   4.25058   4.29138   4.30410
 Alpha virt. eigenvalues --    4.36853   4.39127   4.40247   4.45332   4.46310
 Alpha virt. eigenvalues --    4.51363   4.52426   4.52943   4.64631   4.68287
 Alpha virt. eigenvalues --    4.73633   4.77166   4.83882   4.97422
          Condensed to atoms (all electrons):
               1          2          3          4          5          6
     1  C    8.894598   0.766762  -2.396073   0.017761  -0.696289  -0.511277
     2  C    0.766762  11.968668  -2.597533   0.275760  -2.300821  -0.874310
     3  C   -2.396073  -2.597533  13.297773  -0.280080   0.802324  -1.274504
     4  N    0.017761   0.275760  -0.280080   7.288968   0.029569   0.152816
     5  C   -0.696289  -2.300821   0.802324   0.029569  13.208898   0.926833
     6  C   -0.511277  -0.874310  -1.274504   0.152816   0.926833  10.036963
     7  C   -0.222178  -0.594020   0.590123  -0.059745   0.402738  -1.000209
     8  C    0.016021   0.093278  -0.058339   0.000094   0.060421  -0.048848
     9  C    0.015250   0.089972  -0.057397   0.000005   0.060908  -0.049782
    10  C    0.029130  -1.118915  -1.570574   0.047773  -5.257700   0.996878
    11  C    0.096422   0.936091  -0.260949   0.004553  -1.549141  -1.540817
    12  C   -0.016216  -0.048061   0.001674   0.000190  -0.250593  -0.182469
    13  C    0.000534   0.003202  -0.001248   0.000005  -0.038900  -0.072471
    14  C    0.000536   0.003237  -0.001195   0.000005  -0.038380  -0.071861
    15  C   -0.655015  -0.701893   0.472106  -0.004291   0.495461  -0.158611
    16  O   -0.004863   0.036933  -0.012573   0.000015  -0.054789  -0.027796
    17  O   -0.002416  -0.439239   0.027730   0.000739   0.159871  -0.007499
    18  H    0.520906  -0.126135   0.013547   0.000118   0.015704  -0.025592
    19  H    0.430280  -0.120228   0.010543   0.001227   0.034776   0.000702
    20  H   -0.007258  -0.135245  -0.006652   0.000816   0.077948  -0.000447
    21  H   -0.000680  -0.009038  -0.003709   0.000725  -0.027543  -0.031625
    22  H    0.001296   0.034046  -0.003460   0.000149   0.003197   0.010297
    23  H   -0.000064  -0.013302  -0.000160  -0.000049   0.015345   0.053588
    24  H   -0.000684  -0.009138  -0.003625   0.000724  -0.027439  -0.031797
    25  H    0.001298   0.033920  -0.003408   0.000152   0.003472   0.010182
    26  H   -0.000063  -0.013335  -0.000199  -0.000048   0.015103   0.053483
    27  H    0.000658   0.007369  -0.001417   0.000002  -0.000225   0.052799
    28  H    0.000233   0.000455  -0.000127   0.000000   0.003354  -0.007205
    29  H    0.000001   0.000038   0.000001  -0.000000   0.000782   0.002633
    30  H   -0.000054  -0.000183   0.000040   0.000000  -0.003262  -0.006791
    31  H    0.000006  -0.000031  -0.000024   0.000000  -0.002189  -0.008618
    32  H    0.000001   0.000038   0.000001  -0.000000   0.000782   0.002633
    33  H   -0.000055  -0.000183   0.000040   0.000000  -0.003273  -0.006807
    34  H    0.000006  -0.000031  -0.000024   0.000000  -0.002188  -0.008618
               7          8          9         10         11         12
     1  C   -0.222178   0.016021   0.015250   0.029130   0.096422  -0.016216
     2  C   -0.594020   0.093278   0.089972  -1.118915   0.936091  -0.048061
     3  C    0.590123  -0.058339  -0.057397  -1.570574  -0.260949   0.001674
     4  N   -0.059745   0.000094   0.000005   0.047773   0.004553   0.000190
     5  C    0.402738   0.060421   0.060908  -5.257700  -1.549141  -0.250593
     6  C   -1.000209  -0.048848  -0.049782   0.996878  -1.540817  -0.182469
     7  C    7.257704  -0.109586  -0.108490  -0.423283  -0.123043   0.061799
     8  C   -0.109586   5.761845  -0.339977  -0.055736  -0.084629  -0.024355
     9  C   -0.108490  -0.339977   5.760673  -0.052225  -0.086336  -0.024174
    10  C   -0.423283  -0.055736  -0.052225  14.436047  -0.986611   0.265614
    11  C   -0.123043  -0.084629  -0.086336  -0.986611  11.375531  -0.074330
    12  C    0.061799  -0.024355  -0.024174   0.265614  -0.074330   6.482503
    13  C    0.002929  -0.006865   0.002922  -0.042646   0.160843  -0.069318
    14  C    0.003143   0.002925  -0.006851  -0.042526   0.159220  -0.069151
    15  C    0.349127   0.035493   0.037056  -1.116432  -1.858862  -0.107353
    16  O   -0.001680  -0.000189  -0.000216  -0.061476   0.196836  -0.060963
    17  O    0.003127   0.007406   0.007465   0.018906  -0.231836   0.004244
    18  H    0.004392   0.000101   0.000104  -0.052774  -0.005275  -0.000370
    19  H   -0.000201  -0.000017  -0.000016  -0.004417  -0.000479   0.000005
    20  H    0.307925   0.004551   0.004795   0.073970  -0.072213  -0.001771
    21  H   -0.045001   0.409690   0.004803   0.043123   0.014146   0.001661
    22  H   -0.100374   0.439314   0.005466  -0.047170   0.028676   0.000289
    23  H   -0.092479   0.461846  -0.017008   0.063285  -0.132876  -0.009953
    24  H   -0.044843   0.004736   0.409726   0.043135   0.014070   0.001662
    25  H   -0.100089   0.005510   0.439145  -0.047230   0.028439   0.000278
    26  H   -0.092494  -0.017176   0.461965   0.063727  -0.132859  -0.009949
    27  H   -0.019425  -0.007769  -0.007805  -0.104546   0.444870  -0.082875
    28  H   -0.003290  -0.000160  -0.000162  -0.003596  -0.075415   0.426965
    29  H   -0.000277  -0.000035   0.000220   0.008968  -0.022359  -0.057547
    30  H    0.001829  -0.000128  -0.000824   0.002455   0.008812  -0.095345
    31  H    0.000300   0.000096  -0.000254  -0.009003   0.032405  -0.095744
    32  H   -0.000277   0.000221  -0.000035   0.008960  -0.022344  -0.057546
    33  H    0.001837  -0.000826  -0.000127   0.002431   0.008833  -0.095358
    34  H    0.000297  -0.000253   0.000095  -0.009024   0.032417  -0.095728
              13         14         15         16         17         18
     1  C    0.000534   0.000536  -0.655015  -0.004863  -0.002416   0.520906
     2  C    0.003202   0.003237  -0.701893   0.036933  -0.439239  -0.126135
     3  C   -0.001248  -0.001195   0.472106  -0.012573   0.027730   0.013547
     4  N    0.000005   0.000005  -0.004291   0.000015   0.000739   0.000118
     5  C   -0.038900  -0.038380   0.495461  -0.054789   0.159871   0.015704
     6  C   -0.072471  -0.071861  -0.158611  -0.027796  -0.007499  -0.025592
     7  C    0.002929   0.003143   0.349127  -0.001680   0.003127   0.004392
     8  C   -0.006865   0.002925   0.035493  -0.000189   0.007406   0.000101
     9  C    0.002922  -0.006851   0.037056  -0.000216   0.007465   0.000104
    10  C   -0.042646  -0.042526  -1.116432  -0.061476   0.018906  -0.052774
    11  C    0.160843   0.159220  -1.858862   0.196836  -0.231836  -0.005275
    12  C   -0.069318  -0.069151  -0.107353  -0.060963   0.004244  -0.000370
    13  C    5.567277  -0.195573  -0.036487  -0.006362   0.000806  -0.000006
    14  C   -0.195573   5.566933  -0.036219  -0.006389   0.000811  -0.000006
    15  C   -0.036487  -0.036219   8.405492   0.239398   0.195039   0.006455
    16  O   -0.006362  -0.006389   0.239398   8.361593  -0.090874  -0.000194
    17  O    0.000806   0.000811   0.195039  -0.090874   8.696866   0.000521
    18  H   -0.000006  -0.000006   0.006455  -0.000194   0.000521   0.494381
    19  H   -0.000000  -0.000000   0.001635  -0.000011   0.000370  -0.029252
    20  H   -0.000056  -0.000057   0.023586   0.000012   0.001326  -0.000004
    21  H    0.000072   0.000020   0.000421  -0.000000   0.000012  -0.000000
    22  H    0.000091  -0.000585  -0.008360   0.000019  -0.000194  -0.000000
    23  H   -0.000111  -0.000240   0.013996  -0.000036   0.000279   0.000000
    24  H    0.000019   0.000073   0.000435  -0.000000   0.000012  -0.000000
    25  H   -0.000587   0.000091  -0.008293   0.000018  -0.000194  -0.000000
    26  H   -0.000230  -0.000112   0.014003  -0.000036   0.000279   0.000000
    27  H    0.013340   0.013317  -0.029870   0.000027  -0.001438   0.000000
    28  H   -0.010034  -0.010033  -0.028674  -0.004601   0.000001   0.000000
    29  H    0.427296   0.002495  -0.006914   0.000344   0.000002   0.000000
    30  H    0.450835  -0.001762   0.004880   0.000148   0.000013  -0.000000
    31  H    0.437993  -0.011767   0.001777  -0.000106  -0.000004  -0.000000
    32  H    0.002495   0.427295  -0.006922   0.000344   0.000002   0.000000
    33  H   -0.001758   0.450858   0.004891   0.000149   0.000013  -0.000000
    34  H   -0.011779   0.438001   0.001777  -0.000106  -0.000004  -0.000000
              19         20         21         22         23         24
     1  C    0.430280  -0.007258  -0.000680   0.001296  -0.000064  -0.000684
     2  C   -0.120228  -0.135245  -0.009038   0.034046  -0.013302  -0.009138
     3  C    0.010543  -0.006652  -0.003709  -0.003460  -0.000160  -0.003625
     4  N    0.001227   0.000816   0.000725   0.000149  -0.000049   0.000724
     5  C    0.034776   0.077948  -0.027543   0.003197   0.015345  -0.027439
     6  C    0.000702  -0.000447  -0.031625   0.010297   0.053588  -0.031797
     7  C   -0.000201   0.307925  -0.045001  -0.100374  -0.092479  -0.044843
     8  C   -0.000017   0.004551   0.409690   0.439314   0.461846   0.004736
     9  C   -0.000016   0.004795   0.004803   0.005466  -0.017008   0.409726
    10  C   -0.004417   0.073970   0.043123  -0.047170   0.063285   0.043135
    11  C   -0.000479  -0.072213   0.014146   0.028676  -0.132876   0.014070
    12  C    0.000005  -0.001771   0.001661   0.000289  -0.009953   0.001662
    13  C   -0.000000  -0.000056   0.000072   0.000091  -0.000111   0.000019
    14  C   -0.000000  -0.000057   0.000020  -0.000585  -0.000240   0.000073
    15  C    0.001635   0.023586   0.000421  -0.008360   0.013996   0.000435
    16  O   -0.000011   0.000012  -0.000000   0.000019  -0.000036  -0.000000
    17  O    0.000370   0.001326   0.000012  -0.000194   0.000279   0.000012
    18  H   -0.029252  -0.000004  -0.000000  -0.000000   0.000000  -0.000000
    19  H    0.507549  -0.000000  -0.000000   0.000000  -0.000000  -0.000000
    20  H   -0.000000   0.597703  -0.005134  -0.004245   0.005524  -0.005132
    21  H   -0.000000  -0.005134   0.548195  -0.025186  -0.029654   0.003034
    22  H    0.000000  -0.004245  -0.025186   0.542272  -0.029545   0.000090
    23  H   -0.000000   0.005524  -0.029654  -0.029545   0.569597  -0.000183
    24  H   -0.000000  -0.005132   0.003034   0.000090  -0.000183   0.548208
    25  H    0.000000  -0.004248   0.000090  -0.000142   0.000018  -0.025180
    26  H   -0.000000   0.005524  -0.000182   0.000017   0.002663  -0.029655
    27  H    0.000000   0.000009   0.000083  -0.000065   0.002618   0.000083
    28  H    0.000000  -0.000000   0.000000   0.000000  -0.000001   0.000000
    29  H    0.000000   0.000000  -0.000000  -0.000000   0.000000   0.000000
    30  H   -0.000000  -0.000000  -0.000000  -0.000000   0.000000   0.000000
    31  H    0.000000  -0.000000   0.000000   0.000000  -0.000003   0.000000
    32  H    0.000000   0.000000   0.000000  -0.000000   0.000000  -0.000000
    33  H   -0.000000  -0.000000   0.000000   0.000000  -0.000004  -0.000000
    34  H    0.000000  -0.000000   0.000000   0.000000   0.000021   0.000000
              25         26         27         28         29         30
     1  C    0.001298  -0.000063   0.000658   0.000233   0.000001  -0.000054
     2  C    0.033920  -0.013335   0.007369   0.000455   0.000038  -0.000183
     3  C   -0.003408  -0.000199  -0.001417  -0.000127   0.000001   0.000040
     4  N    0.000152  -0.000048   0.000002   0.000000  -0.000000   0.000000
     5  C    0.003472   0.015103  -0.000225   0.003354   0.000782  -0.003262
     6  C    0.010182   0.053483   0.052799  -0.007205   0.002633  -0.006791
     7  C   -0.100089  -0.092494  -0.019425  -0.003290  -0.000277   0.001829
     8  C    0.005510  -0.017176  -0.007769  -0.000160  -0.000035  -0.000128
     9  C    0.439145   0.461965  -0.007805  -0.000162   0.000220  -0.000824
    10  C   -0.047230   0.063727  -0.104546  -0.003596   0.008968   0.002455
    11  C    0.028439  -0.132859   0.444870  -0.075415  -0.022359   0.008812
    12  C    0.000278  -0.009949  -0.082875   0.426965  -0.057547  -0.095345
    13  C   -0.000587  -0.000230   0.013340  -0.010034   0.427296   0.450835
    14  C    0.000091  -0.000112   0.013317  -0.010033   0.002495  -0.001762
    15  C   -0.008293   0.014003  -0.029870  -0.028674  -0.006914   0.004880
    16  O    0.000018  -0.000036   0.000027  -0.004601   0.000344   0.000148
    17  O   -0.000194   0.000279  -0.001438   0.000001   0.000002   0.000013
    18  H   -0.000000   0.000000   0.000000   0.000000   0.000000  -0.000000
    19  H    0.000000  -0.000000   0.000000   0.000000   0.000000  -0.000000
    20  H   -0.004248   0.005524   0.000009  -0.000000   0.000000  -0.000000
    21  H    0.000090  -0.000182   0.000083   0.000000  -0.000000  -0.000000
    22  H   -0.000142   0.000017  -0.000065   0.000000  -0.000000  -0.000000
    23  H    0.000018   0.002663   0.002618  -0.000001   0.000000   0.000000
    24  H   -0.025180  -0.029655   0.000083   0.000000   0.000000   0.000000
    25  H    0.542236  -0.029541  -0.000064   0.000000  -0.000000   0.000000
    26  H   -0.029541   0.569606   0.002617  -0.000001   0.000000  -0.000004
    27  H   -0.000064   0.002617   0.589633   0.004403   0.000023  -0.000196
    28  H    0.000000  -0.000001   0.004403   0.529845  -0.003430  -0.003620
    29  H   -0.000000   0.000000   0.000023  -0.003430   0.545144  -0.025079
    30  H    0.000000  -0.000004  -0.000196  -0.003620  -0.025079   0.540918
    31  H    0.000000   0.000021   0.002780   0.004603  -0.028791  -0.029579
    32  H   -0.000000   0.000000   0.000023  -0.003430   0.003032   0.000096
    33  H   -0.000000   0.000000  -0.000196  -0.003621   0.000096  -0.000143
    34  H    0.000000  -0.000003   0.002779   0.004603  -0.000207   0.000023
              31         32         33         34
     1  C    0.000006   0.000001  -0.000055   0.000006
     2  C   -0.000031   0.000038  -0.000183  -0.000031
     3  C   -0.000024   0.000001   0.000040  -0.000024
     4  N    0.000000  -0.000000   0.000000   0.000000
     5  C   -0.002189   0.000782  -0.003273  -0.002188
     6  C   -0.008618   0.002633  -0.006807  -0.008618
     7  C    0.000300  -0.000277   0.001837   0.000297
     8  C    0.000096   0.000221  -0.000826  -0.000253
     9  C   -0.000254  -0.000035  -0.000127   0.000095
    10  C   -0.009003   0.008960   0.002431  -0.009024
    11  C    0.032405  -0.022344   0.008833   0.032417
    12  C   -0.095744  -0.057546  -0.095358  -0.095728
    13  C    0.437993   0.002495  -0.001758  -0.011779
    14  C   -0.011767   0.427295   0.450858   0.438001
    15  C    0.001777  -0.006922   0.004891   0.001777
    16  O   -0.000106   0.000344   0.000149  -0.000106
    17  O   -0.000004   0.000002   0.000013  -0.000004
    18  H   -0.000000   0.000000  -0.000000  -0.000000
    19  H    0.000000   0.000000  -0.000000   0.000000
    20  H   -0.000000   0.000000  -0.000000  -0.000000
    21  H    0.000000   0.000000   0.000000   0.000000
    22  H    0.000000  -0.000000   0.000000   0.000000
    23  H   -0.000003   0.000000  -0.000004   0.000021
    24  H    0.000000  -0.000000  -0.000000   0.000000
    25  H    0.000000  -0.000000  -0.000000   0.000000
    26  H    0.000021   0.000000   0.000000  -0.000003
    27  H    0.002780   0.000023  -0.000196   0.002779
    28  H    0.004603  -0.003430  -0.003621   0.004603
    29  H   -0.028791   0.003032   0.000096  -0.000207
    30  H   -0.029579   0.000096  -0.000143   0.000023
    31  H    0.555903  -0.000207   0.000023   0.003249
    32  H   -0.000207   0.545145  -0.025080  -0.028792
    33  H    0.000023  -0.025080   0.540915  -0.029578
    34  H    0.003249  -0.028792  -0.029578   0.555904
 Mulliken charges:
               1
     1  C   -0.278516
     2  C    0.851871
     3  C   -0.682632
     4  N   -0.477950
     5  C   -0.064755
     6  C   -0.351855
     7  C    0.153714
     8  C   -0.548656
     9  C   -0.548891
    10  C    0.901480
    11  C   -0.281791
    12  C    0.282286
    13  C   -0.576229
    14  C   -0.576255
    15  C    0.461171
    16  O   -0.502577
    17  O   -0.352144
    18  H    0.183376
    19  H    0.167535
    20  H    0.138774
    21  H    0.151678
    22  H    0.154107
    23  H    0.136889
    24  H    0.151668
    25  H    0.154124
    26  H    0.136879
    27  H    0.118461
    28  H    0.182937
    29  H    0.153565
    30  H    0.156921
    31  H    0.147163
    32  H    0.153566
    33  H    0.156923
    34  H    0.147162
 Sum of Mulliken charges =  -0.00000
 Mulliken charges with hydrogens summed into heavy atoms:
               1
     1  C    0.072395
     2  C    0.851871
     3  C   -0.682632
     4  N   -0.477950
     5  C   -0.064755
     6  C   -0.351855
     7  C    0.292488
     8  C   -0.105983
     9  C   -0.106219
    10  C    0.901480
    11  C   -0.163330
    12  C    0.465223
    13  C   -0.118580
    14  C   -0.118604
    15  C    0.461171
    16  O   -0.502577
    17  O   -0.352144
 Electronic spatial extent (au):  <R**2>=           4685.6292
 Charge=             -0.0000 electrons
 Dipole moment (field-independent basis, Debye):
    X=              2.3784    Y=              1.4590    Z=              0.0048  Tot=              2.7902
 Quadrupole moment (field-independent basis, Debye-Ang):
   XX=           -109.0307   YY=           -109.4479   ZZ=           -103.4860
   XY=             16.6415   XZ=             -0.0194   YZ=             -0.0008
 Traceless Quadrupole moment (field-independent basis, Debye-Ang):
   XX=             -1.7091   YY=             -2.1264   ZZ=              3.8355
   XY=             16.6415   XZ=             -0.0194   YZ=             -0.0008
 Octapole moment (field-independent basis, Debye-Ang**2):
  XXX=            105.7947  YYY=             13.1423  ZZZ=             -0.0077  XYY=            -15.1187
  XXY=            -63.1433  XXZ=              0.0833  XZZ=              5.1742  YZZ=             -5.5723
  YYZ=              0.0335  XYZ=             -0.0108
 Hexadecapole moment (field-independent basis, Debye-Ang**3):
 XXXX=          -4667.1382 YYYY=          -1678.2247 ZZZZ=           -471.7395 XXXY=            277.4050
 XXXZ=             -0.4434 YYYX=             82.7583 YYYZ=             -0.0386 ZZZX=             -0.0002
 ZZZY=              0.0115 XXYY=          -1023.3295 XXZZ=           -831.2724 YYZZ=           -357.9556
 XXYZ=              0.0614 YYXZ=             -0.0805 ZZXY=            -14.1501
 N-N= 1.175642568273D+03 E-N=-4.089098254646D+03  KE= 7.418116366420D+02
 Unable to Open any file for archive entry.
 1\1\GINC-N1\SP\RB3LYP TD-FC\6-31+G(d,p)\C14H17N1O2\HPCMGAC13\29-Aug-20
 25\0\\# td=(50-50,nstates=3) b3lyp/6-31+g(d,p) geom=connectivity\\Titl
 e Card Required\\0,1\C,0,-3.458626,-2.122958,0.00153\C,0,-2.87224,-0.9
 02385,0.00028\C,0,-3.73701,0.249168,-0.001124\N,0,-4.489164,1.136753,-
 0.002248\C,0,-1.420238,-0.733923,0.000014\C,0,-0.568706,0.330108,0.000
 212\C,0,-0.93097,1.8,0.000817\C,0,-0.458673,2.523187,1.280996\C,0,-0.4
 59218,2.524143,-1.279008\C,0,0.788322,-0.23695,-0.000119\C,0,1.988492,
 0.391786,-0.000043\C,0,3.3584,-0.224145,-0.000418\C,0,4.121422,0.20988
 1,-1.270807\C,0,4.121676,0.208807,1.270181\C,0,0.613205,-1.719374,-0.0
 0033\O,0,1.403364,-2.632253,-0.000509\O,0,-0.748761,-1.958522,-0.00028
 7\H,0,-2.858185,-3.023836,0.002418\H,0,-4.538046,-2.21617,0.001598\H,0
 ,-2.019938,1.86354,0.001082\H,0,-0.836526,3.550988,1.28363\H,0,-0.8378
 38,2.02269,2.177513\H,0,0.631475,2.570338,1.359258\H,0,-0.836779,3.552
 053,-1.280566\H,0,-0.839056,2.024508,-2.175721\H,0,0.630901,2.571024,-
 1.35786\H,0,1.984656,1.480795,0.00025\H,0,3.266015,-1.311789,-0.000857
 \H,0,5.127024,-0.224105,-1.270176\H,0,3.608754,-0.124339,-2.178128\H,0
 ,4.226564,1.30082,-1.319476\H,0,5.127285,-0.225159,1.268984\H,0,3.6091
 92,-0.126212,2.177313\H,0,4.226803,1.299705,1.31976\\Version=ES64L-G16
 RevC.02\State=1-A\HF=-748.9357212\RMSD=4.534e-09\PG=C01 [X(C14H17N1O2)
 ]\\@
 The archive entry for this job was punched.


 I FIND THAT THE THREE TRULY GREAT TIMES FOR THINKING THOUGHTS
 ARE WHEN I AM STANDING IN THE SHOWER, SITTING ON THE JOHN, OR WALKING.

                                    -- COLIN FLETCHER
 Job cpu time:       0 days  0 hours 47 minutes 52.5 seconds.
 Elapsed time:       0 days  0 hours  6 minutes  4.9 seconds.
 File lengths (MBytes):  RWF=    935 Int=      0 D2E=      0 Chk=     44 Scr=      2
 Normal termination of Gaussian 16 at Fri Aug 29 21:25:33 2025.
