 Entering Gaussian System, Link 0=g16
 Input=M2879e.gjf
 Output=M2879e.log
 Initial command:
 /hpc/softwares/Gaussian/g16/l1.exe "/hpc/home/hpcmgac201/pbs.12325.admin1.x8z/Gau-1690644.inp" -scrdir="/hpc/home/hpcmgac201/pbs.12325.admin1.x8z/"
 Default linda workers: n1
 Default is to use   8 SMP processors on each worker.
 Entering Link 1 = /hpc/softwares/Gaussian/g16/l1.exe PID=   1690645.
  
 Copyright (c) 1988-2021, Gaussian, Inc.  All Rights Reserved.
  
 This is part of the Gaussian(R) 16 program.  It is based on
 the Gaussian(R) 09 system (copyright 2009, Gaussian, Inc.),
 the Gaussian(R) 03 system (copyright 2003, Gaussian, Inc.),
 the Gaussian(R) 98 system (copyright 1998, Gaussian, Inc.),
 the Gaussian(R) 94 system (copyright 1995, Gaussian, Inc.),
 the Gaussian 92(TM) system (copyright 1992, Gaussian, Inc.),
 the Gaussian 90(TM) system (copyright 1990, Gaussian, Inc.),
 the Gaussian 88(TM) system (copyright 1988, Gaussian, Inc.),
 the Gaussian 86(TM) system (copyright 1986, Carnegie Mellon
 University), and the Gaussian 82(TM) system (copyright 1983,
 Carnegie Mellon University). Gaussian is a federally registered
 trademark of Gaussian, Inc.
  
 This software contains proprietary and confidential information,
 including trade secrets, belonging to Gaussian, Inc.
  
 This software is provided under written license and may be
 used, copied, transmitted, or stored only in accord with that
 written license.
  
 The following legend is applicable only to US Government
 contracts under FAR:
  
                    RESTRICTED RIGHTS LEGEND
  
 Use, reproduction and disclosure by the US Government is
 subject to restrictions as set forth in subparagraphs (a)
 and (c) of the Commercial Computer Software - Restricted
 Rights clause in FAR 52.227-19.
  
 Gaussian, Inc.
 340 Quinnipiac St., Bldg. 40, Wallingford CT 06492
  
  
 ---------------------------------------------------------------
 Warning -- This program may not be used in any manner that
 competes with the business of Gaussian, Inc. or will provide
 assistance to any competitor of Gaussian, Inc.  The licensee
 of this program is prohibited from giving any competitor of
 Gaussian, Inc. access to this program.  By using this program,
 the user acknowledges that Gaussian, Inc. is engaged in the
 business of creating and licensing software in the field of
 computational chemistry and represents and warrants to the
 licensee that it is not a competitor of Gaussian, Inc. and that
 it will not use this program in any manner prohibited above.
 ---------------------------------------------------------------
  

 Cite this work as:
 Gaussian 16, Revision C.02,
 M. J. Frisch, G. W. Trucks, H. B. Schlegel, G. E. Scuseria, 
 M. A. Robb, J. R. Cheeseman, G. Scalmani, V. Barone, 
 G. A. Petersson, H. Nakatsuji, X. Li, M. Caricato, A. V. Marenich, 
 J. Bloino, B. G. Janesko, R. Gomperts, B. Mennucci, H. P. Hratchian, 
 J. V. Ortiz, A. F. Izmaylov, J. L. Sonnenberg, D. Williams-Young, 
 F. Ding, F. Lipparini, F. Egidi, J. Goings, B. Peng, A. Petrone, 
 T. Henderson, D. Ranasinghe, V. G. Zakrzewski, J. Gao, N. Rega, 
 G. Zheng, W. Liang, M. Hada, M. Ehara, K. Toyota, R. Fukuda, 
 J. Hasegawa, M. Ishida, T. Nakajima, Y. Honda, O. Kitao, H. Nakai, 
 T. Vreven, K. Throssell, J. A. Montgomery, Jr., J. E. Peralta, 
 F. Ogliaro, M. J. Bearpark, J. J. Heyd, E. N. Brothers, K. N. Kudin, 
 V. N. Staroverov, T. A. Keith, R. Kobayashi, J. Normand, 
 K. Raghavachari, A. P. Rendell, J. C. Burant, S. S. Iyengar, 
 J. Tomasi, M. Cossi, J. M. Millam, M. Klene, C. Adamo, R. Cammi, 
 J. W. Ochterski, R. L. Martin, K. Morokuma, O. Farkas, 
 J. B. Foresman, and D. J. Fox, Gaussian, Inc., Wallingford CT, 2019.
 
 ******************************************
 Gaussian 16:  ES64L-G16RevC.02  7-Dec-2021
                29-Jul-2025 
 ******************************************
 SetLPE:    new flags="-opt 'Tsnet.Node.lindarsharg: ssh'  -nodelist 'n1' -env GAUSS_MDEF=2147483648 -env GAUSS_EXEDIR="/hpc/softwares/Gaussian/g16/bsd:/hpc/softwares/Gaussian/g16""
 Will use up to    1 processors via Linda.
 ----------------------------------------------------------
 # td=(50-50,nstates=3) b3lyp/6-31+g(d,p) geom=connectivity
 ----------------------------------------------------------
 1/38=1,57=2,172=1/1;
 2/12=2,17=6,18=5,40=1/2;
 3/5=1,6=6,7=111,11=9,25=1,30=1,74=-5/1,2,3,8;
 4//1;
 5/5=2,38=5/2;
 8/6=1,10=2,108=3/1;
 9/41=3,42=1,48=2,70=2/14;
 6/7=2,8=2,9=2,10=2/1;
 99/5=1,9=1/99;
 -------------------
 Title Card Required
 -------------------
 Symbolic Z-matrix:
 Charge =  0 Multiplicity = 1
 C                     3.95191   1.01759  -1.47477 
 C                     3.63787   0.51861  -0.26558 
 C                     4.68939   0.16543   0.6562 
 N                     5.53942  -0.13347   1.39159 
 C                     2.25426   0.32118   0.20974 
 C                     1.18008  -0.32246  -0.28365 
 C                     0.99583  -1.18463  -1.51865 
 C                     0.60733  -0.36513  -2.76948 
 C                     2.18164  -2.12185  -1.81317 
 C                     0.07113  -0.17515   0.75429 
 C                    -1.24091   0.43177   0.27125 
 C                    -1.28565   1.78934  -0.07001 
 C                    -2.45292   2.42188  -0.51392 
 C                    -2.46161   3.8989   -0.82419 
 C                    -3.61976   1.65356  -0.63246 
 C                    -3.609     0.3008   -0.30597 
 C                    -2.43185  -0.3014    0.14626 
 S                    -2.52527  -2.06263   0.49741 
 O                    -1.98863  -2.82719  -0.64054 
 O                    -2.05754  -2.34664   1.86132 
 C                     0.73097   0.67938   1.84449 
 O                     0.26699   1.11595   2.86113 
 O                     2.03411   0.9111    1.46855 
 H                     3.17614   1.32349  -2.16645 
 H                     4.98539   1.12688  -1.78464 
 H                     0.1382   -1.82976  -1.29605 
 H                     0.33604  -1.04192  -3.58666 
 H                    -0.24801   0.28883  -2.57663 
 H                     1.44032   0.25711  -3.11394 
 H                     1.90821  -2.81264  -2.61743 
 H                     2.44456  -2.71754  -0.93361 
 H                     3.0739   -1.57686  -2.13339 
 H                    -0.12631  -1.15119   1.21533 
 H                    -0.37765   2.37981   0.02558 
 H                    -1.46936   4.25305  -1.11697 
 H                    -3.16216   4.13298  -1.6312 
 H                    -2.76946   4.4755    0.05666 
 H                    -4.54065   2.11448  -0.97801 
 H                    -4.52212  -0.28122  -0.4058 
 H                    -3.89044  -2.19738   0.47758 
 
                          Input orientation:                          
 ---------------------------------------------------------------------
 Center     Atomic      Atomic             Coordinates (Angstroms)
 Number     Number       Type             X           Y           Z
 ---------------------------------------------------------------------
      1          6           0        3.951911    1.017591   -1.474774
      2          6           0        3.637870    0.518609   -0.265579
      3          6           0        4.689386    0.165426    0.656196
      4          7           0        5.539420   -0.133467    1.391591
      5          6           0        2.254261    0.321179    0.209741
      6          6           0        1.180081   -0.322461   -0.283653
      7          6           0        0.995829   -1.184626   -1.518653
      8          6           0        0.607331   -0.365134   -2.769481
      9          6           0        2.181638   -2.121846   -1.813166
     10          6           0        0.071134   -0.175152    0.754285
     11          6           0       -1.240906    0.431773    0.271251
     12          6           0       -1.285648    1.789335   -0.070005
     13          6           0       -2.452923    2.421879   -0.513923
     14          6           0       -2.461613    3.898900   -0.824191
     15          6           0       -3.619760    1.653564   -0.632461
     16          6           0       -3.608999    0.300802   -0.305971
     17          6           0       -2.431849   -0.301396    0.146263
     18         16           0       -2.525273   -2.062628    0.497406
     19          8           0       -1.988625   -2.827187   -0.640542
     20          8           0       -2.057538   -2.346639    1.861323
     21          6           0        0.730971    0.679379    1.844494
     22          8           0        0.266994    1.115952    2.861132
     23          8           0        2.034112    0.911096    1.468554
     24          1           0        3.176139    1.323488   -2.166449
     25          1           0        4.985389    1.126876   -1.784635
     26          1           0        0.138197   -1.829757   -1.296046
     27          1           0        0.336040   -1.041920   -3.586655
     28          1           0       -0.248011    0.288830   -2.576625
     29          1           0        1.440320    0.257105   -3.113938
     30          1           0        1.908206   -2.812638   -2.617430
     31          1           0        2.444561   -2.717542   -0.933605
     32          1           0        3.073895   -1.576860   -2.133390
     33          1           0       -0.126310   -1.151190    1.215330
     34          1           0       -0.377653    2.379812    0.025575
     35          1           0       -1.469356    4.253045   -1.116973
     36          1           0       -3.162159    4.132978   -1.631202
     37          1           0       -2.769459    4.475498    0.056655
     38          1           0       -4.540648    2.114484   -0.978011
     39          1           0       -4.522124   -0.281222   -0.405801
     40          1           0       -3.890439   -2.197378    0.477581
 ---------------------------------------------------------------------
                    Distance matrix (angstroms):
                    1          2          3          4          5
     1  C    0.000000
     2  C    1.345272   0.000000
     3  C    2.410620   1.442253   0.000000
     4  N    3.472919   2.605246   1.163057   0.000000
     5  C    2.490903   1.476239   2.480608   3.520759   0.000000
     6  C    3.301144   2.597778   3.665593   4.673970   1.345947
     7  C    3.686476   3.384019   4.493882   5.497151   2.615042
     8  C    3.843749   4.029230   5.355365   6.457065   3.472631
     9  C    3.620006   3.389342   4.197399   5.049635   3.172664
    10  C    4.631606   3.773994   4.631832   5.505456   2.304109
    11  C    5.509731   4.908990   5.948738   6.895468   3.497457
    12  C    5.477316   5.088617   6.234218   7.239819   3.842486
    13  C    6.627002   6.386068   7.581117   8.604552   5.205210
    14  C    7.061054   6.995864   8.201656   9.229637   6.009041
    15  C    7.644878   7.354993   8.539151   9.548866   6.081832
    16  C    7.684221   7.250254   8.355075   9.314713   5.885932
    17  C    6.717133   6.138690   7.154715   8.069707   4.727711
    18  S    7.438491   6.725270   7.552532   8.340294   5.348760
    19  O    7.125183   6.556859   7.431897   8.249676   5.351380
    20  O    7.652520   6.720940   7.299574   7.926699   5.332597
    21  C    4.637497   3.595597   4.164763   4.897655   2.262993
    22  O    5.691078   4.636372   5.032176   5.614185   3.407458
    23  O    3.514609   2.394432   2.875140   3.658445   1.407508
    24  H    1.083425   2.115262   3.405635   4.513033   2.738752
    25  H    1.084451   2.119747   2.640011   3.461766   3.476456
    26  H    4.762746   4.338709   5.339038   6.266897   3.372187
    27  H    4.666492   4.936282   6.197668   7.258332   4.466568
    28  H    4.402785   4.527008   5.902902   7.029895   3.745163
    29  H    3.094073   3.607043   4.977825   6.103684   3.422491
    30  H    4.489215   4.429464   5.226897   6.036218   4.234791
    31  H    4.064011   3.513249   3.984747   4.654260   3.252273
    32  H    2.817066   2.863176   3.664309   4.537366   3.124838
    33  H    5.345293   4.376114   5.023648   5.759108   2.974256
    34  H    4.780357   4.435456   5.565615   6.572239   3.346470
    35  H    6.323474   6.383936   7.601504   8.640447   5.575398
    36  H    7.767889   7.821060   9.089577  10.151715   6.874335
    37  H    7.712277   7.537551   8.635423   9.594899   6.520703
    38  H    8.577500   8.363165   9.574079  10.596040   7.127236
    39  H    8.639380   8.200298   9.283278  10.221894   6.830898
    40  H    8.697711   8.037681   8.901019   9.696256   6.646217
                    6          7          8          9         10
     6  C    0.000000
     7  C    1.517400   0.000000
     8  C    2.551314   1.545014   0.000000
     9  C    2.565212   1.539890   2.545392   0.000000
    10  C    1.526034   2.653365   3.569388   3.851707   0.000000
    11  C    2.595759   3.289299   3.646518   4.751797   1.524181
    12  C    3.253482   4.018478   3.938563   5.509811   2.525771
    13  C    4.558853   5.090211   4.713824   6.619111   3.837158
    14  C    5.601250   6.186956   5.602192   7.667283   5.050178
    15  C    5.202386   5.490384   5.148815   7.021681   4.346259
    16  C    4.829518   4.988139   4.928467   6.455411   3.859282
    17  C    3.637487   3.911651   4.212154   5.332697   2.578866
    18  S    4.167479   4.151330   4.833968   5.243783   3.220230
    19  O    4.054839   3.517961   4.163301   4.389037   3.636130
    20  O    4.379543   4.700804   5.698441   5.614536   3.236068
    21  C    2.394659   3.854273   4.732342   4.830090   1.534328
    22  O    3.576651   5.000638   5.832088   5.999855   2.478733
    23  O    2.306786   3.793875   4.650313   4.471039   2.354442
    24  H    3.199737   3.385857   3.132709   3.603355   4.518591
    25  H    4.339803   4.618482   4.728996   4.291390   5.682543
    26  H    2.093419   1.096029   2.129840   2.127999   2.635540
    27  H    3.484229   2.175389   1.095176   2.778081   4.434549
    28  H    2.769629   2.199435   1.093834   3.506768   3.378179
    29  H    2.900713   2.195699   1.095309   2.810866   4.126096
    30  H    3.489651   2.165679   2.775909   1.094897   4.658286
    31  H    2.785276   2.188821   3.504237   1.094354   3.865990
    32  H    2.929433   2.202296   2.820785   1.093470   4.395455
    33  H    2.154159   2.955499   4.127327   3.929451   1.097359
    34  H    3.134396   4.120232   4.039463   5.495076   2.694489
    35  H    5.352494   5.983874   5.326442   7.379273   5.048133
    36  H    6.365679   6.751181   5.978106   8.228736   5.891071
    37  H    6.223752   6.978251   6.543812   8.457809   5.494015
    38  H    6.256802   6.467534   5.988285   7.989562   5.432478
    39  H    5.703662   5.701086   5.648481   7.092884   4.738678
    40  H    5.459392   5.374591   5.842128   6.490250   4.456459
                   11         12         13         14         15
    11  C    0.000000
    12  C    1.400511   0.000000
    13  C    2.458863   1.399895   0.000000
    14  C    3.835504   2.530208   1.509282   0.000000
    15  C    2.822838   2.404760   1.402094   2.533693   0.000000
    16  C    2.440943   2.769363   2.424608   3.812002   1.391645
    17  C    1.404103   2.394098   2.802234   4.311050   2.416488
    18  S    2.814744   4.086104   4.597698   6.106594   4.035416
    19  O    3.465728   4.704462   5.271081   6.745198   4.768417
    20  O    3.303754   4.629484   5.341993   6.810435   4.965996
    21  C    2.534699   2.994004   4.328466   5.261158   5.100314
    22  O    3.073979   3.384628   4.527073   5.363926   5.253673
    23  O    3.519805   3.762881   5.132851   5.864742   6.077153
    24  H    5.123263   4.951730   5.968555   6.341818   6.974691
    25  H    6.593678   6.534884   7.656385   8.004025   8.697902
    26  H    3.077802   4.077786   5.040042   6.308658   5.166828
    27  H    4.420630   4.797156   5.405358   6.314251   5.625056
    28  H    3.019383   3.100218   3.696792   4.582975   4.124435
    29  H    4.321919   4.363961   5.157874   5.807813   5.806224
    30  H    5.365407   6.153717   7.130523   8.207056   7.378717
    31  H    4.995251   5.913730   7.111619   8.237707   7.481527
    32  H    5.332393   5.881704   7.011298   7.895556   7.582443
    33  H    2.153922   3.412160   4.601116   5.925934   4.846150
    34  H    2.144859   1.087315   2.144662   2.715257   3.386991
    35  H    4.072036   2.683236   2.164311   1.093487   3.408268
    36  H    4.583608   3.383976   2.163143   1.093994   2.711895
    37  H    4.328307   3.071353   2.154787   1.096870   3.026748
    38  H    3.909024   3.394882   2.160663   2.744119   1.086226
    39  H    3.425369   3.856779   3.405883   4.679121   2.146866
    40  H    3.738319   4.793607   4.938326   6.395370   4.016866
                   16         17         18         19         20
    16  C    0.000000
    17  C    1.397441   0.000000
    18  S    2.721338   1.798324   0.000000
    19  O    3.538625   2.682374   1.472232   0.000000
    20  O    3.756746   2.695284   1.469594   2.548530   0.000000
    21  C    4.858308   3.721470   4.465017   5.086021   4.114955
    22  O    5.071325   4.082051   4.846373   5.735668   4.288660
    23  O    5.946940   4.812837   5.529390   5.882640   5.244874
    24  H    7.109526   6.280001   7.146188   6.799359   7.555406
    25  H    8.759700   7.796393   8.472939   8.098175   8.658010
    26  H    4.422783   3.319831   3.219437   2.438837   3.880386
    27  H    5.303690   4.705769   5.090040   4.155819   6.091960
    28  H    4.056138   3.540005   4.490539   4.060507   5.469503
    29  H    5.777734   5.092595   5.843706   5.233375   6.615717
    30  H    6.743582   5.725418   5.469959   4.369621   6.000292
    31  H    6.793373   5.548266   5.213056   4.444215   5.312070
    32  H    7.178172   6.094001   6.205461   5.424115   6.548427
    33  H    4.068385   2.679657   2.664800   3.117923   2.361365
    34  H    3.856657   3.379817   4.956831   5.491064   5.341472
    35  H    4.566839   4.823390   6.603704   7.115217   7.264436
    36  H    4.079397   4.832847   6.581955   7.127586   7.443343
    37  H    4.273688   4.789648   6.557513   7.377330   7.092617
    38  H    2.146870   3.398161   4.866914   5.571967   5.842026
    39  H    1.087435   2.162043   2.824288   3.599397   3.934461
    40  H    2.633261   2.414954   1.371943   2.294287   2.301423
                   21         22         23         24         25
    21  C    0.000000
    22  O    1.199760   0.000000
    23  O    1.375936   2.259191   0.000000
    24  H    4.741454   5.812294   3.832433   0.000000
    25  H    5.609893   6.621671   4.397708   1.859522   0.000000
    26  H    4.063267   5.096658   4.330102   4.464263   5.698743
    27  H    5.711061   6.799642   5.679160   3.959584   5.437591
    28  H    4.545022   5.524361   4.686019   3.600495   5.358922
    29  H    5.026683   6.149453   4.666854   2.246770   3.884722
    30  H    5.786953   6.938446   5.529676   4.349549   5.067778
    31  H    4.710976   5.817001   4.371024   4.287777   4.686108
    32  H    5.138431   6.330496   4.499453   2.902338   3.329509
    33  H    2.117017   2.829008   2.997427   5.335413   6.349712
    34  H    2.725617   3.170693   3.171108   4.306997   5.797321
    35  H    5.136420   5.355519   5.488885   5.591451   7.202946
    36  H    6.258136   6.406450   6.854943   6.953686   8.685777
    37  H    5.464421   5.326508   6.145951   7.087136   8.645304
    38  H    6.149474   6.232937   7.117675   7.847730   9.611004
    39  H    5.794962   5.963271   6.922359   8.058426   9.709620
    40  H    5.612630   5.826124   6.763501   8.326099   9.744158
                   26         27         28         29         30
    26  H    0.000000
    27  H    2.430374   0.000000
    28  H    2.505484   1.769794   0.000000
    29  H    3.058635   1.769283   1.772053   0.000000
    30  H    2.417652   2.558622   3.777571   3.144640   0.000000
    31  H    2.497767   3.780508   4.357491   3.822418   1.769742
    32  H    3.063238   3.145471   3.835664   2.644517   1.766429
    33  H    2.614847   4.825429   4.058003   4.814581   4.646473
    34  H    4.442213   5.026511   3.340727   4.203267   6.258767
    35  H    6.294186   6.115181   4.397416   5.331193   7.973906
    36  H    6.823407   6.545285   4.915644   6.197073   8.655797
    37  H    7.073931   7.304775   5.551581   6.750536   9.063565
    38  H    6.127787   6.367888   4.931056   6.616949   8.279610
    39  H    4.990901   5.856471   4.827575   6.570734   7.255930
    40  H    4.417104   5.976305   5.364391   6.880442   6.601661
                   31         32         33         34         35
    31  H    0.000000
    32  H    1.771073   0.000000
    33  H    3.698751   4.651498   0.000000
    34  H    5.904908   5.677109   3.734523   0.000000
    35  H    7.996340   7.460699   6.037314   2.450762   0.000000
    36  H    8.879841   8.470113   6.726184   3.684016   1.773254
    37  H    8.939040   8.693223   6.323637   3.180189   1.765547
    38  H    8.493738   8.540620   5.912846   4.290467   3.745075
    39  H    7.399252   7.897009   4.765301   4.944070   5.512235
    40  H    6.511086   7.463522   3.975858   5.787456   7.071931
                   36         37         38         39         40
    36  H    0.000000
    37  H    1.766464   0.000000
    38  H    2.530061   3.127624   0.000000
    39  H    4.778731   5.090391   2.463164   0.000000
    40  H    6.711987   6.779458   4.597138   2.202508   0.000000
 Stoichiometry    C17H17NO4S
 Framework group  C1[X(C17H17NO4S)]
 Deg. of freedom   114
 Full point group                 C1      NOp   1
 Largest Abelian subgroup         C1      NOp   1
 Largest concise Abelian subgroup C1      NOp   1
                         Standard orientation:                         
 ---------------------------------------------------------------------
 Center     Atomic      Atomic             Coordinates (Angstroms)
 Number     Number       Type             X           Y           Z
 ---------------------------------------------------------------------
      1          6           0       -3.951911    1.017591    1.474774
      2          6           0       -3.637870    0.518609    0.265579
      3          6           0       -4.689386    0.165426   -0.656196
      4          7           0       -5.539420   -0.133467   -1.391591
      5          6           0       -2.254261    0.321179   -0.209741
      6          6           0       -1.180081   -0.322461    0.283653
      7          6           0       -0.995829   -1.184626    1.518653
      8          6           0       -0.607331   -0.365134    2.769481
      9          6           0       -2.181638   -2.121846    1.813166
     10          6           0       -0.071134   -0.175152   -0.754285
     11          6           0        1.240906    0.431773   -0.271251
     12          6           0        1.285648    1.789335    0.070005
     13          6           0        2.452923    2.421879    0.513923
     14          6           0        2.461613    3.898900    0.824191
     15          6           0        3.619760    1.653564    0.632461
     16          6           0        3.608999    0.300802    0.305971
     17          6           0        2.431849   -0.301396   -0.146263
     18         16           0        2.525273   -2.062628   -0.497406
     19          8           0        1.988625   -2.827187    0.640542
     20          8           0        2.057538   -2.346639   -1.861323
     21          6           0       -0.730971    0.679379   -1.844494
     22          8           0       -0.266994    1.115952   -2.861132
     23          8           0       -2.034112    0.911096   -1.468554
     24          1           0       -3.176139    1.323488    2.166449
     25          1           0       -4.985389    1.126876    1.784635
     26          1           0       -0.138197   -1.829757    1.296046
     27          1           0       -0.336040   -1.041920    3.586655
     28          1           0        0.248011    0.288830    2.576625
     29          1           0       -1.440320    0.257105    3.113938
     30          1           0       -1.908206   -2.812638    2.617430
     31          1           0       -2.444561   -2.717542    0.933605
     32          1           0       -3.073895   -1.576860    2.133390
     33          1           0        0.126310   -1.151190   -1.215330
     34          1           0        0.377653    2.379812   -0.025575
     35          1           0        1.469356    4.253045    1.116973
     36          1           0        3.162159    4.132978    1.631202
     37          1           0        2.769459    4.475498   -0.056655
     38          1           0        4.540648    2.114484    0.978011
     39          1           0        4.522124   -0.281222    0.405801
     40          1           0        3.890439   -2.197378   -0.477581
 ---------------------------------------------------------------------
 Rotational constants (GHZ):           0.3403545           0.1754874           0.1574701
 Standard basis: 6-31+G(d,p) (6D, 7F)
 There are   526 symmetry adapted cartesian basis functions of A   symmetry.
 There are   526 symmetry adapted basis functions of A   symmetry.
   526 basis functions,   879 primitive gaussians,   526 cartesian basis functions
    87 alpha electrons       87 beta electrons
       nuclear repulsion energy      2114.3968429322 Hartrees.
 NAtoms=   40 NActive=   40 NUniq=   40 SFac= 1.00D+00 NAtFMM=   60 NAOKFM=F Big=F
 Integral buffers will be    131072 words long.
 Regular integral format.
 Two-electron integral symmetry is turned on.
 One-electron integrals computed using PRISM.
 NBasis=   526 RedAO= T EigKep=  1.44D-06  NBF=   526
 NBsUse=   523 1.00D-06 EigRej=  7.78D-07 NBFU=   523
 ExpMin= 4.05D-02 ExpMax= 2.19D+04 ExpMxC= 3.30D+03 IAcc=3 IRadAn=         5 AccDes= 0.00D+00
 Harris functional with IExCor=  402 and IRadAn=       5 diagonalized for initial guess.
 HarFok:  IExCor=  402 AccDes= 0.00D+00 IRadAn=         5 IDoV= 1 UseB2=F ITyADJ=14
 ICtDFT=  3500011 ScaDFX=  1.000000  1.000000  1.000000  1.000000
 FoFCou: FMM=F IPFlag=           0 FMFlag=      100000 FMFlg1=           0
         NFxFlg=           0 DoJE=T BraDBF=F KetDBF=T FulRan=T
         wScrn=  0.000000 ICntrl=       500 IOpCl=  0 I1Cent=   200000004 NGrid=           0
         NMat0=    1 NMatS0=      1 NMatT0=    0 NMatD0=    1 NMtDS0=    0 NMtDT0=    0
 Petite list used in FoFCou.
 Requested convergence on RMS density matrix=1.00D-08 within 128 cycles.
 Requested convergence on MAX density matrix=1.00D-06.
 Requested convergence on             energy=1.00D-06.
 No special actions if energy rises.
 SCF Done:  E(RB3LYP) =  -1411.81718634     A.U. after   17 cycles
            NFock= 17  Conv=0.42D-08     -V/T= 2.0079
 DoSCS=F DFT=T ScalE2(SS,OS)=  1.000000  1.000000
 ExpMin= 4.05D-02 ExpMax= 2.19D+04 ExpMxC= 3.30D+03 IAcc=3 IRadAn=         5 AccDes= 0.00D+00
 HarFok:  IExCor=  205 AccDes= 0.00D+00 IRadAn=         5 IDoV=-2 UseB2=F ITyADJ=14
 ICtDFT= 12500011 ScaDFX=  1.000000  1.000000  1.000000  1.000000
 GSVD:  LWork=        -945 too small for GESVD, short by        4050 words or        4050 for optimal perf.
 Range of M.O.s used for correlation:    28   523
 NBasis=   526 NAE=    87 NBE=    87 NFC=    27 NFV=     0
 NROrb=    496 NOA=    60 NOB=    60 NVA=   436 NVB=   436

 **** Warning!!: The largest alpha MO coefficient is  0.11690855D+03

 Orbital symmetries:
       Occupied  (A) (A) (A) (A) (A) (A) (A) (A) (A) (A) (A) (A)
                 (A) (A) (A) (A) (A) (A) (A) (A) (A) (A) (A) (A)
                 (A) (A) (A) (A) (A) (A) (A) (A) (A) (A) (A) (A)
                 (A) (A) (A) (A) (A) (A) (A) (A) (A) (A) (A) (A)
                 (A) (A) (A) (A) (A) (A) (A) (A) (A) (A) (A) (A)
                 (A) (A) (A) (A) (A) (A) (A) (A) (A) (A) (A) (A)
                 (A) (A) (A) (A) (A) (A) (A) (A) (A) (A) (A) (A)
                 (A) (A) (A)
       Virtual   (A) (A) (A) (A) (A) (A) (A) (A) (A) (A) (A) (A)
                 (A) (A) (A) (A) (A) (A) (A) (A) (A) (A) (A) (A)
                 (A) (A) (A) (A) (A) (A) (A) (A) (A) (A) (A) (A)
                 (A) (A) (A) (A) (A) (A) (A) (A) (A) (A) (A) (A)
                 (A) (A) (A) (A) (A) (A) (A) (A) (A) (A) (A) (A)
                 (A) (A) (A) (A) (A) (A) (A) (A) (A) (A) (A) (A)
                 (A) (A) (A) (A) (A) (A) (A) (A) (A) (A) (A) (A)
                 (A) (A) (A) (A) (A) (A) (A) (A) (A) (A) (A) (A)
                 (A) (A) (A) (A) (A) (A) (A) (A) (A) (A) (A) (A)
                 (A) (A) (A) (A) (A) (A) (A) (A) (A) (A) (A) (A)
                 (A) (A) (A) (A) (A) (A) (A) (A) (A) (A) (A) (A)
                 (A) (A) (A) (A) (A) (A) (A) (A) (A) (A) (A) (A)
                 (A) (A) (A) (A) (A) (A) (A) (A) (A) (A) (A) (A)
                 (A) (A) (A) (A) (A) (A) (A) (A) (A) (A) (A) (A)
                 (A) (A) (A) (A) (A) (A) (A) (A) (A) (A) (A) (A)
                 (A) (A) (A) (A) (A) (A) (A) (A) (A) (A) (A) (A)
                 (A) (A) (A) (A) (A) (A) (A) (A) (A) (A) (A) (A)
                 (A) (A) (A) (A) (A) (A) (A) (A) (A) (A) (A) (A)
                 (A) (A) (A) (A) (A) (A) (A) (A) (A) (A) (A) (A)
                 (A) (A) (A) (A) (A) (A) (A) (A) (A) (A) (A) (A)
                 (A) (A) (A) (A) (A) (A) (A) (A) (A) (A) (A) (A)
                 (A) (A) (A) (A) (A) (A) (A) (A) (A) (A) (A) (A)
                 (A) (A) (A) (A) (A) (A) (A) (A) (A) (A) (A) (A)
                 (A) (A) (A) (A) (A) (A) (A) (A) (A) (A) (A) (A)
                 (A) (A) (A) (A) (A) (A) (A) (A) (A) (A) (A) (A)
                 (A) (A) (A) (A) (A) (A) (A) (A) (A) (A) (A) (A)
                 (A) (A) (A) (A) (A) (A) (A) (A) (A) (A) (A) (A)
                 (A) (A) (A) (A) (A) (A) (A) (A) (A) (A) (A) (A)
                 (A) (A) (A) (A) (A) (A) (A) (A) (A) (A) (A) (A)
                 (A) (A) (A) (A) (A) (A) (A) (A) (A) (A) (A) (A)
                 (A) (A) (A) (A) (A) (A) (A) (A) (A) (A) (A) (A)
                 (A) (A) (A) (A) (A) (A) (A) (A) (A) (A) (A) (A)
                 (A) (A) (A) (A) (A) (A) (A) (A) (A) (A) (A) (A)
                 (A) (A) (A) (A) (A) (A) (A) (A) (A) (A) (A) (A)
                 (A) (A) (A) (A) (A) (A) (A) (A) (A) (A) (A) (A)
                 (A) (A) (A) (A) (A) (A) (A) (A) (A) (A) (A) (A)
                 (A) (A) (A) (A)
    24 initial guesses have been made.
 Convergence on wavefunction:    0.001000000000000
 Iteration     1 Dimension    24 NMult     0 NNew     24
 CISAX will form    24 AO SS matrices at one time.
 New state      1 was old state      2
 New state      2 was old state     12
 New state      3 was old state      1
 New state      4 was old state     14
 New state      5 was old state      4
 New state      6 was old state      3
 New state      7 was old state     20
 New state      8 was old state     16
 New state      9 was old state      8
 New state     10 was old state      5
 New state     11 was old state      6
 New state     12 was old state      7
 Vector   5 SDiff=6.91D+00 TDiff=8.30D+00 assumed to be singlet.
 Vector  11 SDiff=6.97D+00 TDiff=7.93D+00 assumed to be singlet.
 Iteration     2 Dimension    36 NMult    24 NNew     12
 New state      3 was old state      4
 New state      4 was old state      3
 New state      5 was old state      6
 New state      6 was old state     10
 Iteration     3 Dimension    48 NMult    36 NNew     12
 New state      2 was old state      3
 New state      3 was old state      2
 Iteration     4 Dimension    60 NMult    48 NNew     12
 Iteration     5 Dimension    72 NMult    60 NNew     12
 Iteration     6 Dimension    80 NMult    72 NNew      8
 Iteration     7 Dimension    82 NMult    80 NNew      2
 Iteration     8 Dimension    84 NMult    82 NNew      2
 Iteration     9 Dimension    86 NMult    84 NNew      2
 ***********************************************************************
 Excited states from <AA,BB:AA,BB> singles matrix:
 ***********************************************************************
 
 Ground to excited state transition densities written to RWF  633
 Ground to excited state transition electric dipole moments (Au):
       state          X           Y           Z        Dip. S.      Osc.
         1         0.0000      0.0000      0.0000      0.0000      0.0000
         2        -0.0000      0.0000      0.0000      0.0000      0.0000
         3         0.0000     -0.0000      0.0000      0.0000      0.0000
         4         0.8991     -0.2667     -0.0531      0.8824      0.0869
         5         0.2408      0.0711     -0.0228      0.0636      0.0071
         6        -0.0150     -0.0471      0.0325      0.0035      0.0004
 Ground to excited state transition velocity dipole moments (Au):
       state          X           Y           Z        Dip. S.      Osc.
         1        -0.0000      0.0000      0.0000      0.0000      0.0000
         2         0.0000     -0.0000     -0.0000      0.0000      0.0000
         3         0.0000     -0.0000     -0.0000      0.0000      0.0000
         4        -0.1319      0.0398      0.0040      0.0190      0.0857
         5        -0.0398     -0.0131      0.0044      0.0018      0.0071
         6         0.0032      0.0096     -0.0043      0.0001      0.0005
 Ground to excited state transition magnetic dipole moments (Au):
       state          X           Y           Z
         1         0.0000      0.0000      0.0000
         2         0.0000     -0.0000     -0.0000
         3         0.0000      0.0000     -0.0000
         4         0.0652      0.2782     -0.3038
         5        -0.0877      0.0962      0.0483
         6        -0.2044     -0.0283      0.2249
 Ground to excited state transition velocity quadrupole moments (Au):
       state          XX          YY          ZZ          XY          XZ          YZ
         1        -0.0000      0.0000      0.0000     -0.0000     -0.0000      0.0000
         2         0.0000     -0.0000     -0.0000     -0.0000      0.0000     -0.0000
         3        -0.0000     -0.0000     -0.0000     -0.0000     -0.0000     -0.0000
         4         0.7668     -0.0895      0.0374     -0.3434     -0.2653      0.0942
         5        -0.0885     -0.0580     -0.0333     -0.0422      0.0326     -0.0260
         6        -0.2974     -0.0124      0.0840      0.0339      0.0237     -0.0343
 <0|del|b> * <b|rxdel|0> + <0|del|b> * <b|delr+rdel|0>
 Rotatory Strengths (R) in cgs (10**-40 erg-esu-cm/Gauss)
       state          XX          YY          ZZ    R(velocity)    E-M Angle
         1         0.0000     -0.0000     -0.0000      0.0000       90.00
         2         0.0000     -0.0000      0.0000      0.0000       90.00
         3        -0.0000      0.0000      0.0000      0.0000       90.00
         4        45.5335    -49.9537     10.3758      1.9852       88.76
         5        -1.7011     10.3872      1.6158      3.4340       65.31
         6        -3.2726     -3.1971     -1.1819     -2.5505      124.21
 1/2[<0|r|b>*<b|rxdel|0> + (<0|rxdel|b>*<b|r|0>)*]
 Rotatory Strengths (R) in cgs (10**-40 erg-esu-cm/Gauss)
       state          XX          YY          ZZ     R(length)
         1        -0.0000     -0.0000     -0.0000     -0.0000
         2         0.0000      0.0000      0.0000      0.0000
         3        -0.0000      0.0000      0.0000     -0.0000
         4       -41.4840     52.4619    -11.4167     -0.1463
         5        14.9456     -4.8403      0.7793      3.6282
         6        -2.1661     -0.9442     -5.1685     -2.7596
  1/2[<0|del|b>*<b|r|0> + (<0|r|b>*<b|del|0>)*] (Au)
       state          X           Y           Z        Dip. S.   Osc.(frdel)
         1        -0.0000      0.0000      0.0000      0.0000      0.0000
         2        -0.0000     -0.0000     -0.0000      0.0000      0.0000
         3         0.0000      0.0000     -0.0000     -0.0000     -0.0000
         4        -0.1186     -0.0106     -0.0002      0.1294      0.0863
         5        -0.0096     -0.0009     -0.0001      0.0106      0.0071
         6        -0.0000     -0.0005     -0.0001      0.0006      0.0004

 Excitation energies and oscillator strengths:
 
 Excited State   1:      Triplet-A      2.8235 eV  439.11 nm  f=0.0000  <S**2>=2.000
      83 -> 88        -0.24154
      84 -> 88         0.21180
      87 -> 88         0.58830
      87 -> 91         0.10882
 This state for optimization and/or second-order correction.
 Total Energy, E(TD-HF/TD-DFT) =  -1411.71342440    
 Copying the excited state density for this state as the 1-particle RhoCI density.
 
 Excited State   2:      Triplet-A      3.5691 eV  347.38 nm  f=0.0000  <S**2>=2.000
      83 -> 89         0.11037
      83 -> 90        -0.11992
      84 -> 88         0.10037
      84 -> 89         0.10267
      84 -> 90        -0.13909
      85 -> 89        -0.12095
      85 -> 90        -0.35943
      86 -> 88         0.13065
      86 -> 89         0.47253
 
 Excited State   3:      Triplet-A      3.5806 eV  346.26 nm  f=0.0000  <S**2>=2.000
      83 -> 88         0.37815
      84 -> 88        -0.35584
      87 -> 88         0.20634
      87 -> 91         0.29498
      87 -> 94         0.10911
 
 Excited State   4:      Singlet-A      4.0209 eV  308.35 nm  f=0.0869  <S**2>=0.000
      87 -> 88         0.69259
 
 Excited State   5:      Singlet-A      4.5653 eV  271.58 nm  f=0.0071  <S**2>=0.000
      87 -> 89         0.68912
      87 -> 90        -0.13264
 
 Excited State   6:      Singlet-A      4.7603 eV  260.45 nm  f=0.0004  <S**2>=0.000
      85 -> 88         0.23559
      86 -> 88         0.63408
 SavETr:  write IOETrn=   770 NScale= 10 NData=  16 NLR=1 NState=    6 LETran=     118.

 **********************************************************************

            Population analysis using the SCF Density.

 **********************************************************************

 Orbital symmetries:
       Occupied  (A) (A) (A) (A) (A) (A) (A) (A) (A) (A) (A) (A)
                 (A) (A) (A) (A) (A) (A) (A) (A) (A) (A) (A) (A)
                 (A) (A) (A) (A) (A) (A) (A) (A) (A) (A) (A) (A)
                 (A) (A) (A) (A) (A) (A) (A) (A) (A) (A) (A) (A)
                 (A) (A) (A) (A) (A) (A) (A) (A) (A) (A) (A) (A)
                 (A) (A) (A) (A) (A) (A) (A) (A) (A) (A) (A) (A)
                 (A) (A) (A) (A) (A) (A) (A) (A) (A) (A) (A) (A)
                 (A) (A) (A)
       Virtual   (A) (A) (A) (A) (A) (A) (A) (A) (A) (A) (A) (A)
                 (A) (A) (A) (A) (A) (A) (A) (A) (A) (A) (A) (A)
                 (A) (A) (A) (A) (A) (A) (A) (A) (A) (A) (A) (A)
                 (A) (A) (A) (A) (A) (A) (A) (A) (A) (A) (A) (A)
                 (A) (A) (A) (A) (A) (A) (A) (A) (A) (A) (A) (A)
                 (A) (A) (A) (A) (A) (A) (A) (A) (A) (A) (A) (A)
                 (A) (A) (A) (A) (A) (A) (A) (A) (A) (A) (A) (A)
                 (A) (A) (A) (A) (A) (A) (A) (A) (A) (A) (A) (A)
                 (A) (A) (A) (A) (A) (A) (A) (A) (A) (A) (A) (A)
                 (A) (A) (A) (A) (A) (A) (A) (A) (A) (A) (A) (A)
                 (A) (A) (A) (A) (A) (A) (A) (A) (A) (A) (A) (A)
                 (A) (A) (A) (A) (A) (A) (A) (A) (A) (A) (A) (A)
                 (A) (A) (A) (A) (A) (A) (A) (A) (A) (A) (A) (A)
                 (A) (A) (A) (A) (A) (A) (A) (A) (A) (A) (A) (A)
                 (A) (A) (A) (A) (A) (A) (A) (A) (A) (A) (A) (A)
                 (A) (A) (A) (A) (A) (A) (A) (A) (A) (A) (A) (A)
                 (A) (A) (A) (A) (A) (A) (A) (A) (A) (A) (A) (A)
                 (A) (A) (A) (A) (A) (A) (A) (A) (A) (A) (A) (A)
                 (A) (A) (A) (A) (A) (A) (A) (A) (A) (A) (A) (A)
                 (A) (A) (A) (A) (A) (A) (A) (A) (A) (A) (A) (A)
                 (A) (A) (A) (A) (A) (A) (A) (A) (A) (A) (A) (A)
                 (A) (A) (A) (A) (A) (A) (A) (A) (A) (A) (A) (A)
                 (A) (A) (A) (A) (A) (A) (A) (A) (A) (A) (A) (A)
                 (A) (A) (A) (A) (A) (A) (A) (A) (A) (A) (A) (A)
                 (A) (A) (A) (A) (A) (A) (A) (A) (A) (A) (A) (A)
                 (A) (A) (A) (A) (A) (A) (A) (A) (A) (A) (A) (A)
                 (A) (A) (A) (A) (A) (A) (A) (A) (A) (A) (A) (A)
                 (A) (A) (A) (A) (A) (A) (A) (A) (A) (A) (A) (A)
                 (A) (A) (A) (A) (A) (A) (A) (A) (A) (A) (A) (A)
                 (A) (A) (A) (A) (A) (A) (A) (A) (A) (A) (A) (A)
                 (A) (A) (A) (A) (A) (A) (A) (A) (A) (A) (A) (A)
                 (A) (A) (A) (A) (A) (A) (A) (A) (A) (A) (A) (A)
                 (A) (A) (A) (A) (A) (A) (A) (A) (A) (A) (A) (A)
                 (A) (A) (A) (A) (A) (A) (A) (A) (A) (A) (A) (A)
                 (A) (A) (A) (A) (A) (A) (A) (A) (A) (A) (A) (A)
                 (A) (A) (A) (A) (A) (A) (A) (A) (A) (A) (A) (A)
                 (A) (A) (A) (A)
 The electronic state is 1-A.
 Alpha  occ. eigenvalues --  -89.13104 -19.23037 -19.17762 -19.17712 -19.16869
 Alpha  occ. eigenvalues --  -14.35751 -10.34364 -10.28702 -10.27510 -10.26161
 Alpha  occ. eigenvalues --  -10.25868 -10.24850 -10.24783 -10.24774 -10.24593
 Alpha  occ. eigenvalues --  -10.24540 -10.23447 -10.23380 -10.23262 -10.22037
 Alpha  occ. eigenvalues --  -10.21658 -10.19797 -10.19087  -8.15967  -6.12380
 Alpha  occ. eigenvalues --   -6.12341  -6.12305  -1.13935  -1.13205  -1.05879
 Alpha  occ. eigenvalues --   -1.02905  -0.92465  -0.91514  -0.86896  -0.85097
 Alpha  occ. eigenvalues --   -0.82988  -0.81284  -0.77864  -0.75447  -0.74408
 Alpha  occ. eigenvalues --   -0.70213  -0.69893  -0.68114  -0.65827  -0.64391
 Alpha  occ. eigenvalues --   -0.62707  -0.60909  -0.57540  -0.56891  -0.54474
 Alpha  occ. eigenvalues --   -0.53519  -0.51479  -0.50559  -0.49966  -0.48964
 Alpha  occ. eigenvalues --   -0.48387  -0.47950  -0.47681  -0.46901  -0.46334
 Alpha  occ. eigenvalues --   -0.45361  -0.44804  -0.44369  -0.43265  -0.42526
 Alpha  occ. eigenvalues --   -0.41817  -0.41046  -0.40744  -0.40087  -0.40001
 Alpha  occ. eigenvalues --   -0.39416  -0.38753  -0.37766  -0.37370  -0.36740
 Alpha  occ. eigenvalues --   -0.36289  -0.35995  -0.35705  -0.34881  -0.34316
 Alpha  occ. eigenvalues --   -0.33766  -0.32528  -0.30912  -0.30133  -0.29100
 Alpha  occ. eigenvalues --   -0.28368  -0.25920
 Alpha virt. eigenvalues --   -0.08681  -0.06618  -0.05898  -0.03965  -0.02890
 Alpha virt. eigenvalues --   -0.01562  -0.00711  -0.00280   0.00445   0.00729
 Alpha virt. eigenvalues --    0.01037   0.01770   0.01951   0.02225   0.02588
 Alpha virt. eigenvalues --    0.02846   0.03433   0.04099   0.04540   0.04601
 Alpha virt. eigenvalues --    0.04722   0.04960   0.05469   0.06252   0.06526
 Alpha virt. eigenvalues --    0.06978   0.07341   0.07682   0.07882   0.08134
 Alpha virt. eigenvalues --    0.08556   0.08784   0.08876   0.08965   0.09280
 Alpha virt. eigenvalues --    0.09685   0.10062   0.10500   0.10832   0.11428
 Alpha virt. eigenvalues --    0.11918   0.12021   0.12554   0.12946   0.13149
 Alpha virt. eigenvalues --    0.13333   0.13766   0.14045   0.14345   0.14832
 Alpha virt. eigenvalues --    0.14869   0.15322   0.15537   0.16151   0.16459
 Alpha virt. eigenvalues --    0.16834   0.16982   0.17134   0.17495   0.17744
 Alpha virt. eigenvalues --    0.17963   0.18290   0.18780   0.19236   0.19487
 Alpha virt. eigenvalues --    0.19818   0.20161   0.20268   0.20532   0.20911
 Alpha virt. eigenvalues --    0.21353   0.21397   0.21537   0.22282   0.22403
 Alpha virt. eigenvalues --    0.22559   0.22938   0.23453   0.23602   0.24387
 Alpha virt. eigenvalues --    0.24712   0.24848   0.25316   0.25375   0.25749
 Alpha virt. eigenvalues --    0.25981   0.26617   0.26841   0.27016   0.27236
 Alpha virt. eigenvalues --    0.27313   0.27770   0.27840   0.28019   0.28449
 Alpha virt. eigenvalues --    0.28710   0.28958   0.29390   0.30247   0.30734
 Alpha virt. eigenvalues --    0.31136   0.31379   0.31831   0.32401   0.32558
 Alpha virt. eigenvalues --    0.33032   0.33244   0.33618   0.33974   0.34362
 Alpha virt. eigenvalues --    0.34888   0.35271   0.36056   0.36360   0.37140
 Alpha virt. eigenvalues --    0.37487   0.37760   0.38081   0.39141   0.39532
 Alpha virt. eigenvalues --    0.40242   0.40598   0.40752   0.41385   0.42011
 Alpha virt. eigenvalues --    0.43169   0.44225   0.44818   0.45946   0.46741
 Alpha virt. eigenvalues --    0.47227   0.48219   0.48946   0.49752   0.51870
 Alpha virt. eigenvalues --    0.52236   0.55816   0.57590   0.59488   0.62307
 Alpha virt. eigenvalues --    0.62719   0.63987   0.64696   0.64982   0.65674
 Alpha virt. eigenvalues --    0.66648   0.67459   0.68550   0.68795   0.69127
 Alpha virt. eigenvalues --    0.69398   0.69864   0.70159   0.71204   0.71397
 Alpha virt. eigenvalues --    0.72538   0.73146   0.73776   0.74785   0.76118
 Alpha virt. eigenvalues --    0.76465   0.77126   0.77678   0.78254   0.78937
 Alpha virt. eigenvalues --    0.79288   0.80073   0.80586   0.81467   0.81799
 Alpha virt. eigenvalues --    0.82655   0.82982   0.84256   0.85148   0.86313
 Alpha virt. eigenvalues --    0.86591   0.87432   0.88400   0.89366   0.90057
 Alpha virt. eigenvalues --    0.90761   0.91538   0.92155   0.92864   0.93829
 Alpha virt. eigenvalues --    0.95681   0.95839   0.96234   0.97791   0.98189
 Alpha virt. eigenvalues --    0.98641   0.99674   1.00302   1.00941   1.02062
 Alpha virt. eigenvalues --    1.02375   1.02716   1.03781   1.04515   1.05143
 Alpha virt. eigenvalues --    1.05445   1.06207   1.07463   1.08048   1.09076
 Alpha virt. eigenvalues --    1.09501   1.10239   1.11819   1.12376   1.13236
 Alpha virt. eigenvalues --    1.14500   1.16176   1.17553   1.17603   1.18454
 Alpha virt. eigenvalues --    1.19471   1.20088   1.21575   1.22662   1.23331
 Alpha virt. eigenvalues --    1.24043   1.24577   1.25274   1.26255   1.26939
 Alpha virt. eigenvalues --    1.28167   1.29166   1.30378   1.30654   1.30940
 Alpha virt. eigenvalues --    1.32270   1.32524   1.33162   1.34370   1.35130
 Alpha virt. eigenvalues --    1.36352   1.37239   1.37768   1.38431   1.39298
 Alpha virt. eigenvalues --    1.39427   1.40873   1.41307   1.42110   1.42749
 Alpha virt. eigenvalues --    1.43719   1.44945   1.47177   1.47484   1.48292
 Alpha virt. eigenvalues --    1.50229   1.50928   1.52074   1.52702   1.54900
 Alpha virt. eigenvalues --    1.55260   1.57275   1.58052   1.59896   1.62913
 Alpha virt. eigenvalues --    1.63866   1.64369   1.66238   1.68407   1.69985
 Alpha virt. eigenvalues --    1.71231   1.72037   1.73386   1.74478   1.75831
 Alpha virt. eigenvalues --    1.76980   1.77562   1.78355   1.79583   1.80403
 Alpha virt. eigenvalues --    1.80746   1.81107   1.82434   1.82602   1.83624
 Alpha virt. eigenvalues --    1.84767   1.85800   1.86330   1.87106   1.87516
 Alpha virt. eigenvalues --    1.88168   1.89951   1.90053   1.90485   1.91133
 Alpha virt. eigenvalues --    1.92259   1.93042   1.93782   1.95014   1.95475
 Alpha virt. eigenvalues --    1.95894   1.96657   1.97959   1.98467   1.99587
 Alpha virt. eigenvalues --    2.00281   2.01493   2.02763   2.03474   2.03979
 Alpha virt. eigenvalues --    2.04654   2.05122   2.05454   2.06747   2.07893
 Alpha virt. eigenvalues --    2.09801   2.10374   2.11321   2.12156   2.12611
 Alpha virt. eigenvalues --    2.13047   2.13453   2.15001   2.15642   2.15973
 Alpha virt. eigenvalues --    2.16948   2.18266   2.18933   2.20819   2.22180
 Alpha virt. eigenvalues --    2.24053   2.25213   2.26044   2.27600   2.27883
 Alpha virt. eigenvalues --    2.28438   2.29572   2.31493   2.31867   2.33205
 Alpha virt. eigenvalues --    2.34593   2.36522   2.38002   2.38142   2.39642
 Alpha virt. eigenvalues --    2.41662   2.42652   2.45271   2.46419   2.46723
 Alpha virt. eigenvalues --    2.48619   2.50224   2.51108   2.52093   2.52948
 Alpha virt. eigenvalues --    2.53683   2.55274   2.56380   2.57320   2.58967
 Alpha virt. eigenvalues --    2.59284   2.61957   2.63102   2.64074   2.64314
 Alpha virt. eigenvalues --    2.66335   2.67662   2.69219   2.69731   2.70741
 Alpha virt. eigenvalues --    2.72231   2.73389   2.75022   2.76222   2.76628
 Alpha virt. eigenvalues --    2.78566   2.79883   2.80794   2.81552   2.82904
 Alpha virt. eigenvalues --    2.83481   2.85586   2.87295   2.88035   2.88150
 Alpha virt. eigenvalues --    2.89102   2.89649   2.90895   2.91925   2.92727
 Alpha virt. eigenvalues --    2.98407   2.98600   2.98968   3.03590   3.05047
 Alpha virt. eigenvalues --    3.08952   3.13867   3.17390   3.21942   3.22644
 Alpha virt. eigenvalues --    3.24673   3.27896   3.28028   3.28601   3.29290
 Alpha virt. eigenvalues --    3.30176   3.38631   3.40082   3.42227   3.44413
 Alpha virt. eigenvalues --    3.45270   3.46491   3.48427   3.50069   3.50833
 Alpha virt. eigenvalues --    3.57849   3.61707   3.71221   3.99995   4.18460
 Alpha virt. eigenvalues --    4.24639   4.28587   4.30643   4.31406   4.32348
 Alpha virt. eigenvalues --    4.37498   4.39360   4.43238   4.45787   4.47481
 Alpha virt. eigenvalues --    4.49627   4.50209   4.54112   4.55873   4.60105
 Alpha virt. eigenvalues --    4.70609   4.75619   4.77128   4.78633   4.80624
 Alpha virt. eigenvalues --    4.96593
          Condensed to atoms (all electrons):
               1          2          3          4          5          6
     1  C    7.681888  -0.544190  -1.482119   0.036437   0.571646  -0.360148
     2  C   -0.544190  20.947365   1.650689  -0.049552 -13.768423  -0.182439
     3  C   -1.482119   1.650689  10.512255   0.063727  -4.450147  -0.261515
     4  N    0.036437  -0.049552   0.063727   7.186939   0.270479  -0.034631
     5  C    0.571646 -13.768423  -4.450147   0.270479  26.871574  -1.295571
     6  C   -0.360148  -0.182439  -0.261515  -0.034631  -1.295571  15.274953
     7  C    0.208051   0.154106  -0.162569   0.008896  -1.002470  -3.469134
     8  C   -0.035358  -0.001609  -0.020995   0.000941  -0.150997  -0.103719
     9  C   -0.080483  -0.087872  -0.012110  -0.001703   0.128708   0.363709
    10  C   -0.469455  -0.646712   0.392243  -0.003804  -3.697007  -1.719288
    11  C   -0.042968   0.149622   0.047728   0.002244   2.005578  -0.881258
    12  C   -0.066598   0.156541   0.020250  -0.001509  -1.335540  -0.888702
    13  C    0.050048  -0.241915   0.024334  -0.001052   0.945419   0.559917
    14  C   -0.009849  -0.059103  -0.000479   0.000042  -0.079282   0.069002
    15  C    0.011805  -0.021616   0.002620  -0.000098   0.180036   0.104520
    16  C   -0.003257   0.039016  -0.021315   0.000375  -0.470582  -1.711266
    17  C   -0.022764  -0.166824  -0.047172   0.001728  -0.716702   0.997701
    18  S    0.000685   0.028614   0.002895  -0.000135   0.048447  -0.184174
    19  O    0.000014  -0.005386   0.000400  -0.000004  -0.027760  -0.049057
    20  O    0.000159   0.009860  -0.000204   0.000005   0.059979  -0.008708
    21  C    0.161173  -1.056645  -0.394050   0.009381   0.884238   0.258606
    22  O   -0.008551   0.020219   0.002409   0.000337  -0.174687  -0.062145
    23  O   -0.025180  -0.132654   0.082034  -0.003619   0.203386   0.029782
    24  H    0.470248  -0.020400  -0.022812  -0.000064  -0.104088   0.016569
    25  H    0.484672  -0.093551  -0.044319   0.000364   0.011478  -0.006321
    26  H   -0.000622   0.003552  -0.002674   0.000007  -0.034632  -0.129297
    27  H   -0.000491   0.002043   0.000853  -0.000003   0.008421  -0.046073
    28  H    0.004562  -0.006182  -0.001665   0.000004  -0.002369   0.049799
    29  H   -0.012496   0.031976  -0.002194   0.000012  -0.075130   0.072558
    30  H    0.005803  -0.016797  -0.002393   0.000023   0.022877   0.021610
    31  H   -0.002377   0.045813  -0.005046   0.000167  -0.010298  -0.005027
    32  H   -0.030859  -0.006384   0.004844   0.000027  -0.004757   0.008522
    33  H   -0.000251   0.056978   0.008418  -0.000100   0.088762  -0.044759
    34  H    0.003869  -0.024878  -0.002812   0.000007  -0.002192   0.007139
    35  H   -0.000018  -0.000461  -0.000011   0.000000  -0.000284   0.002874
    36  H    0.000006  -0.000078  -0.000001   0.000000  -0.000289   0.001062
    37  H   -0.000018   0.000052   0.000002   0.000000   0.000096  -0.000897
    38  H   -0.000002   0.000057   0.000001  -0.000000   0.000324  -0.001030
    39  H   -0.000002  -0.000008   0.000001  -0.000000  -0.000154   0.000321
    40  H   -0.000005   0.000184   0.000011  -0.000000   0.000195  -0.031772
               7          8          9         10         11         12
     1  C    0.208051  -0.035358  -0.080483  -0.469455  -0.042968  -0.066598
     2  C    0.154106  -0.001609  -0.087872  -0.646712   0.149622   0.156541
     3  C   -0.162569  -0.020995  -0.012110   0.392243   0.047728   0.020250
     4  N    0.008896   0.000941  -0.001703  -0.003804   0.002244  -0.001509
     5  C   -1.002470  -0.150997   0.128708  -3.697007   2.005578  -1.335540
     6  C   -3.469134  -0.103719   0.363709  -1.719288  -0.881258  -0.888702
     7  C   10.713795  -0.073056  -0.884795   1.307270  -1.540110   0.912547
     8  C   -0.073056   6.028410  -0.479785  -0.065806   0.294289  -0.034761
     9  C   -0.884795  -0.479785   6.553248   0.250015  -0.526142   0.030740
    10  C    1.307270  -0.065806   0.250015  18.869876  -6.693727   2.669389
    11  C   -1.540110   0.294289  -0.526142  -6.693727  27.136378  -7.765044
    12  C    0.912547  -0.034761   0.030740   2.669389  -7.765044  27.406327
    13  C   -0.661713  -0.169108  -0.037134  -2.267405  -0.614270 -11.192696
    14  C   -0.107249   0.008464  -0.003962  -0.322749  -0.778473  -0.152401
    15  C    0.091979   0.002428   0.003100   0.633382   1.338452  -5.519436
    16  C    0.810470   0.138192  -0.041157  -0.921331  -6.828052   9.206095
    17  C   -0.213056  -0.018064  -0.087592  -0.573184   1.992746  -7.858508
    18  S    0.171397  -0.013966  -0.052442  -0.529439  -0.556603   0.090870
    19  O   -0.018802  -0.022107   0.033003   0.119398  -0.255984   0.065735
    20  O    0.009235  -0.005301  -0.000740  -0.103534   0.050750  -0.017632
    21  C   -0.054322  -0.052539   0.204775   0.158939  -1.899426   0.105695
    22  O    0.046173   0.000052  -0.002104  -0.141251   0.085686   0.147181
    23  O   -0.078175  -0.008470  -0.002975  -0.241867   0.008235  -0.053963
    24  H    0.019072  -0.012494   0.008166  -0.000117  -0.000177  -0.000736
    25  H   -0.001960   0.001054   0.001216  -0.001875   0.000699  -0.000223
    26  H    0.359778   0.003440  -0.005835   0.083782  -0.057770   0.015843
    27  H   -0.042820   0.471389  -0.032574  -0.000119   0.004063  -0.002769
    28  H   -0.158401   0.471330  -0.006923  -0.022951   0.031824  -0.035023
    29  H   -0.119170   0.441876  -0.014659   0.036967  -0.041755   0.023206
    30  H   -0.105324  -0.004307   0.448282  -0.011279  -0.002433  -0.001196
    31  H   -0.122366  -0.002987   0.495896  -0.020704  -0.005592  -0.002106
    32  H   -0.117987  -0.014491   0.476351   0.027588  -0.001351   0.001331
    33  H    0.000056   0.002766  -0.020417   0.230314   0.050064   0.015478
    34  H   -0.017845   0.007590   0.000017  -0.025745   0.113433   0.256433
    35  H   -0.000724   0.000100   0.000023  -0.001585  -0.020026  -0.131212
    36  H    0.000103  -0.000120   0.000011  -0.000669  -0.008988   0.030062
    37  H   -0.000023   0.000038  -0.000002   0.000693   0.020210   0.126757
    38  H    0.000588  -0.000144   0.000013   0.010830   0.010974   0.072806
    39  H   -0.000361   0.000338  -0.000012  -0.007189   0.011958  -0.014922
    40  H    0.021909  -0.000650   0.000884   0.134914  -0.184947   0.041484
              13         14         15         16         17         18
     1  C    0.050048  -0.009849   0.011805  -0.003257  -0.022764   0.000685
     2  C   -0.241915  -0.059103  -0.021616   0.039016  -0.166824   0.028614
     3  C    0.024334  -0.000479   0.002620  -0.021315  -0.047172   0.002895
     4  N   -0.001052   0.000042  -0.000098   0.000375   0.001728  -0.000135
     5  C    0.945419  -0.079282   0.180036  -0.470582  -0.716702   0.048447
     6  C    0.559917   0.069002   0.104520  -1.711266   0.997701  -0.184174
     7  C   -0.661713  -0.107249   0.091979   0.810470  -0.213056   0.171397
     8  C   -0.169108   0.008464   0.002428   0.138192  -0.018064  -0.013966
     9  C   -0.037134  -0.003962   0.003100  -0.041157  -0.087592  -0.052442
    10  C   -2.267405  -0.322749   0.633382  -0.921331  -0.573184  -0.529439
    11  C   -0.614270  -0.778473   1.338452  -6.828052   1.992746  -0.556603
    12  C  -11.192696  -0.152401  -5.519436   9.206095  -7.858508   0.090870
    13  C   20.211587  -1.518230   1.596216  -4.601644   4.587401   0.046375
    14  C   -1.518230   8.405485  -0.992029   1.146003  -0.369417  -0.095652
    15  C    1.596216  -0.992029  11.465899  -2.819957  -0.047390   0.013630
    16  C   -4.601644   1.146003  -2.819957  25.133825 -13.934244   0.555352
    17  C    4.587401  -0.369417  -0.047390 -13.934244  24.961738  -1.280882
    18  S    0.046375  -0.095652   0.013630   0.555352  -1.280882  15.768667
    19  O    0.056191   0.001356  -0.084877   0.183334  -0.037444   0.280506
    20  O    0.014506  -0.004480  -0.015697  -0.129231   0.100298   0.272561
    21  C   -0.347697  -0.045090   0.095271  -0.047363  -0.380899  -0.157045
    22  O   -0.100518   0.008436  -0.023430   0.082085   0.019661  -0.004539
    23  O    0.070663  -0.002440   0.003679  -0.015690  -0.001769   0.005721
    24  H   -0.002253  -0.000079  -0.000111   0.000248  -0.000202  -0.000059
    25  H    0.000195  -0.000001   0.000007  -0.000008  -0.000101  -0.000003
    26  H   -0.007854   0.000440  -0.000706   0.024897   0.031511  -0.011289
    27  H   -0.002288  -0.000049   0.000029   0.001024  -0.003167  -0.000138
    28  H    0.041207   0.001955  -0.002165  -0.013885   0.014695  -0.003040
    29  H   -0.010152   0.001168  -0.001483   0.003533   0.004237  -0.000751
    30  H   -0.000382  -0.000001  -0.000044   0.000714   0.001223  -0.000782
    31  H   -0.000382  -0.000011   0.000050  -0.000089  -0.003027  -0.000528
    32  H    0.000354   0.000020   0.000023  -0.000220  -0.000191   0.000277
    33  H    0.001190  -0.001828   0.004749  -0.014177  -0.033011   0.073786
    34  H   -0.076009  -0.014643   0.036986  -0.026416   0.009964   0.000112
    35  H   -0.034285   0.499561   0.046746  -0.012561   0.007355  -0.000004
    36  H   -0.132911   0.484454  -0.017437   0.012853  -0.013780  -0.000180
    37  H   -0.177252   0.465115  -0.074066   0.011422  -0.023353  -0.000512
    38  H    0.049591  -0.033293   0.209617   0.005494  -0.022040  -0.003206
    39  H    0.018753   0.002190   0.006201   0.320216  -0.048774   0.011467
    40  H   -0.040450  -0.005354   0.060569   0.163687  -0.526664   0.530156
              19         20         21         22         23         24
     1  C    0.000014   0.000159   0.161173  -0.008551  -0.025180   0.470248
     2  C   -0.005386   0.009860  -1.056645   0.020219  -0.132654  -0.020400
     3  C    0.000400  -0.000204  -0.394050   0.002409   0.082034  -0.022812
     4  N   -0.000004   0.000005   0.009381   0.000337  -0.003619  -0.000064
     5  C   -0.027760   0.059979   0.884238  -0.174687   0.203386  -0.104088
     6  C   -0.049057  -0.008708   0.258606  -0.062145   0.029782   0.016569
     7  C   -0.018802   0.009235  -0.054322   0.046173  -0.078175   0.019072
     8  C   -0.022107  -0.005301  -0.052539   0.000052  -0.008470  -0.012494
     9  C    0.033003  -0.000740   0.204775  -0.002104  -0.002975   0.008166
    10  C    0.119398  -0.103534   0.158939  -0.141251  -0.241867  -0.000117
    11  C   -0.255984   0.050750  -1.899426   0.085686   0.008235  -0.000177
    12  C    0.065735  -0.017632   0.105695   0.147181  -0.053963  -0.000736
    13  C    0.056191   0.014506  -0.347697  -0.100518   0.070663  -0.002253
    14  C    0.001356  -0.004480  -0.045090   0.008436  -0.002440  -0.000079
    15  C   -0.084877  -0.015697   0.095271  -0.023430   0.003679  -0.000111
    16  C    0.183334  -0.129231  -0.047363   0.082085  -0.015690   0.000248
    17  C   -0.037444   0.100298  -0.380899   0.019661  -0.001769  -0.000202
    18  S    0.280506   0.272561  -0.157045  -0.004539   0.005721  -0.000059
    19  O    8.489570  -0.201942   0.026442  -0.000150  -0.000017  -0.000000
    20  O   -0.201942   8.506470  -0.075264   0.002128  -0.000053  -0.000000
    21  C    0.026442  -0.075264   8.104698   0.455165   0.071053   0.000550
    22  O   -0.000150   0.002128   0.455165   8.120400  -0.090843   0.000021
    23  O   -0.000017  -0.000053   0.071053  -0.090843   8.352827   0.000114
    24  H   -0.000000  -0.000000   0.000550   0.000021   0.000114   0.525240
    25  H    0.000000  -0.000000   0.001025  -0.000002  -0.000293  -0.030934
    26  H   -0.020391  -0.001169   0.010924   0.000071  -0.000578   0.000007
    27  H    0.000527  -0.000006   0.000565  -0.000001  -0.000034   0.000001
    28  H    0.000802   0.000001  -0.006251  -0.000029   0.000027   0.000031
    29  H   -0.000147  -0.000006   0.001777   0.000002   0.000105   0.002386
    30  H    0.000309   0.000004   0.001170  -0.000000   0.000027   0.000014
    31  H    0.000130   0.000032  -0.000695   0.000012  -0.000602   0.000011
    32  H   -0.000080  -0.000002   0.003902  -0.000003   0.000213  -0.000666
    33  H   -0.008361   0.013574  -0.164627   0.000238   0.011919  -0.000000
    34  H    0.000023   0.000062   0.034655   0.003764  -0.001998  -0.000014
    35  H   -0.000000   0.000000  -0.002291   0.000009   0.000016  -0.000000
    36  H   -0.000001   0.000000   0.000000  -0.000003   0.000002  -0.000000
    37  H    0.000001  -0.000002   0.001014   0.000032  -0.000006  -0.000000
    38  H    0.000003   0.000012   0.000492  -0.000000   0.000000   0.000000
    39  H    0.000710   0.000719  -0.000417  -0.000011  -0.000002  -0.000000
    40  H   -0.039450  -0.047810   0.002665   0.000046   0.000006  -0.000000
              25         26         27         28         29         30
     1  C    0.484672  -0.000622  -0.000491   0.004562  -0.012496   0.005803
     2  C   -0.093551   0.003552   0.002043  -0.006182   0.031976  -0.016797
     3  C   -0.044319  -0.002674   0.000853  -0.001665  -0.002194  -0.002393
     4  N    0.000364   0.000007  -0.000003   0.000004   0.000012   0.000023
     5  C    0.011478  -0.034632   0.008421  -0.002369  -0.075130   0.022877
     6  C   -0.006321  -0.129297  -0.046073   0.049799   0.072558   0.021610
     7  C   -0.001960   0.359778  -0.042820  -0.158401  -0.119170  -0.105324
     8  C    0.001054   0.003440   0.471389   0.471330   0.441876  -0.004307
     9  C    0.001216  -0.005835  -0.032574  -0.006923  -0.014659   0.448282
    10  C   -0.001875   0.083782  -0.000119  -0.022951   0.036967  -0.011279
    11  C    0.000699  -0.057770   0.004063   0.031824  -0.041755  -0.002433
    12  C   -0.000223   0.015843  -0.002769  -0.035023   0.023206  -0.001196
    13  C    0.000195  -0.007854  -0.002288   0.041207  -0.010152  -0.000382
    14  C   -0.000001   0.000440  -0.000049   0.001955   0.001168  -0.000001
    15  C    0.000007  -0.000706   0.000029  -0.002165  -0.001483  -0.000044
    16  C   -0.000008   0.024897   0.001024  -0.013885   0.003533   0.000714
    17  C   -0.000101   0.031511  -0.003167   0.014695   0.004237   0.001223
    18  S   -0.000003  -0.011289  -0.000138  -0.003040  -0.000751  -0.000782
    19  O    0.000000  -0.020391   0.000527   0.000802  -0.000147   0.000309
    20  O   -0.000000  -0.001169  -0.000006   0.000001  -0.000006   0.000004
    21  C    0.001025   0.010924   0.000565  -0.006251   0.001777   0.001170
    22  O   -0.000002   0.000071  -0.000001  -0.000029   0.000002  -0.000000
    23  O   -0.000293  -0.000578  -0.000034   0.000027   0.000105   0.000027
    24  H   -0.030934   0.000007   0.000001   0.000031   0.002386   0.000014
    25  H    0.508885   0.000000  -0.000000  -0.000000   0.000043  -0.000001
    26  H    0.000000   0.563986  -0.004665  -0.003469   0.005380  -0.005255
    27  H   -0.000000  -0.004665   0.543765  -0.026213  -0.029533   0.002729
    28  H   -0.000000  -0.003469  -0.026213   0.548547  -0.029343   0.000076
    29  H    0.000043   0.005380  -0.029533  -0.029343   0.580851  -0.000139
    30  H   -0.000001  -0.005255   0.002729   0.000076  -0.000139   0.549316
    31  H   -0.000000  -0.003598   0.000102  -0.000148   0.000041  -0.025548
    32  H    0.000062   0.005089  -0.000143   0.000038   0.003065  -0.029443
    33  H    0.000000   0.000958   0.000003   0.000012  -0.000008  -0.000014
    34  H   -0.000000  -0.000011   0.000000  -0.000085  -0.000020   0.000000
    35  H    0.000000   0.000000  -0.000000   0.000000   0.000000   0.000000
    36  H   -0.000000  -0.000000  -0.000000   0.000000  -0.000000  -0.000000
    37  H   -0.000000   0.000000   0.000000  -0.000000   0.000000   0.000000
    38  H   -0.000000   0.000000  -0.000000  -0.000000   0.000000  -0.000000
    39  H    0.000000  -0.000002   0.000000  -0.000002  -0.000000  -0.000000
    40  H   -0.000000  -0.000005  -0.000000  -0.000000  -0.000000   0.000000
              31         32         33         34         35         36
     1  C   -0.002377  -0.030859  -0.000251   0.003869  -0.000018   0.000006
     2  C    0.045813  -0.006384   0.056978  -0.024878  -0.000461  -0.000078
     3  C   -0.005046   0.004844   0.008418  -0.002812  -0.000011  -0.000001
     4  N    0.000167   0.000027  -0.000100   0.000007   0.000000   0.000000
     5  C   -0.010298  -0.004757   0.088762  -0.002192  -0.000284  -0.000289
     6  C   -0.005027   0.008522  -0.044759   0.007139   0.002874   0.001062
     7  C   -0.122366  -0.117987   0.000056  -0.017845  -0.000724   0.000103
     8  C   -0.002987  -0.014491   0.002766   0.007590   0.000100  -0.000120
     9  C    0.495896   0.476351  -0.020417   0.000017   0.000023   0.000011
    10  C   -0.020704   0.027588   0.230314  -0.025745  -0.001585  -0.000669
    11  C   -0.005592  -0.001351   0.050064   0.113433  -0.020026  -0.008988
    12  C   -0.002106   0.001331   0.015478   0.256433  -0.131212   0.030062
    13  C   -0.000382   0.000354   0.001190  -0.076009  -0.034285  -0.132911
    14  C   -0.000011   0.000020  -0.001828  -0.014643   0.499561   0.484454
    15  C    0.000050   0.000023   0.004749   0.036986   0.046746  -0.017437
    16  C   -0.000089  -0.000220  -0.014177  -0.026416  -0.012561   0.012853
    17  C   -0.003027  -0.000191  -0.033011   0.009964   0.007355  -0.013780
    18  S   -0.000528   0.000277   0.073786   0.000112  -0.000004  -0.000180
    19  O    0.000130  -0.000080  -0.008361   0.000023  -0.000000  -0.000001
    20  O    0.000032  -0.000002   0.013574   0.000062   0.000000   0.000000
    21  C   -0.000695   0.003902  -0.164627   0.034655  -0.002291   0.000000
    22  O    0.000012  -0.000003   0.000238   0.003764   0.000009  -0.000003
    23  O   -0.000602   0.000213   0.011919  -0.001998   0.000016   0.000002
    24  H    0.000011  -0.000666  -0.000000  -0.000014  -0.000000  -0.000000
    25  H   -0.000000   0.000062   0.000000  -0.000000   0.000000  -0.000000
    26  H   -0.003598   0.005089   0.000958  -0.000011   0.000000  -0.000000
    27  H    0.000102  -0.000143   0.000003   0.000000  -0.000000  -0.000000
    28  H   -0.000148   0.000038   0.000012  -0.000085   0.000000   0.000000
    29  H    0.000041   0.003065  -0.000008  -0.000020   0.000000  -0.000000
    30  H   -0.025548  -0.029443  -0.000014   0.000000   0.000000  -0.000000
    31  H    0.540744  -0.028626   0.000064   0.000000  -0.000000  -0.000000
    32  H   -0.028626   0.551315  -0.000006  -0.000000  -0.000000  -0.000000
    33  H    0.000064  -0.000006   0.522841   0.000017   0.000000  -0.000000
    34  H    0.000000  -0.000000   0.000017   0.589954   0.002917   0.000140
    35  H   -0.000000  -0.000000   0.000000   0.002917   0.535542  -0.025537
    36  H   -0.000000  -0.000000  -0.000000   0.000140  -0.025537   0.536192
    37  H    0.000000   0.000000  -0.000000   0.000393  -0.025949  -0.027063
    38  H    0.000000  -0.000000  -0.000000  -0.000172   0.000119   0.002022
    39  H    0.000000  -0.000000  -0.000003   0.000016   0.000002  -0.000002
    40  H    0.000000  -0.000000   0.000103   0.000001   0.000000   0.000000
              37         38         39         40
     1  C   -0.000018  -0.000002  -0.000002  -0.000005
     2  C    0.000052   0.000057  -0.000008   0.000184
     3  C    0.000002   0.000001   0.000001   0.000011
     4  N    0.000000  -0.000000  -0.000000  -0.000000
     5  C    0.000096   0.000324  -0.000154   0.000195
     6  C   -0.000897  -0.001030   0.000321  -0.031772
     7  C   -0.000023   0.000588  -0.000361   0.021909
     8  C    0.000038  -0.000144   0.000338  -0.000650
     9  C   -0.000002   0.000013  -0.000012   0.000884
    10  C    0.000693   0.010830  -0.007189   0.134914
    11  C    0.020210   0.010974   0.011958  -0.184947
    12  C    0.126757   0.072806  -0.014922   0.041484
    13  C   -0.177252   0.049591   0.018753  -0.040450
    14  C    0.465115  -0.033293   0.002190  -0.005354
    15  C   -0.074066   0.209617   0.006201   0.060569
    16  C    0.011422   0.005494   0.320216   0.163687
    17  C   -0.023353  -0.022040  -0.048774  -0.526664
    18  S   -0.000512  -0.003206   0.011467   0.530156
    19  O    0.000001   0.000003   0.000710  -0.039450
    20  O   -0.000002   0.000012   0.000719  -0.047810
    21  C    0.001014   0.000492  -0.000417   0.002665
    22  O    0.000032  -0.000000  -0.000011   0.000046
    23  O   -0.000006   0.000000  -0.000002   0.000006
    24  H   -0.000000   0.000000  -0.000000  -0.000000
    25  H   -0.000000  -0.000000   0.000000  -0.000000
    26  H    0.000000   0.000000  -0.000002  -0.000005
    27  H    0.000000  -0.000000   0.000000  -0.000000
    28  H   -0.000000  -0.000000  -0.000002  -0.000000
    29  H    0.000000   0.000000  -0.000000  -0.000000
    30  H    0.000000  -0.000000  -0.000000   0.000000
    31  H    0.000000   0.000000   0.000000   0.000000
    32  H    0.000000  -0.000000  -0.000000  -0.000000
    33  H   -0.000000  -0.000000  -0.000003   0.000103
    34  H    0.000393  -0.000172   0.000016   0.000001
    35  H   -0.025949   0.000119   0.000002   0.000000
    36  H   -0.027063   0.002022  -0.000002   0.000000
    37  H    0.520987   0.000347   0.000001  -0.000000
    38  H    0.000347   0.565693  -0.005617   0.000039
    39  H    0.000001  -0.005617   0.568495   0.001127
    40  H   -0.000000   0.000039   0.001127   0.910200
 Mulliken charges:
               1
     1  C   -0.493005
     2  C   -0.163007
     3  C    0.120886
     4  N   -0.485871
     5  C    1.101714
     6  C   -0.361714
     7  C    0.117007
     8  C   -0.581865
     9  C   -0.616740
    10  C   -0.436809
    11  C    1.350158
    12  C   -0.319794
    13  C   -0.036348
    14  C   -0.497546
    15  C   -0.287452
    16  C   -0.226391
    17  C   -0.300036
    18  S    0.993850
    19  O   -0.486494
    20  O   -0.428575
    21  C    0.090445
    22  O   -0.385864
    23  O   -0.178579
    24  H    0.152527
    25  H    0.169892
    26  H    0.180156
    27  H    0.155571
    28  H    0.153233
    29  H    0.127801
    30  H    0.151160
    31  H    0.156695
    32  H    0.152189
    33  H    0.205273
    34  H    0.125348
    35  H    0.159685
    36  H    0.160153
    37  H    0.181980
    38  H    0.136481
    39  H    0.134963
    40  H    0.008924
 Sum of Mulliken charges =  -0.00000
 Mulliken charges with hydrogens summed into heavy atoms:
               1
     1  C   -0.170587
     2  C   -0.163007
     3  C    0.120886
     4  N   -0.485871
     5  C    1.101714
     6  C   -0.361714
     7  C    0.297163
     8  C   -0.145260
     9  C   -0.156696
    10  C   -0.231535
    11  C    1.350158
    12  C   -0.194446
    13  C   -0.036348
    14  C    0.004273
    15  C   -0.150971
    16  C   -0.091428
    17  C   -0.300036
    18  S    1.002774
    19  O   -0.486494
    20  O   -0.428575
    21  C    0.090445
    22  O   -0.385864
    23  O   -0.178579
 Electronic spatial extent (au):  <R**2>=           7605.6082
 Charge=             -0.0000 electrons
 Dipole moment (field-independent basis, Debye):
    X=              5.5113    Y=              3.6502    Z=              7.4754  Tot=              9.9789
 Quadrupole moment (field-independent basis, Debye-Ang):
   XX=           -142.2309   YY=           -143.3898   ZZ=           -159.8505
   XY=              3.4151   XZ=            -14.6572   YZ=              6.5982
 Traceless Quadrupole moment (field-independent basis, Debye-Ang):
   XX=              6.2595   YY=              5.1006   ZZ=            -11.3601
   XY=              3.4151   XZ=            -14.6572   YZ=              6.5982
 Octapole moment (field-independent basis, Debye-Ang**2):
  XXX=            263.4000  YYY=             44.5170  ZZZ=             39.4848  XYY=             18.4789
  XXY=             19.0644  XXZ=             94.6943  XZZ=              1.7926  YZZ=             -6.4605
  YYZ=             11.4864  XYZ=             -0.6442
 Hexadecapole moment (field-independent basis, Debye-Ang**3):
 XXXX=          -6702.1255 YYYY=          -2513.1437 ZZZZ=          -1794.0507 XXXY=           -226.3174
 XXXZ=           -466.4008 YYYX=             71.4328 YYYZ=             22.7833 ZZZX=            -42.4364
 ZZZY=             17.3423 XXYY=          -1362.6418 XXZZ=          -1417.0400 YYZZ=           -740.3404
 XXYZ=             60.3274 YYXZ=              0.7394 ZZXY=              6.7793
 N-N= 2.114396842932D+03 E-N=-7.529138223716D+03  KE= 1.400762606468D+03
 Unable to Open any file for archive entry.
 1\1\GINC-N1\SP\RB3LYP TD-FC\6-31+G(d,p)\C17H17N1O4S1\HPCMGAC201\29-Jul
 -2025\0\\# td=(50-50,nstates=3) b3lyp/6-31+g(d,p) geom=connectivity\\T
 itle Card Required\\0,1\C,0,3.951911,1.017591,-1.474774\C,0,3.63787,0.
 518609,-0.265579\C,0,4.689386,0.165426,0.656196\N,0,5.53942,-0.133467,
 1.391591\C,0,2.254261,0.321179,0.209741\C,0,1.180081,-0.322461,-0.2836
 53\C,0,0.995829,-1.184626,-1.518653\C,0,0.607331,-0.365134,-2.769481\C
 ,0,2.181638,-2.121846,-1.813166\C,0,0.071134,-0.175152,0.754285\C,0,-1
 .240906,0.431773,0.271251\C,0,-1.285648,1.789335,-0.070005\C,0,-2.4529
 23,2.421879,-0.513923\C,0,-2.461613,3.8989,-0.824191\C,0,-3.61976,1.65
 3564,-0.632461\C,0,-3.608999,0.300802,-0.305971\C,0,-2.431849,-0.30139
 6,0.146263\S,0,-2.525273,-2.062628,0.497406\O,0,-1.988625,-2.827187,-0
 .640542\O,0,-2.057538,-2.346639,1.861323\C,0,0.730971,0.679379,1.84449
 4\O,0,0.266994,1.115952,2.861132\O,0,2.034112,0.911096,1.468554\H,0,3.
 176139,1.323488,-2.166449\H,0,4.985389,1.126876,-1.784635\H,0,0.138197
 ,-1.829757,-1.296046\H,0,0.33604,-1.04192,-3.586655\H,0,-0.248011,0.28
 883,-2.576625\H,0,1.44032,0.257105,-3.113938\H,0,1.908206,-2.812638,-2
 .61743\H,0,2.444561,-2.717542,-0.933605\H,0,3.073895,-1.57686,-2.13339
 \H,0,-0.12631,-1.15119,1.21533\H,0,-0.377653,2.379812,0.025575\H,0,-1.
 469356,4.253045,-1.116973\H,0,-3.162159,4.132978,-1.631202\H,0,-2.7694
 59,4.475498,0.056655\H,0,-4.540648,2.114484,-0.978011\H,0,-4.522124,-0
 .281222,-0.405801\H,0,-3.890439,-2.197378,0.477581\\Version=ES64L-G16R
 evC.02\State=1-A\HF=-1411.8171863\RMSD=4.178e-09\PG=C01 [X(C17H17N1O4S
 1)]\\@
 The archive entry for this job was punched.


 IF YOU GIVE A BOY AND A PIG EVERYTHING THEY WANT,
 YOU'LL GET A BAD BOY AND A GOOD PIG.
 Job cpu time:       0 days  1 hours 45 minutes 25.9 seconds.
 Elapsed time:       0 days  0 hours 13 minutes 22.1 seconds.
 File lengths (MBytes):  RWF=   1491 Int=      0 D2E=      0 Chk=     72 Scr=      2
 Normal termination of Gaussian 16 at Tue Jul 29 07:15:33 2025.
