 Entering Gaussian System, Link 0=g16
 Input=M2756e.gjf
 Output=M2756e.log
 Initial command:
 /hpc/softwares/Gaussian/g16/l1.exe "/hpc/home/hpcmgac13/pbs.12374.admin1.x8z/Gau-1725762.inp" -scrdir="/hpc/home/hpcmgac13/pbs.12374.admin1.x8z/"
 Default linda workers: n1
 Default is to use  16 SMP processors on each worker.
 Entering Link 1 = /hpc/softwares/Gaussian/g16/l1.exe PID=   1725763.
  
 Copyright (c) 1988-2021, Gaussian, Inc.  All Rights Reserved.
  
 This is part of the Gaussian(R) 16 program.  It is based on
 the Gaussian(R) 09 system (copyright 2009, Gaussian, Inc.),
 the Gaussian(R) 03 system (copyright 2003, Gaussian, Inc.),
 the Gaussian(R) 98 system (copyright 1998, Gaussian, Inc.),
 the Gaussian(R) 94 system (copyright 1995, Gaussian, Inc.),
 the Gaussian 92(TM) system (copyright 1992, Gaussian, Inc.),
 the Gaussian 90(TM) system (copyright 1990, Gaussian, Inc.),
 the Gaussian 88(TM) system (copyright 1988, Gaussian, Inc.),
 the Gaussian 86(TM) system (copyright 1986, Carnegie Mellon
 University), and the Gaussian 82(TM) system (copyright 1983,
 Carnegie Mellon University). Gaussian is a federally registered
 trademark of Gaussian, Inc.
  
 This software contains proprietary and confidential information,
 including trade secrets, belonging to Gaussian, Inc.
  
 This software is provided under written license and may be
 used, copied, transmitted, or stored only in accord with that
 written license.
  
 The following legend is applicable only to US Government
 contracts under FAR:
  
                    RESTRICTED RIGHTS LEGEND
  
 Use, reproduction and disclosure by the US Government is
 subject to restrictions as set forth in subparagraphs (a)
 and (c) of the Commercial Computer Software - Restricted
 Rights clause in FAR 52.227-19.
  
 Gaussian, Inc.
 340 Quinnipiac St., Bldg. 40, Wallingford CT 06492
  
  
 ---------------------------------------------------------------
 Warning -- This program may not be used in any manner that
 competes with the business of Gaussian, Inc. or will provide
 assistance to any competitor of Gaussian, Inc.  The licensee
 of this program is prohibited from giving any competitor of
 Gaussian, Inc. access to this program.  By using this program,
 the user acknowledges that Gaussian, Inc. is engaged in the
 business of creating and licensing software in the field of
 computational chemistry and represents and warrants to the
 licensee that it is not a competitor of Gaussian, Inc. and that
 it will not use this program in any manner prohibited above.
 ---------------------------------------------------------------
  

 Cite this work as:
 Gaussian 16, Revision C.02,
 M. J. Frisch, G. W. Trucks, H. B. Schlegel, G. E. Scuseria, 
 M. A. Robb, J. R. Cheeseman, G. Scalmani, V. Barone, 
 G. A. Petersson, H. Nakatsuji, X. Li, M. Caricato, A. V. Marenich, 
 J. Bloino, B. G. Janesko, R. Gomperts, B. Mennucci, H. P. Hratchian, 
 J. V. Ortiz, A. F. Izmaylov, J. L. Sonnenberg, D. Williams-Young, 
 F. Ding, F. Lipparini, F. Egidi, J. Goings, B. Peng, A. Petrone, 
 T. Henderson, D. Ranasinghe, V. G. Zakrzewski, J. Gao, N. Rega, 
 G. Zheng, W. Liang, M. Hada, M. Ehara, K. Toyota, R. Fukuda, 
 J. Hasegawa, M. Ishida, T. Nakajima, Y. Honda, O. Kitao, H. Nakai, 
 T. Vreven, K. Throssell, J. A. Montgomery, Jr., J. E. Peralta, 
 F. Ogliaro, M. J. Bearpark, J. J. Heyd, E. N. Brothers, K. N. Kudin, 
 V. N. Staroverov, T. A. Keith, R. Kobayashi, J. Normand, 
 K. Raghavachari, A. P. Rendell, J. C. Burant, S. S. Iyengar, 
 J. Tomasi, M. Cossi, J. M. Millam, M. Klene, C. Adamo, R. Cammi, 
 J. W. Ochterski, R. L. Martin, K. Morokuma, O. Farkas, 
 J. B. Foresman, and D. J. Fox, Gaussian, Inc., Wallingford CT, 2019.
 
 ******************************************
 Gaussian 16:  ES64L-G16RevC.02  7-Dec-2021
                29-Jul-2025 
 ******************************************
 SetLPE:    new flags="-opt 'Tsnet.Node.lindarsharg: ssh'  -nodelist 'n1' -env GAUSS_MDEF=2147483648 -env GAUSS_EXEDIR="/hpc/softwares/Gaussian/g16/bsd:/hpc/softwares/Gaussian/g16""
 Will use up to    1 processors via Linda.
 ----------------------------------------------------------
 # td=(50-50,nstates=3) b3lyp/6-31+g(d,p) geom=connectivity
 ----------------------------------------------------------
 1/38=1,57=2,172=1/1;
 2/12=2,17=6,18=5,40=1/2;
 3/5=1,6=6,7=111,11=9,25=1,30=1,74=-5/1,2,3,8;
 4//1;
 5/5=2,38=5/2;
 8/6=1,10=2,108=3/1;
 9/41=3,42=1,48=2,70=2/14;
 6/7=2,8=2,9=2,10=2/1;
 99/5=1,9=1/99;
 -------------------
 Title Card Required
 -------------------
 Symbolic Z-matrix:
 Charge =  0 Multiplicity = 1
 C                    -3.13267  -1.46459  -1.5911 
 C                    -2.68301  -2.6639   -0.75933 
 C                    -3.82281  -3.33634   0.00505 
 O                    -1.57059  -2.34311   0.13348 
 C                    -1.74432  -1.36279   1.08615 
 O                    -1.43212  -0.02531   0.60755 
 C                    -0.16256   0.32199   0.34122 
 C                     0.89612  -0.54466   0.29542 
 C                     2.22651  -0.07501   0.03207 
 C                     3.31049  -0.95061   0.00072 
 C                     4.63754  -0.4994   -0.26603 
 N                     5.7195   -0.12583  -0.48461 
 C                     3.15377  -2.34848   0.23882 
 N                     3.01687  -3.48847   0.43761 
 C                     2.42358   1.3402   -0.2091 
 C                     1.37727   2.19945  -0.18468 
 C                     0.02592   1.75389   0.08941 
 C                    -1.0161    2.67121   0.10726 
 C                    -2.39524   2.38799   0.35825 
 N                    -3.5404    2.28098   0.54282 
 C                    -0.75932   4.05723  -0.14795 
 N                    -0.554     5.18476  -0.35471 
 H                    -3.8716   -1.79308  -2.32953 
 H                    -3.59757  -0.68705  -0.97706 
 H                    -2.28831  -1.02355  -2.1284 
 H                    -2.22075  -3.40303  -1.42004 
 H                    -3.44633  -4.17067   0.6039 
 H                    -4.55828  -3.72849  -0.70485 
 H                    -4.35115  -2.63832   0.66369 
 H                    -2.77417  -1.25851   1.43349 
 H                    -1.07091  -1.58162   1.92076 
 H                     0.73117  -1.60617   0.42907 
 H                     3.42411   1.70534  -0.41321 
 H                     1.54055   3.25516  -0.37083 
 
                          Input orientation:                          
 ---------------------------------------------------------------------
 Center     Atomic      Atomic             Coordinates (Angstroms)
 Number     Number       Type             X           Y           Z
 ---------------------------------------------------------------------
      1          6           0       -3.132672   -1.464585   -1.591096
      2          6           0       -2.683007   -2.663896   -0.759330
      3          6           0       -3.822813   -3.336335    0.005052
      4          8           0       -1.570585   -2.343106    0.133483
      5          6           0       -1.744318   -1.362791    1.086150
      6          8           0       -1.432117   -0.025306    0.607554
      7          6           0       -0.162555    0.321989    0.341215
      8          6           0        0.896120   -0.544663    0.295416
      9          6           0        2.226509   -0.075011    0.032066
     10          6           0        3.310486   -0.950610    0.000715
     11          6           0        4.637541   -0.499403   -0.266032
     12          7           0        5.719502   -0.125827   -0.484613
     13          6           0        3.153774   -2.348484    0.238819
     14          7           0        3.016871   -3.488467    0.437608
     15          6           0        2.423578    1.340203   -0.209104
     16          6           0        1.377274    2.199453   -0.184678
     17          6           0        0.025918    1.753894    0.089405
     18          6           0       -1.016099    2.671212    0.107262
     19          6           0       -2.395239    2.387990    0.358250
     20          7           0       -3.540400    2.280979    0.542824
     21          6           0       -0.759323    4.057233   -0.147954
     22          7           0       -0.553999    5.184758   -0.354709
     23          1           0       -3.871598   -1.793079   -2.329533
     24          1           0       -3.597568   -0.687052   -0.977064
     25          1           0       -2.288308   -1.023552   -2.128398
     26          1           0       -2.220750   -3.403029   -1.420044
     27          1           0       -3.446331   -4.170669    0.603899
     28          1           0       -4.558279   -3.728487   -0.704846
     29          1           0       -4.351149   -2.638324    0.663693
     30          1           0       -2.774173   -1.258510    1.433494
     31          1           0       -1.070910   -1.581615    1.920763
     32          1           0        0.731165   -1.606168    0.429065
     33          1           0        3.424111    1.705340   -0.413210
     34          1           0        1.540551    3.255161   -0.370826
 ---------------------------------------------------------------------
                    Distance matrix (angstroms):
                    1          2          3          4          5
     1  C    0.000000
     2  C    1.527213   0.000000
     3  C    2.554884   1.528271   0.000000
     4  O    2.487185   1.462021   2.464859   0.000000
     5  C    3.017538   2.445365   3.063297   1.377960   0.000000
     6  O    3.130092   3.224167   4.128117   2.369834   1.454438
     7  C    3.968283   4.059481   5.185926   3.021330   2.428042
     8  C    4.542725   4.291129   5.490544   3.057001   2.875153
     9  C    5.769436   5.606423   6.872500   4.424078   4.305454
    10  C    6.656750   6.279727   7.521679   5.077551   5.186435
    11  C    7.941258   7.649758   8.927444   6.488427   6.580422
    12  N    9.020951   8.781766  10.079827   7.644850   7.726965
    13  C    6.606759   5.929907   7.050054   4.725536   5.067629
    14  N    6.784439   5.882277   6.855037   4.738048   5.254334
    15  C    6.375630   6.512509   7.805977   5.444031   5.133733
    16  C    5.978528   6.361468   7.597490   5.424568   4.903970
    17  C    4.812420   5.251237   6.382028   4.397292   3.720344
    18  C    4.946627   5.656230   6.631645   5.044951   4.214464
    19  C    4.380193   5.182022   5.910213   4.807686   3.875809
    20  N    4.330024   5.184835   5.650060   5.042806   4.098557
    21  C    6.181094   7.017686   8.004576   6.457685   5.645342
    22  N    7.238230   8.142344   9.133652   7.611867   6.809062
    23  H    1.095084   2.153278   2.798983   3.415207   4.046895
    24  H    1.094404   2.189005   2.834429   2.843324   2.854472
    25  H    1.093688   2.172755   3.500754   2.715226   3.277854
    26  H    2.149052   1.093866   2.145216   1.989874   3.266583
    27  H    3.498468   2.170581   1.093833   2.660771   3.318673
    28  H    2.818341   2.157074   1.094828   3.398292   4.089323
    29  H    2.818940   2.192794   1.095521   2.846017   2.932750
    30  H    3.052726   2.606127   2.730833   2.077258   1.091844
    31  H    4.074029   3.309545   3.784437   2.005969   1.094505
    32  H    4.362377   3.766649   4.889988   2.434851   2.572744
    33  H    7.377482   7.517108   8.838062   6.452579   6.194689
    34  H    6.753079   7.281800   8.506161   6.424491   5.851378
                    6          7          8          9         10
     6  O    0.000000
     7  C    1.342884   0.000000
     8  C    2.405795   1.368932   0.000000
     9  C    3.703944   2.441477   1.435222   0.000000
    10  C    4.869982   3.714494   2.465929   1.393794   0.000000
    11  C    6.150502   4.907581   3.783583   2.466181   1.426820
    12  N    7.235232   5.956604   4.903966   3.531365   2.592136
    13  C    5.153981   4.259102   2.890324   2.463990   1.426641
    14  N    5.640555   4.963629   3.630948   3.527154   2.591873
    15  C    4.171082   2.833319   2.477981   1.449079   2.465452
    16  C    3.670131   2.484453   2.827043   2.437491   3.700618
    17  C    2.357943   1.466043   2.466385   2.861954   4.255654
    18  C    2.773909   2.510402   3.746176   4.249930   5.643428
    19  C    2.610317   3.041961   4.408792   5.247221   6.620376
    20  N    3.125380   3.910003   5.265755   6.250504   7.594188
    21  C    4.206016   3.814114   4.910653   5.101278   6.454761
    22  N    5.370457   4.927886   5.945736   5.962046   7.259705
    23  H    4.207442   5.036210   5.583909   6.761347   7.597509
    24  H    2.763711   3.815146   4.672549   5.942458   6.981885
    25  H    3.035620   3.525379   4.030483   5.094203   5.990404
    26  H    4.017724   4.605861   4.563764   5.741293   6.215102
    27  H    4.608807   5.571011   5.665683   7.020151   7.509140
    28  H    5.020840   6.068195   6.394351   7.741077   8.374478
    29  H    3.918133   5.139238   5.661526   7.087673   7.873282
    30  H    2.001021   3.242160   3.908433   5.326490   6.258653
    31  H    2.068112   2.635107   2.754311   4.087787   4.825079
    32  H    2.685288   2.127027   1.082527   2.176719   2.695577
    33  H    5.255478   3.917523   3.457659   2.191386   2.690412
    34  H    4.533811   3.465699   3.911244   3.423873   4.578124
                   11         12         13         14         15
    11  C    0.000000
    12  N    1.165322   0.000000
    13  C    2.423951   3.470809   0.000000
    14  N    3.472202   4.411582   1.165256   0.000000
    15  C    2.879066   3.617771   3.786850   4.907778   0.000000
    16  C    4.233176   4.934758   4.900922   5.952138   1.354127
    17  C    5.144973   6.023267   5.160941   6.045609   2.451331
    18  C    6.492749   7.317244   6.527059   7.369913   3.701763
    19  C    7.628025   8.536903   7.296574   7.989367   4.963945
    20  N    8.675453   9.622584   8.144711   8.734723   6.084364
    21  C    7.064207   7.719229   7.516324   8.458139   4.185314
    22  N    7.698678   8.220462   8.417220   9.412954   4.864953
    23  H    8.850824   9.908212   7.500717   7.614619   7.344584
    24  H    8.267878   9.346939   7.058282   7.321204   6.399510
    25  H    7.191003   8.223926   6.080742   6.387888   5.610071
    26  H    7.536507   8.640757   5.722709   5.557953   6.747919
    27  H    8.920984  10.077604   6.856751   6.501233   8.092374
    28  H    9.756159  10.893137   7.891177   7.664575   8.641973
    29  H    9.286330  10.442665   7.522526   7.420349   7.904896
    30  H    7.641867   8.780924   6.144579   6.284957   6.038878
    31  H    6.208033   7.349479   4.611397   4.748240   5.028399
    32  H    4.119206   5.282965   2.540917   2.961009   3.457257
    33  H    2.520906   2.937191   4.114816   5.278766   1.084459
    34  H    4.868170   5.376584   5.863019   6.950511   2.114936
                   16         17         18         19         20
    16  C    0.000000
    17  C    1.449071   0.000000
    18  C    2.456831   1.388377   0.000000
    19  C    3.816041   2.517212   1.430118   0.000000
    20  N    4.971863   3.633460   2.591156   1.164866   0.000000
    21  C    2.831562   2.445059   1.432523   2.391409   3.371445
    22  N    3.559603   3.507758   2.597088   3.423505   4.260996
    23  H    6.934794   5.798526   5.832816   5.185089   4.995806
    24  H    5.805931   4.497246   4.372377   3.561536   3.335047
    25  H    5.253789   4.241285   4.501996   4.222969   4.429795
    26  H    6.771980   5.824071   6.378107   6.060419   6.156482
    27  H    8.029164   6.886339   7.277638   6.646890   6.452623
    28  H    8.404870   7.190424   7.359532   6.574208   6.221450
    29  H    7.545770   6.227367   6.294708   5.402103   4.987130
    30  H    5.640080   4.326854   4.504712   3.820563   3.729394
    31  H    4.972219   3.960117   4.623670   4.466885   4.787142
    32  H    3.908566   3.450038   4.631681   5.072742   5.776601
    33  H    2.117998   3.435505   4.573758   5.909822   7.053352
    34  H    1.084357   2.181680   2.665713   4.095605   5.253556
                   21         22         23         24         25
    21  C    0.000000
    22  N    1.164568   0.000000
    23  H    6.976510   7.974748   0.000000
    24  H    5.590286   6.642950   1.768491   0.000000
    25  H    5.663420   6.685575   1.771845   1.775659   0.000000
    26  H    7.707755   8.812666   2.478792   3.077075   2.483594
    27  H    8.688134   9.839132   3.799843   3.828564   4.325599
    28  H    8.680993   9.777668   2.618576   3.201155   3.807354
    29  H    7.641366   8.755347   3.147032   2.658464   3.828652
    30  H    5.900654   7.045747   3.956068   2.610619   3.602547
    31  H    6.014423   7.157428   5.094466   3.947359   4.264879
    32  H    5.884608   6.955762   5.369379   4.643264   3.999659
    33  H    4.806546   5.285370   8.314962   7.439452   6.558998
    34  H    2.445897   2.847937   7.655888   6.504524   6.004715
                   26         27         28         29         30
    26  H    0.000000
    27  H    2.487502   0.000000
    28  H    2.466064   1.773349   0.000000
    29  H    3.076578   1.780548   1.761890   0.000000
    30  H    3.612190   3.101724   3.722408   2.232338   0.000000
    31  H    3.975006   3.752327   4.864630   3.668355   1.800814
    32  H    3.919402   4.904967   5.811042   5.191369   3.662941
    33  H    7.679427   9.097525   9.660749   8.971165   7.114313
    34  H    7.718791   8.997890   9.277857   8.397352   6.499665
                   31         32         33         34
    31  H    0.000000
    32  H    2.339496   0.000000
    33  H    6.037940   4.350571   0.000000
    34  H    5.955293   4.992740   2.439578   0.000000
 Stoichiometry    C16H12N4O2
 Framework group  C1[X(C16H12N4O2)]
 Deg. of freedom    96
 Full point group                 C1      NOp   1
 Largest Abelian subgroup         C1      NOp   1
 Largest concise Abelian subgroup C1      NOp   1
                         Standard orientation:                         
 ---------------------------------------------------------------------
 Center     Atomic      Atomic             Coordinates (Angstroms)
 Number     Number       Type             X           Y           Z
 ---------------------------------------------------------------------
      1          6           0        3.132672   -1.464585    1.591096
      2          6           0        2.683007   -2.663896    0.759330
      3          6           0        3.822813   -3.336335   -0.005052
      4          8           0        1.570585   -2.343106   -0.133483
      5          6           0        1.744318   -1.362791   -1.086150
      6          8           0        1.432117   -0.025306   -0.607554
      7          6           0        0.162555    0.321989   -0.341215
      8          6           0       -0.896120   -0.544663   -0.295416
      9          6           0       -2.226509   -0.075011   -0.032066
     10          6           0       -3.310486   -0.950610   -0.000715
     11          6           0       -4.637541   -0.499403    0.266032
     12          7           0       -5.719502   -0.125827    0.484613
     13          6           0       -3.153774   -2.348484   -0.238819
     14          7           0       -3.016871   -3.488467   -0.437608
     15          6           0       -2.423578    1.340203    0.209104
     16          6           0       -1.377274    2.199453    0.184678
     17          6           0       -0.025918    1.753894   -0.089405
     18          6           0        1.016099    2.671212   -0.107262
     19          6           0        2.395239    2.387990   -0.358250
     20          7           0        3.540400    2.280979   -0.542824
     21          6           0        0.759323    4.057233    0.147954
     22          7           0        0.553999    5.184758    0.354709
     23          1           0        3.871598   -1.793079    2.329533
     24          1           0        3.597568   -0.687052    0.977064
     25          1           0        2.288308   -1.023552    2.128398
     26          1           0        2.220750   -3.403029    1.420044
     27          1           0        3.446331   -4.170669   -0.603899
     28          1           0        4.558279   -3.728487    0.704846
     29          1           0        4.351149   -2.638324   -0.663693
     30          1           0        2.774173   -1.258510   -1.433494
     31          1           0        1.070910   -1.581615   -1.920763
     32          1           0       -0.731165   -1.606168   -0.429065
     33          1           0       -3.424111    1.705340    0.413210
     34          1           0       -1.540551    3.255161    0.370826
 ---------------------------------------------------------------------
 Rotational constants (GHZ):           0.2994766           0.2262096           0.1355742
 Standard basis: 6-31+G(d,p) (6D, 7F)
 There are   478 symmetry adapted cartesian basis functions of A   symmetry.
 There are   478 symmetry adapted basis functions of A   symmetry.
   478 basis functions,   788 primitive gaussians,   478 cartesian basis functions
    76 alpha electrons       76 beta electrons
       nuclear repulsion energy      1598.3126146530 Hartrees.
 NAtoms=   34 NActive=   34 NUniq=   34 SFac= 1.00D+00 NAtFMM=   60 NAOKFM=F Big=F
 Integral buffers will be    131072 words long.
 Regular integral format.
 Two-electron integral symmetry is turned on.
 One-electron integrals computed using PRISM.
 NBasis=   478 RedAO= T EigKep=  1.15D-06  NBF=   478
 NBsUse=   473 1.00D-06 EigRej=  9.81D-07 NBFU=   473
 ExpMin= 4.38D-02 ExpMax= 5.48D+03 ExpMxC= 8.25D+02 IAcc=3 IRadAn=         5 AccDes= 0.00D+00
 Harris functional with IExCor=  402 and IRadAn=       5 diagonalized for initial guess.
 HarFok:  IExCor=  402 AccDes= 0.00D+00 IRadAn=         5 IDoV= 1 UseB2=F ITyADJ=14
 ICtDFT=  3500011 ScaDFX=  1.000000  1.000000  1.000000  1.000000
 FoFCou: FMM=F IPFlag=           0 FMFlag=      100000 FMFlg1=           0
         NFxFlg=           0 DoJE=T BraDBF=F KetDBF=T FulRan=T
         wScrn=  0.000000 ICntrl=       500 IOpCl=  0 I1Cent=   200000004 NGrid=           0
         NMat0=    1 NMatS0=      1 NMatT0=    0 NMatD0=    1 NMtDS0=    0 NMtDT0=    0
 Petite list used in FoFCou.
 Requested convergence on RMS density matrix=1.00D-08 within 128 cycles.
 Requested convergence on MAX density matrix=1.00D-06.
 Requested convergence on             energy=1.00D-06.
 No special actions if energy rises.
 SCF Done:  E(RB3LYP) =  -986.309928466     A.U. after   18 cycles
            NFock= 18  Conv=0.20D-08     -V/T= 2.0095
 DoSCS=F DFT=T ScalE2(SS,OS)=  1.000000  1.000000
 ExpMin= 4.38D-02 ExpMax= 5.48D+03 ExpMxC= 8.25D+02 IAcc=3 IRadAn=         5 AccDes= 0.00D+00
 HarFok:  IExCor=  205 AccDes= 0.00D+00 IRadAn=         5 IDoV=-2 UseB2=F ITyADJ=14
 ICtDFT= 12500011 ScaDFX=  1.000000  1.000000  1.000000  1.000000
 GSVD:  LWork=        -660 too small for GESVD, short by        2750 words or        2750 for optimal perf.
 Range of M.O.s used for correlation:    23   473
 NBasis=   478 NAE=    76 NBE=    76 NFC=    22 NFV=     0
 NROrb=    451 NOA=    54 NOB=    54 NVA=   397 NVB=   397

 **** Warning!!: The largest alpha MO coefficient is  0.17931857D+03


 **** Warning!!: The smallest alpha delta epsilon is  0.89677004D-01

 Orbital symmetries:
       Occupied  (A) (A) (A) (A) (A) (A) (A) (A) (A) (A) (A) (A)
                 (A) (A) (A) (A) (A) (A) (A) (A) (A) (A) (A) (A)
                 (A) (A) (A) (A) (A) (A) (A) (A) (A) (A) (A) (A)
                 (A) (A) (A) (A) (A) (A) (A) (A) (A) (A) (A) (A)
                 (A) (A) (A) (A) (A) (A) (A) (A) (A) (A) (A) (A)
                 (A) (A) (A) (A) (A) (A) (A) (A) (A) (A) (A) (A)
                 (A) (A) (A) (A)
       Virtual   (A) (A) (A) (A) (A) (A) (A) (A) (A) (A) (A) (A)
                 (A) (A) (A) (A) (A) (A) (A) (A) (A) (A) (A) (A)
                 (A) (A) (A) (A) (A) (A) (A) (A) (A) (A) (A) (A)
                 (A) (A) (A) (A) (A) (A) (A) (A) (A) (A) (A) (A)
                 (A) (A) (A) (A) (A) (A) (A) (A) (A) (A) (A) (A)
                 (A) (A) (A) (A) (A) (A) (A) (A) (A) (A) (A) (A)
                 (A) (A) (A) (A) (A) (A) (A) (A) (A) (A) (A) (A)
                 (A) (A) (A) (A) (A) (A) (A) (A) (A) (A) (A) (A)
                 (A) (A) (A) (A) (A) (A) (A) (A) (A) (A) (A) (A)
                 (A) (A) (A) (A) (A) (A) (A) (A) (A) (A) (A) (A)
                 (A) (A) (A) (A) (A) (A) (A) (A) (A) (A) (A) (A)
                 (A) (A) (A) (A) (A) (A) (A) (A) (A) (A) (A) (A)
                 (A) (A) (A) (A) (A) (A) (A) (A) (A) (A) (A) (A)
                 (A) (A) (A) (A) (A) (A) (A) (A) (A) (A) (A) (A)
                 (A) (A) (A) (A) (A) (A) (A) (A) (A) (A) (A) (A)
                 (A) (A) (A) (A) (A) (A) (A) (A) (A) (A) (A) (A)
                 (A) (A) (A) (A) (A) (A) (A) (A) (A) (A) (A) (A)
                 (A) (A) (A) (A) (A) (A) (A) (A) (A) (A) (A) (A)
                 (A) (A) (A) (A) (A) (A) (A) (A) (A) (A) (A) (A)
                 (A) (A) (A) (A) (A) (A) (A) (A) (A) (A) (A) (A)
                 (A) (A) (A) (A) (A) (A) (A) (A) (A) (A) (A) (A)
                 (A) (A) (A) (A) (A) (A) (A) (A) (A) (A) (A) (A)
                 (A) (A) (A) (A) (A) (A) (A) (A) (A) (A) (A) (A)
                 (A) (A) (A) (A) (A) (A) (A) (A) (A) (A) (A) (A)
                 (A) (A) (A) (A) (A) (A) (A) (A) (A) (A) (A) (A)
                 (A) (A) (A) (A) (A) (A) (A) (A) (A) (A) (A) (A)
                 (A) (A) (A) (A) (A) (A) (A) (A) (A) (A) (A) (A)
                 (A) (A) (A) (A) (A) (A) (A) (A) (A) (A) (A) (A)
                 (A) (A) (A) (A) (A) (A) (A) (A) (A) (A) (A) (A)
                 (A) (A) (A) (A) (A) (A) (A) (A) (A) (A) (A) (A)
                 (A) (A) (A) (A) (A) (A) (A) (A) (A) (A) (A) (A)
                 (A) (A) (A) (A) (A) (A) (A) (A) (A) (A) (A) (A)
                 (A) (A) (A) (A) (A) (A) (A) (A) (A) (A) (A) (A)
                 (A)
    24 initial guesses have been made.
 Convergence on wavefunction:    0.001000000000000
 Iteration     1 Dimension    24 NMult     0 NNew     24
 CISAX will form    24 AO SS matrices at one time.
 New state      1 was old state      2
 New state      2 was old state      4
 New state      4 was old state      6
 New state      6 was old state     10
 New state      7 was old state      1
 New state      9 was old state      7
 New state     10 was old state     12
 New state     12 was old state     16
 Vector   6 SDiff=1.59D+00 TDiff=2.12D+01 assumed to be singlet.
 Vector  12 SDiff=1.03D+00 TDiff=1.34D+01 assumed to be singlet.
 Iteration     2 Dimension    36 NMult    24 NNew     12
 New state      4 was old state      7
 New state      5 was old state      4
 New state      6 was old state      5
 Iteration     3 Dimension    48 NMult    36 NNew     12
 New state      4 was old state      5
 New state      5 was old state      4
 Iteration     4 Dimension    60 NMult    48 NNew     12
 Iteration     5 Dimension    72 NMult    60 NNew     12
 Iteration     6 Dimension    80 NMult    72 NNew      8
 Iteration     7 Dimension    82 NMult    80 NNew      2
 ***********************************************************************
 Excited states from <AA,BB:AA,BB> singles matrix:
 ***********************************************************************
 
 Ground to excited state transition densities written to RWF  633
 Ground to excited state transition electric dipole moments (Au):
       state          X           Y           Z        Dip. S.      Osc.
         1         0.0000     -0.0000     -0.0000      0.0000      0.0000
         2        -0.0000     -0.0000      0.0000      0.0000      0.0000
         3         1.6358      1.0342     -0.0564      3.7487      0.2316
         4        -0.0000     -0.0000     -0.0000      0.0000      0.0000
         5        -2.3565     -2.0878      0.0372      9.9136      0.7388
         6        -0.1652     -0.0829      0.0033      0.0342      0.0027
 Ground to excited state transition velocity dipole moments (Au):
       state          X           Y           Z        Dip. S.      Osc.
         1         0.0000      0.0000     -0.0000      0.0000      0.0000
         2        -0.0000      0.0000      0.0000      0.0000      0.0000
         3        -0.1437     -0.0879      0.0054      0.0284      0.2044
         4        -0.0000     -0.0000     -0.0000      0.0000      0.0000
         5         0.2549      0.2273     -0.0038      0.1167      0.6957
         6         0.0191      0.0104     -0.0012      0.0005      0.0027
 Ground to excited state transition magnetic dipole moments (Au):
       state          X           Y           Z
         1        -0.0000      0.0000     -0.0000
         2         0.0000     -0.0000     -0.0000
         3        -0.0585      0.1104      0.0150
         4         0.0000      0.0000     -0.0000
         5        -0.0260      0.0181     -1.3971
         6        -0.0210      0.0249     -0.0919
 Ground to excited state transition velocity quadrupole moments (Au):
       state          XX          YY          ZZ          XY          XZ          YZ
         1         0.0000     -0.0000      0.0000     -0.0000     -0.0000     -0.0000
         2        -0.0000      0.0000      0.0000     -0.0000      0.0000      0.0000
         3         0.6609     -0.2198     -0.0201      0.1877      0.0068      0.0258
         4         0.0000     -0.0000     -0.0000      0.0000     -0.0000      0.0000
         5        -1.1451      0.8832     -0.0006      0.0454     -0.0037     -0.0415
         6        -0.0762      0.0433     -0.0017     -0.0216     -0.0033     -0.0049
 <0|del|b> * <b|rxdel|0> + <0|del|b> * <b|delr+rdel|0>
 Rotatory Strengths (R) in cgs (10**-40 erg-esu-cm/Gauss)
       state          XX          YY          ZZ    R(velocity)    E-M Angle
         1         0.0000     -0.0000      0.0000      0.0000       90.00
         2        -0.0000      0.0000      0.0000     -0.0000       90.00
         3       -30.5570     14.3712      6.8924     -3.0978       93.29
         4        -0.0000     -0.0000      0.0000     -0.0000       90.00
         5        31.9798    -37.0027     22.8357      5.9376       89.66
         6         1.2770     -1.2430     -0.2485     -0.0715       90.00
 1/2[<0|r|b>*<b|rxdel|0> + (<0|rxdel|b>*<b|r|0>)*]
 Rotatory Strengths (R) in cgs (10**-40 erg-esu-cm/Gauss)
       state          XX          YY          ZZ     R(length)
         1         0.0000      0.0000     -0.0000      0.0000
         2         0.0000     -0.0000      0.0000      0.0000
         3        67.6864    -80.7432      0.5971     -4.1532
         4         0.0000      0.0000     -0.0000      0.0000
         5       -43.2748     26.7238     36.7390      6.7293
         6        -2.4549      1.4625      0.2174     -0.2583
  1/2[<0|del|b>*<b|r|0> + (<0|r|b>*<b|del|0>)*] (Au)
       state          X           Y           Z        Dip. S.   Osc.(frdel)
         1         0.0000     -0.0000      0.0000      0.0000      0.0000
         2         0.0000     -0.0000      0.0000     -0.0000     -0.0000
         3        -0.2351     -0.0909     -0.0003      0.3263      0.2175
         4         0.0000      0.0000      0.0000     -0.0000     -0.0000
         5        -0.6008     -0.4745     -0.0001      1.0754      0.7169
         6        -0.0031     -0.0009     -0.0000      0.0040      0.0027

 Excitation energies and oscillator strengths:
 
 Excited State   1:      Triplet-A      0.6720 eV 1844.93 nm  f=0.0000  <S**2>=2.000
      75 -> 77        -0.11459
      76 -> 77         0.77039
      76 <- 77         0.33696
 This state for optimization and/or second-order correction.
 Total Energy, E(TD-HF/TD-DFT) =  -986.285231992    
 Copying the excited state density for this state as the 1-particle RhoCI density.
 
 Excited State   2:      Triplet-A      2.0979 eV  591.00 nm  f=0.0000  <S**2>=2.000
      75 -> 77         0.68767
 
 Excited State   3:      Singlet-A      2.5219 eV  491.62 nm  f=0.2316  <S**2>=0.000
      75 -> 77         0.48908
      76 -> 77         0.51288
 
 Excited State   4:      Triplet-A      3.0364 eV  408.32 nm  f=0.0000  <S**2>=2.000
      72 -> 77         0.62313
      73 -> 77         0.18307
      74 -> 77        -0.12085
      76 -> 78        -0.21142
 
 Excited State   5:      Singlet-A      3.0417 eV  407.61 nm  f=0.7388  <S**2>=0.000
      75 -> 77         0.50337
      76 -> 77        -0.50402
      76 <- 77         0.13517
 
 Excited State   6:      Singlet-A      3.1982 eV  387.67 nm  f=0.0027  <S**2>=0.000
      74 -> 77         0.70331
 SavETr:  write IOETrn=   770 NScale= 10 NData=  16 NLR=1 NState=    6 LETran=     118.

 **********************************************************************

            Population analysis using the SCF Density.

 **********************************************************************

 Orbital symmetries:
       Occupied  (A) (A) (A) (A) (A) (A) (A) (A) (A) (A) (A) (A)
                 (A) (A) (A) (A) (A) (A) (A) (A) (A) (A) (A) (A)
                 (A) (A) (A) (A) (A) (A) (A) (A) (A) (A) (A) (A)
                 (A) (A) (A) (A) (A) (A) (A) (A) (A) (A) (A) (A)
                 (A) (A) (A) (A) (A) (A) (A) (A) (A) (A) (A) (A)
                 (A) (A) (A) (A) (A) (A) (A) (A) (A) (A) (A) (A)
                 (A) (A) (A) (A)
       Virtual   (A) (A) (A) (A) (A) (A) (A) (A) (A) (A) (A) (A)
                 (A) (A) (A) (A) (A) (A) (A) (A) (A) (A) (A) (A)
                 (A) (A) (A) (A) (A) (A) (A) (A) (A) (A) (A) (A)
                 (A) (A) (A) (A) (A) (A) (A) (A) (A) (A) (A) (A)
                 (A) (A) (A) (A) (A) (A) (A) (A) (A) (A) (A) (A)
                 (A) (A) (A) (A) (A) (A) (A) (A) (A) (A) (A) (A)
                 (A) (A) (A) (A) (A) (A) (A) (A) (A) (A) (A) (A)
                 (A) (A) (A) (A) (A) (A) (A) (A) (A) (A) (A) (A)
                 (A) (A) (A) (A) (A) (A) (A) (A) (A) (A) (A) (A)
                 (A) (A) (A) (A) (A) (A) (A) (A) (A) (A) (A) (A)
                 (A) (A) (A) (A) (A) (A) (A) (A) (A) (A) (A) (A)
                 (A) (A) (A) (A) (A) (A) (A) (A) (A) (A) (A) (A)
                 (A) (A) (A) (A) (A) (A) (A) (A) (A) (A) (A) (A)
                 (A) (A) (A) (A) (A) (A) (A) (A) (A) (A) (A) (A)
                 (A) (A) (A) (A) (A) (A) (A) (A) (A) (A) (A) (A)
                 (A) (A) (A) (A) (A) (A) (A) (A) (A) (A) (A) (A)
                 (A) (A) (A) (A) (A) (A) (A) (A) (A) (A) (A) (A)
                 (A) (A) (A) (A) (A) (A) (A) (A) (A) (A) (A) (A)
                 (A) (A) (A) (A) (A) (A) (A) (A) (A) (A) (A) (A)
                 (A) (A) (A) (A) (A) (A) (A) (A) (A) (A) (A) (A)
                 (A) (A) (A) (A) (A) (A) (A) (A) (A) (A) (A) (A)
                 (A) (A) (A) (A) (A) (A) (A) (A) (A) (A) (A) (A)
                 (A) (A) (A) (A) (A) (A) (A) (A) (A) (A) (A) (A)
                 (A) (A) (A) (A) (A) (A) (A) (A) (A) (A) (A) (A)
                 (A) (A) (A) (A) (A) (A) (A) (A) (A) (A) (A) (A)
                 (A) (A) (A) (A) (A) (A) (A) (A) (A) (A) (A) (A)
                 (A) (A) (A) (A) (A) (A) (A) (A) (A) (A) (A) (A)
                 (A) (A) (A) (A) (A) (A) (A) (A) (A) (A) (A) (A)
                 (A) (A) (A) (A) (A) (A) (A) (A) (A) (A) (A) (A)
                 (A) (A) (A) (A) (A) (A) (A) (A) (A) (A) (A) (A)
                 (A) (A) (A) (A) (A) (A) (A) (A) (A) (A) (A) (A)
                 (A) (A) (A) (A) (A) (A) (A) (A) (A) (A) (A) (A)
                 (A) (A) (A) (A) (A) (A) (A) (A) (A) (A) (A) (A)
                 (A)
 The electronic state is 1-A.
 Alpha  occ. eigenvalues --  -19.23967 -19.20187 -14.38665 -14.38083 -14.38031
 Alpha  occ. eigenvalues --  -14.37998 -10.33232 -10.32651 -10.31805 -10.30743
 Alpha  occ. eigenvalues --  -10.29728 -10.29110 -10.27809 -10.27539 -10.27404
 Alpha  occ. eigenvalues --  -10.27251 -10.27236 -10.26350 -10.26196 -10.24948
 Alpha  occ. eigenvalues --  -10.20664 -10.20312  -1.13858  -1.07289  -0.96160
 Alpha  occ. eigenvalues --   -0.95687  -0.94226  -0.94019  -0.92868  -0.88869
 Alpha  occ. eigenvalues --   -0.83956  -0.82495  -0.81260  -0.77173  -0.73925
 Alpha  occ. eigenvalues --   -0.71938  -0.68838  -0.67564  -0.63703  -0.63421
 Alpha  occ. eigenvalues --   -0.59821  -0.59112  -0.57677  -0.55175  -0.54312
 Alpha  occ. eigenvalues --   -0.51893  -0.51168  -0.49421  -0.48422  -0.47315
 Alpha  occ. eigenvalues --   -0.46150  -0.45671  -0.44995  -0.44233  -0.42845
 Alpha  occ. eigenvalues --   -0.42284  -0.41629  -0.41454  -0.40711  -0.40432
 Alpha  occ. eigenvalues --   -0.40093  -0.39861  -0.39457  -0.38567  -0.38162
 Alpha  occ. eigenvalues --   -0.37907  -0.37834  -0.37684  -0.37600  -0.36593
 Alpha  occ. eigenvalues --   -0.36227  -0.34391  -0.34095  -0.31583  -0.30215
 Alpha  occ. eigenvalues --   -0.26534
 Alpha virt. eigenvalues --   -0.17567  -0.06811  -0.05576  -0.03980  -0.03431
 Alpha virt. eigenvalues --   -0.01855  -0.00774  -0.00173   0.00051   0.00365
 Alpha virt. eigenvalues --    0.00567   0.00919   0.01465   0.01998   0.02271
 Alpha virt. eigenvalues --    0.02681   0.02828   0.03039   0.03333   0.03959
 Alpha virt. eigenvalues --    0.04453   0.04980   0.05082   0.05667   0.06118
 Alpha virt. eigenvalues --    0.06429   0.06450   0.06748   0.07200   0.07548
 Alpha virt. eigenvalues --    0.07952   0.08034   0.08317   0.08964   0.09112
 Alpha virt. eigenvalues --    0.09580   0.09836   0.10233   0.10484   0.10677
 Alpha virt. eigenvalues --    0.11009   0.11121   0.11871   0.12121   0.12519
 Alpha virt. eigenvalues --    0.12745   0.13465   0.13614   0.13835   0.14100
 Alpha virt. eigenvalues --    0.14826   0.15193   0.15380   0.15878   0.16337
 Alpha virt. eigenvalues --    0.16522   0.17021   0.17182   0.17645   0.17882
 Alpha virt. eigenvalues --    0.18307   0.18611   0.18927   0.19051   0.19428
 Alpha virt. eigenvalues --    0.19621   0.20098   0.21288   0.21668   0.21811
 Alpha virt. eigenvalues --    0.22098   0.22511   0.22886   0.23137   0.23647
 Alpha virt. eigenvalues --    0.23746   0.24000   0.24289   0.24477   0.24785
 Alpha virt. eigenvalues --    0.24828   0.25286   0.25495   0.26077   0.26312
 Alpha virt. eigenvalues --    0.26503   0.26747   0.26908   0.27166   0.27682
 Alpha virt. eigenvalues --    0.27790   0.27905   0.27963   0.28278   0.28951
 Alpha virt. eigenvalues --    0.29027   0.29696   0.30328   0.30505   0.30945
 Alpha virt. eigenvalues --    0.31344   0.31703   0.31976   0.32579   0.32611
 Alpha virt. eigenvalues --    0.33501   0.33619   0.34004   0.34432   0.35453
 Alpha virt. eigenvalues --    0.36305   0.36848   0.37470   0.38635   0.40095
 Alpha virt. eigenvalues --    0.41071   0.41969   0.42372   0.42893   0.43941
 Alpha virt. eigenvalues --    0.44521   0.45427   0.48516   0.53036   0.56064
 Alpha virt. eigenvalues --    0.57940   0.60031   0.61281   0.64007   0.64226
 Alpha virt. eigenvalues --    0.64476   0.65275   0.65703   0.66463   0.67206
 Alpha virt. eigenvalues --    0.68587   0.68745   0.69662   0.70072   0.70550
 Alpha virt. eigenvalues --    0.70772   0.71030   0.71704   0.73187   0.73571
 Alpha virt. eigenvalues --    0.74065   0.75046   0.75135   0.75888   0.76603
 Alpha virt. eigenvalues --    0.76766   0.77229   0.78046   0.78689   0.79352
 Alpha virt. eigenvalues --    0.80974   0.82326   0.82713   0.83593   0.84500
 Alpha virt. eigenvalues --    0.84920   0.85870   0.86667   0.87836   0.88759
 Alpha virt. eigenvalues --    0.90498   0.91395   0.92712   0.93118   0.95149
 Alpha virt. eigenvalues --    0.95663   0.96413   0.97222   0.98041   0.98645
 Alpha virt. eigenvalues --    0.98898   0.99403   0.99864   1.00547   1.01069
 Alpha virt. eigenvalues --    1.01379   1.02335   1.02961   1.03104   1.03647
 Alpha virt. eigenvalues --    1.04341   1.04513   1.05950   1.06670   1.08462
 Alpha virt. eigenvalues --    1.08983   1.09128   1.10079   1.11516   1.12228
 Alpha virt. eigenvalues --    1.12773   1.13185   1.14493   1.15619   1.16467
 Alpha virt. eigenvalues --    1.17920   1.19089   1.19599   1.19902   1.20464
 Alpha virt. eigenvalues --    1.22487   1.23383   1.24063   1.25040   1.26151
 Alpha virt. eigenvalues --    1.26514   1.28599   1.29291   1.30065   1.31456
 Alpha virt. eigenvalues --    1.32503   1.33136   1.34517   1.35671   1.36517
 Alpha virt. eigenvalues --    1.38074   1.39732   1.41536   1.41974   1.42428
 Alpha virt. eigenvalues --    1.43320   1.45620   1.46188   1.48517   1.48637
 Alpha virt. eigenvalues --    1.49036   1.49623   1.50787   1.52484   1.52862
 Alpha virt. eigenvalues --    1.53410   1.54525   1.54999   1.56604   1.59393
 Alpha virt. eigenvalues --    1.61167   1.64665   1.65283   1.65893   1.67871
 Alpha virt. eigenvalues --    1.68690   1.69012   1.70466   1.72354   1.73736
 Alpha virt. eigenvalues --    1.75913   1.76597   1.77753   1.79293   1.80086
 Alpha virt. eigenvalues --    1.80198   1.81181   1.81572   1.83855   1.84248
 Alpha virt. eigenvalues --    1.86366   1.86884   1.87635   1.88718   1.89694
 Alpha virt. eigenvalues --    1.90041   1.90330   1.91299   1.91975   1.92527
 Alpha virt. eigenvalues --    1.93072   1.94138   1.95047   1.95440   1.96800
 Alpha virt. eigenvalues --    1.97518   1.98471   1.99183   2.00221   2.01791
 Alpha virt. eigenvalues --    2.02143   2.03474   2.03758   2.04467   2.04886
 Alpha virt. eigenvalues --    2.06774   2.07326   2.08764   2.09574   2.10019
 Alpha virt. eigenvalues --    2.10569   2.11530   2.12313   2.13523   2.13994
 Alpha virt. eigenvalues --    2.16991   2.17770   2.18519   2.19648   2.21683
 Alpha virt. eigenvalues --    2.23520   2.24757   2.26876   2.27905   2.29196
 Alpha virt. eigenvalues --    2.29436   2.32189   2.33634   2.35035   2.36521
 Alpha virt. eigenvalues --    2.39611   2.40902   2.43791   2.47061   2.47662
 Alpha virt. eigenvalues --    2.48841   2.50323   2.51357   2.53689   2.55246
 Alpha virt. eigenvalues --    2.57177   2.59413   2.59939   2.61233   2.62238
 Alpha virt. eigenvalues --    2.64672   2.65164   2.67152   2.68922   2.70433
 Alpha virt. eigenvalues --    2.71980   2.72487   2.72851   2.73927   2.74862
 Alpha virt. eigenvalues --    2.77856   2.79576   2.79957   2.81451   2.83596
 Alpha virt. eigenvalues --    2.83976   2.85923   2.87892   2.89155   2.90329
 Alpha virt. eigenvalues --    2.93309   2.94701   2.97609   2.99390   3.00802
 Alpha virt. eigenvalues --    3.04305   3.04965   3.05809   3.07574   3.09060
 Alpha virt. eigenvalues --    3.09879   3.14475   3.17568   3.24109   3.25028
 Alpha virt. eigenvalues --    3.25391   3.25804   3.26727   3.29910   3.33849
 Alpha virt. eigenvalues --    3.35871   3.43075   3.44167   3.46867   3.47597
 Alpha virt. eigenvalues --    3.48114   3.49521   3.51377   3.53414   3.71657
 Alpha virt. eigenvalues --    4.19305   4.22145   4.22355   4.24101   4.27537
 Alpha virt. eigenvalues --    4.29126   4.30605   4.33195   4.35412   4.37902
 Alpha virt. eigenvalues --    4.41354   4.44632   4.47092   4.53479   4.57819
 Alpha virt. eigenvalues --    4.61212   4.62812   4.64658   4.69630   4.80041
 Alpha virt. eigenvalues --    4.82297   4.95941
          Condensed to atoms (all electrons):
               1          2          3          4          5          6
     1  C    5.299272   0.000764  -0.057306  -0.055109   0.024632  -0.006601
     2  C    0.000764   6.084575  -0.097526   0.099277  -0.176289   0.018961
     3  C   -0.057306  -0.097526   5.449211  -0.048592   0.019398  -0.003972
     4  O   -0.055109   0.099277  -0.048592   8.366353   0.227099  -0.108310
     5  C    0.024632  -0.176289   0.019398   0.227099   5.238256  -0.077868
     6  O   -0.006601   0.018961  -0.003972  -0.108310  -0.077868   8.628169
     7  C    0.012145  -0.028576   0.024075  -0.011349   0.299832   0.128381
     8  C   -0.028561   0.084931  -0.045854   0.027601  -0.409132   0.054846
     9  C   -0.016826   0.050826  -0.012732  -0.019042  -0.338189   0.063423
    10  C    0.000016   0.014306  -0.006283  -0.001962  -0.151227  -0.010920
    11  C   -0.000845   0.003876  -0.001166  -0.002165  -0.042203  -0.003806
    12  N    0.000003  -0.000001   0.000002   0.000009   0.000357   0.000016
    13  C    0.003780  -0.006301  -0.000997   0.004454   0.044737  -0.001497
    14  N   -0.000049  -0.000401  -0.000012   0.000001  -0.002075   0.000141
    15  C   -0.001446   0.001868   0.000174   0.001931   0.070112  -0.002009
    16  C    0.003153  -0.000433   0.000447   0.016809   0.079521   0.022365
    17  C   -0.019041   0.037280  -0.008334  -0.027250  -0.276294  -0.096583
    18  C    0.017874  -0.043284   0.016409   0.013713   0.091432  -0.129006
    19  C    0.009817  -0.037936   0.004472  -0.003350   0.187267  -0.025661
    20  N    0.003625  -0.008721   0.002226   0.001077  -0.006990   0.009978
    21  C    0.004029  -0.004595   0.002105  -0.004492  -0.030878  -0.035910
    22  N   -0.000023  -0.000008  -0.000002   0.000022   0.000834   0.000357
    23  H    0.429588  -0.105366   0.017405   0.010480   0.000713   0.000125
    24  H    0.408440  -0.052103  -0.007610  -0.007827   0.015866  -0.002761
    25  H    0.419798  -0.072940   0.008700   0.005171  -0.005950   0.000673
    26  H   -0.023170   0.361944  -0.018428  -0.062471   0.003210  -0.001156
    27  H   -0.000244  -0.062819   0.425763  -0.003476   0.004170  -0.000061
    28  H    0.009350  -0.089702   0.430297   0.007492   0.001966   0.000265
    29  H    0.004371  -0.082599   0.421500  -0.003435   0.006201  -0.001240
    30  H   -0.013836   0.019192  -0.008816  -0.041872   0.456106  -0.084939
    31  H    0.000921  -0.023409   0.012383  -0.071270   0.472092  -0.058731
    32  H   -0.001461   0.000023   0.001837  -0.010628   0.015250  -0.011155
    33  H    0.000002   0.000005   0.000000   0.000004   0.000000   0.000101
    34  H    0.000005  -0.000019   0.000001  -0.000003   0.000305  -0.000635
               7          8          9         10         11         12
     1  C    0.012145  -0.028561  -0.016826   0.000016  -0.000845   0.000003
     2  C   -0.028576   0.084931   0.050826   0.014306   0.003876  -0.000001
     3  C    0.024075  -0.045854  -0.012732  -0.006283  -0.001166   0.000002
     4  O   -0.011349   0.027601  -0.019042  -0.001962  -0.002165   0.000009
     5  C    0.299832  -0.409132  -0.338189  -0.151227  -0.042203   0.000357
     6  O    0.128381   0.054846   0.063423  -0.010920  -0.003806   0.000016
     7  C   11.706444  -2.516608  -3.980465   0.554357  -0.644526   0.015742
     8  C   -2.516608  11.268785   0.838231  -0.896577  -1.928602   0.108970
     9  C   -3.980465   0.838231  12.158281   0.025111  -0.691891   0.089638
    10  C    0.554357  -0.896577   0.025111   9.782126  -0.427973   0.276733
    11  C   -0.644526  -1.928602  -0.691891  -0.427973  12.702759  -0.441065
    12  N    0.015742   0.108970   0.089638   0.276733  -0.441065   7.304007
    13  C    0.004859   0.997364  -0.863118  -2.444692  -1.763585   0.057152
    14  N    0.022503  -0.045755   0.018550   0.324856   0.056718  -0.002817
    15  C    0.597220  -0.169880   0.893258  -0.407615   0.209681   0.003062
    16  C    0.713534  -0.269286  -1.077207  -0.632418  -0.656583   0.045787
    17  C   -1.350453   2.806690   0.979944  -0.698557   0.007875   0.008646
    18  C    1.573004  -4.250004  -2.713248   0.288983  -0.192274   0.003756
    19  C    0.819933   0.101181  -0.371693  -0.042941  -0.012520   0.000279
    20  N   -0.060845  -0.039982   0.004568   0.000638  -0.000043  -0.000001
    21  C   -1.633434   0.138056  -0.113728  -0.036312   0.015578  -0.000211
    22  N    0.081709  -0.006233   0.013361   0.001216  -0.000442   0.000007
    23  H    0.001037  -0.002176  -0.000299  -0.000123  -0.000005  -0.000000
    24  H   -0.000997  -0.000096   0.000061   0.000187  -0.000006   0.000000
    25  H   -0.022745   0.019374   0.004153   0.000062   0.000055  -0.000000
    26  H    0.003536   0.003940   0.000042   0.001282   0.000037   0.000000
    27  H    0.003293  -0.003022  -0.000164   0.000059   0.000002  -0.000000
    28  H   -0.001602   0.000060   0.000001  -0.000020  -0.000000   0.000000
    29  H    0.000004   0.000438   0.000034   0.000047   0.000000   0.000000
    30  H    0.024196  -0.038909  -0.003224  -0.000331  -0.000006  -0.000000
    31  H    0.112639  -0.099664  -0.034857  -0.022261  -0.002088  -0.000000
    32  H   -0.111213   0.363776   0.014836   0.035776   0.018515  -0.000076
    33  H   -0.002374   0.031110  -0.055572   0.008509  -0.018614   0.002624
    34  H    0.031178   0.008614   0.022395  -0.002517   0.002055   0.000024
              13         14         15         16         17         18
     1  C    0.003780  -0.000049  -0.001446   0.003153  -0.019041   0.017874
     2  C   -0.006301  -0.000401   0.001868  -0.000433   0.037280  -0.043284
     3  C   -0.000997  -0.000012   0.000174   0.000447  -0.008334   0.016409
     4  O    0.004454   0.000001   0.001931   0.016809  -0.027250   0.013713
     5  C    0.044737  -0.002075   0.070112   0.079521  -0.276294   0.091432
     6  O   -0.001497   0.000141  -0.002009   0.022365  -0.096583  -0.129006
     7  C    0.004859   0.022503   0.597220   0.713534  -1.350453   1.573004
     8  C    0.997364  -0.045755  -0.169880  -0.269286   2.806690  -4.250004
     9  C   -0.863118   0.018550   0.893258  -1.077207   0.979944  -2.713248
    10  C   -2.444692   0.324856  -0.407615  -0.632418  -0.698557   0.288983
    11  C   -1.763585   0.056718   0.209681  -0.656583   0.007875  -0.192274
    12  N    0.057152  -0.002817   0.003062   0.045787   0.008646   0.003756
    13  C   11.758968  -0.274248  -0.698264   0.078394  -0.286288  -0.126170
    14  N   -0.274248   7.296265   0.047894  -0.002532   0.017618   0.002005
    15  C   -0.698264   0.047894   7.982590   1.008239  -2.558191  -0.348150
    16  C    0.078394  -0.002532   1.008239   8.108313  -2.176706   1.738231
    17  C   -0.286288   0.017618  -2.558191  -2.176706  19.936715  -9.247396
    18  C   -0.126170   0.002005  -0.348150   1.738231  -9.247396  21.964372
    19  C   -0.009032  -0.000031   0.289212  -0.760002  -1.894649  -2.746205
    20  N    0.000109   0.000000  -0.007961   0.050647   0.043987   0.459876
    21  C   -0.021264   0.000375  -0.666308  -0.188911  -0.055328  -1.945571
    22  N    0.000266  -0.000001   0.075713   0.076412  -0.021210   0.373546
    23  H    0.000027  -0.000000  -0.000021  -0.000114  -0.000913   0.001436
    24  H    0.000091  -0.000002   0.000197   0.001856   0.000678  -0.004334
    25  H    0.000337   0.000001  -0.001080  -0.001931   0.006888   0.002116
    26  H   -0.000578   0.000006  -0.000256  -0.000275  -0.000118   0.000222
    27  H   -0.000098   0.000006   0.000006   0.000004   0.000075   0.000106
    28  H   -0.000005   0.000000   0.000014   0.000006   0.000072  -0.000290
    29  H   -0.000018  -0.000000  -0.000019  -0.000048  -0.000420  -0.000167
    30  H    0.000307   0.000000  -0.001015   0.001219  -0.004378   0.032042
    31  H    0.006575  -0.000119  -0.000368   0.003204  -0.001687   0.019979
    32  H    0.004214   0.004766  -0.008902  -0.016077   0.015096  -0.007765
    33  H    0.016861  -0.000101   0.326032  -0.020528   0.023627   0.006510
    34  H    0.000301   0.000003   0.012683   0.338626  -0.003809  -0.129294
              19         20         21         22         23         24
     1  C    0.009817   0.003625   0.004029  -0.000023   0.429588   0.408440
     2  C   -0.037936  -0.008721  -0.004595  -0.000008  -0.105366  -0.052103
     3  C    0.004472   0.002226   0.002105  -0.000002   0.017405  -0.007610
     4  O   -0.003350   0.001077  -0.004492   0.000022   0.010480  -0.007827
     5  C    0.187267  -0.006990  -0.030878   0.000834   0.000713   0.015866
     6  O   -0.025661   0.009978  -0.035910   0.000357   0.000125  -0.002761
     7  C    0.819933  -0.060845  -1.633434   0.081709   0.001037  -0.000997
     8  C    0.101181  -0.039982   0.138056  -0.006233  -0.002176  -0.000096
     9  C   -0.371693   0.004568  -0.113728   0.013361  -0.000299   0.000061
    10  C   -0.042941   0.000638  -0.036312   0.001216  -0.000123   0.000187
    11  C   -0.012520  -0.000043   0.015578  -0.000442  -0.000005  -0.000006
    12  N    0.000279  -0.000001  -0.000211   0.000007  -0.000000   0.000000
    13  C   -0.009032   0.000109  -0.021264   0.000266   0.000027   0.000091
    14  N   -0.000031   0.000000   0.000375  -0.000001  -0.000000  -0.000002
    15  C    0.289212  -0.007961  -0.666308   0.075713  -0.000021   0.000197
    16  C   -0.760002   0.050647  -0.188911   0.076412  -0.000114   0.001856
    17  C   -1.894649   0.043987  -0.055328  -0.021210  -0.000913   0.000678
    18  C   -2.746205   0.459876  -1.945571   0.373546   0.001436  -0.004334
    19  C   12.564169  -0.238291  -1.681599   0.029189  -0.000963   0.002428
    20  N   -0.238291   7.285838  -0.033518   0.000366   0.000348  -0.000401
    21  C   -1.681599  -0.033518  12.879347  -0.446135   0.000188  -0.001316
    22  N    0.029189   0.000366  -0.446135   7.276899  -0.000000   0.000006
    23  H   -0.000963   0.000348   0.000188  -0.000000   0.551382  -0.026625
    24  H    0.002428  -0.000401  -0.001316   0.000006  -0.026625   0.522719
    25  H   -0.008100   0.000470   0.002450  -0.000006  -0.025200  -0.026685
    26  H    0.000022  -0.000010  -0.000031   0.000000  -0.002838   0.004855
    27  H   -0.000040   0.000002  -0.000005   0.000000   0.000078  -0.000009
    28  H    0.000278  -0.000015  -0.000004   0.000000   0.000939  -0.000101
    29  H    0.000345  -0.000017  -0.000017   0.000000  -0.000070   0.003266
    30  H   -0.018439   0.002053   0.001995  -0.000003   0.000015  -0.000683
    31  H    0.001831   0.000316  -0.000822   0.000004   0.000011  -0.000008
    32  H    0.000325  -0.000040   0.000477   0.000001   0.000000  -0.000000
    33  H   -0.000559   0.000005  -0.000566   0.000016  -0.000000  -0.000000
    34  H    0.017628  -0.000170   0.017107   0.001324   0.000000  -0.000000
              25         26         27         28         29         30
     1  C    0.419798  -0.023170  -0.000244   0.009350   0.004371  -0.013836
     2  C   -0.072940   0.361944  -0.062819  -0.089702  -0.082599   0.019192
     3  C    0.008700  -0.018428   0.425763   0.430297   0.421500  -0.008816
     4  O    0.005171  -0.062471  -0.003476   0.007492  -0.003435  -0.041872
     5  C   -0.005950   0.003210   0.004170   0.001966   0.006201   0.456106
     6  O    0.000673  -0.001156  -0.000061   0.000265  -0.001240  -0.084939
     7  C   -0.022745   0.003536   0.003293  -0.001602   0.000004   0.024196
     8  C    0.019374   0.003940  -0.003022   0.000060   0.000438  -0.038909
     9  C    0.004153   0.000042  -0.000164   0.000001   0.000034  -0.003224
    10  C    0.000062   0.001282   0.000059  -0.000020   0.000047  -0.000331
    11  C    0.000055   0.000037   0.000002  -0.000000   0.000000  -0.000006
    12  N   -0.000000   0.000000  -0.000000   0.000000   0.000000  -0.000000
    13  C    0.000337  -0.000578  -0.000098  -0.000005  -0.000018   0.000307
    14  N    0.000001   0.000006   0.000006   0.000000  -0.000000   0.000000
    15  C   -0.001080  -0.000256   0.000006   0.000014  -0.000019  -0.001015
    16  C   -0.001931  -0.000275   0.000004   0.000006  -0.000048   0.001219
    17  C    0.006888  -0.000118   0.000075   0.000072  -0.000420  -0.004378
    18  C    0.002116   0.000222   0.000106  -0.000290  -0.000167   0.032042
    19  C   -0.008100   0.000022  -0.000040   0.000278   0.000345  -0.018439
    20  N    0.000470  -0.000010   0.000002  -0.000015  -0.000017   0.002053
    21  C    0.002450  -0.000031  -0.000005  -0.000004  -0.000017   0.001995
    22  N   -0.000006   0.000000   0.000000   0.000000   0.000000  -0.000003
    23  H   -0.025200  -0.002838   0.000078   0.000939  -0.000070   0.000015
    24  H   -0.026685   0.004855  -0.000009  -0.000101   0.003266  -0.000683
    25  H    0.543084  -0.004481  -0.000143   0.000046   0.000015   0.000295
    26  H   -0.004481   0.594256  -0.004599  -0.002983   0.005004  -0.000184
    27  H   -0.000143  -0.004599   0.527854  -0.023887  -0.029177   0.000067
    28  H    0.000046  -0.002983  -0.023887   0.537178  -0.027007  -0.000215
    29  H    0.000015   0.005004  -0.029177  -0.027007   0.554950   0.001627
    30  H    0.000295  -0.000184   0.000067  -0.000215   0.001627   0.571260
    31  H   -0.000048  -0.000129  -0.000083   0.000004  -0.000005  -0.036814
    32  H   -0.000001  -0.000065  -0.000002   0.000000  -0.000001   0.000150
    33  H    0.000000  -0.000000   0.000000  -0.000000   0.000000   0.000000
    34  H    0.000000  -0.000000   0.000000   0.000000  -0.000000  -0.000000
              31         32         33         34
     1  C    0.000921  -0.001461   0.000002   0.000005
     2  C   -0.023409   0.000023   0.000005  -0.000019
     3  C    0.012383   0.001837   0.000000   0.000001
     4  O   -0.071270  -0.010628   0.000004  -0.000003
     5  C    0.472092   0.015250   0.000000   0.000305
     6  O   -0.058731  -0.011155   0.000101  -0.000635
     7  C    0.112639  -0.111213  -0.002374   0.031178
     8  C   -0.099664   0.363776   0.031110   0.008614
     9  C   -0.034857   0.014836  -0.055572   0.022395
    10  C   -0.022261   0.035776   0.008509  -0.002517
    11  C   -0.002088   0.018515  -0.018614   0.002055
    12  N   -0.000000  -0.000076   0.002624   0.000024
    13  C    0.006575   0.004214   0.016861   0.000301
    14  N   -0.000119   0.004766  -0.000101   0.000003
    15  C   -0.000368  -0.008902   0.326032   0.012683
    16  C    0.003204  -0.016077  -0.020528   0.338626
    17  C   -0.001687   0.015096   0.023627  -0.003809
    18  C    0.019979  -0.007765   0.006510  -0.129294
    19  C    0.001831   0.000325  -0.000559   0.017628
    20  N    0.000316  -0.000040   0.000005  -0.000170
    21  C   -0.000822   0.000477  -0.000566   0.017107
    22  N    0.000004   0.000001   0.000016   0.001324
    23  H    0.000011   0.000000  -0.000000   0.000000
    24  H   -0.000008  -0.000000  -0.000000  -0.000000
    25  H   -0.000048  -0.000001   0.000000   0.000000
    26  H   -0.000129  -0.000065  -0.000000  -0.000000
    27  H   -0.000083  -0.000002   0.000000   0.000000
    28  H    0.000004   0.000000  -0.000000   0.000000
    29  H   -0.000005  -0.000001   0.000000  -0.000000
    30  H   -0.036814   0.000150   0.000000  -0.000000
    31  H    0.577957  -0.001185   0.000000   0.000000
    32  H   -0.001185   0.515307  -0.000085   0.000011
    33  H    0.000000  -0.000085   0.516337  -0.004335
    34  H    0.000000   0.000011  -0.004335   0.516108
 Mulliken charges:
               1
     1  C   -0.427066
     2  C    0.115201
     3  C   -0.518777
     4  O   -0.298890
     5  C    0.257740
     6  O   -0.264980
     7  C   -0.364436
     8  C   -0.103626
     9  C    1.115543
    10  C    0.468463
    11  C   -0.186743
    12  N   -0.472643
    13  C   -0.482639
    14  N   -0.463564
    15  C   -0.648403
    16  C   -0.483717
    17  C    0.842415
    18  C    1.277545
    19  C   -0.176367
    20  N   -0.469126
    21  C   -0.160753
    22  N   -0.457181
    23  H    0.150940
    24  H    0.170915
    25  H    0.155620
    26  H    0.143413
    27  H    0.166342
    28  H    0.157864
    29  H    0.146434
    30  H    0.143142
    31  H    0.145631
    32  H    0.178294
    33  H    0.170992
    34  H    0.172416
 Sum of Mulliken charges =  -0.00000
 Mulliken charges with hydrogens summed into heavy atoms:
               1
     1  C    0.050409
     2  C    0.258614
     3  C   -0.048138
     4  O   -0.298890
     5  C    0.546512
     6  O   -0.264980
     7  C   -0.364436
     8  C    0.074669
     9  C    1.115543
    10  C    0.468463
    11  C   -0.186743
    12  N   -0.472643
    13  C   -0.482639
    14  N   -0.463564
    15  C   -0.477411
    16  C   -0.311301
    17  C    0.842415
    18  C    1.277545
    19  C   -0.176367
    20  N   -0.469126
    21  C   -0.160753
    22  N   -0.457181
 Electronic spatial extent (au):  <R**2>=           7529.9739
 Charge=             -0.0000 electrons
 Dipole moment (field-independent basis, Debye):
    X=              3.4024    Y=             -2.1653    Z=             -0.0851  Tot=              4.0338
 Quadrupole moment (field-independent basis, Debye-Ang):
   XX=           -158.1900   YY=           -157.3146   ZZ=           -124.8025
   XY=            -26.3211   XZ=              3.8560   YZ=             -2.8823
 Traceless Quadrupole moment (field-independent basis, Debye-Ang):
   XX=            -11.4210   YY=            -10.5456   ZZ=             21.9665
   XY=            -26.3211   XZ=              3.8560   YZ=             -2.8823
 Octapole moment (field-independent basis, Debye-Ang**2):
  XXX=            195.5276  YYY=           -113.7285  ZZZ=             -4.0722  XYY=             36.0617
  XXY=            -40.9136  XXZ=             -1.3179  XZZ=             20.0645  YZZ=            -16.0617
  YYZ=              3.5842  XYZ=              3.6756
 Hexadecapole moment (field-independent basis, Debye-Ang**3):
 XXXX=          -7244.5921 YYYY=          -5450.1700 ZZZZ=           -413.9630 XXXY=           -340.1240
 XXXZ=            174.7068 YYYX=           -401.8509 YYYZ=           -124.1599 ZZZX=              1.8409
 ZZZY=             -2.1702 XXYY=          -1765.3777 XXZZ=          -1035.6210 YYZZ=           -790.7236
 XXYZ=             -9.6861 YYXZ=             -8.6483 ZZXY=            -37.5142
 N-N= 1.598312614653D+03 E-N=-5.485395877215D+03  KE= 9.770570227799D+02
 Unable to Open any file for archive entry.
 1\1\GINC-N1\SP\RB3LYP TD-FC\6-31+G(d,p)\C16H12N4O2\HPCMGAC13\29-Jul-20
 25\0\\# td=(50-50,nstates=3) b3lyp/6-31+g(d,p) geom=connectivity\\Titl
 e Card Required\\0,1\C,0,-3.132672,-1.464585,-1.591096\C,0,-2.683007,-
 2.663896,-0.75933\C,0,-3.822813,-3.336335,0.005052\O,0,-1.570585,-2.34
 3106,0.133483\C,0,-1.744318,-1.362791,1.08615\O,0,-1.432117,-0.025306,
 0.607554\C,0,-0.162555,0.321989,0.341215\C,0,0.89612,-0.544663,0.29541
 6\C,0,2.226509,-0.075011,0.032066\C,0,3.310486,-0.95061,0.000715\C,0,4
 .637541,-0.499403,-0.266032\N,0,5.719502,-0.125827,-0.484613\C,0,3.153
 774,-2.348484,0.238819\N,0,3.016871,-3.488467,0.437608\C,0,2.423578,1.
 340203,-0.209104\C,0,1.377274,2.199453,-0.184678\C,0,0.025918,1.753894
 ,0.089405\C,0,-1.016099,2.671212,0.107262\C,0,-2.395239,2.38799,0.3582
 5\N,0,-3.5404,2.280979,0.542824\C,0,-0.759323,4.057233,-0.147954\N,0,-
 0.553999,5.184758,-0.354709\H,0,-3.871598,-1.793079,-2.329533\H,0,-3.5
 97568,-0.687052,-0.977064\H,0,-2.288308,-1.023552,-2.128398\H,0,-2.220
 75,-3.403029,-1.420044\H,0,-3.446331,-4.170669,0.603899\H,0,-4.558279,
 -3.728487,-0.704846\H,0,-4.351149,-2.638324,0.663693\H,0,-2.774173,-1.
 25851,1.433494\H,0,-1.07091,-1.581615,1.920763\H,0,0.731165,-1.606168,
 0.429065\H,0,3.424111,1.70534,-0.41321\H,0,1.540551,3.255161,-0.370826
 \\Version=ES64L-G16RevC.02\State=1-A\HF=-986.3099285\RMSD=1.978e-09\PG
 =C01 [X(C16H12N4O2)]\\@
 The archive entry for this job was punched.


 It takes a long time to grow an old friend.
                            -- John Leonard
 Job cpu time:       0 days  1 hours 42 minutes 51.1 seconds.
 Elapsed time:       0 days  0 hours  6 minutes 35.8 seconds.
 File lengths (MBytes):  RWF=   1289 Int=      0 D2E=      0 Chk=     59 Scr=      2
 Normal termination of Gaussian 16 at Tue Jul 29 15:56:09 2025.
