 Entering Gaussian System, Link 0=g16
 Input=M1840.gjf
 Output=M1840.log
 Initial command:
 /hpc/softwares/Gaussian/g16/l1.exe "/hpc/home/hpcmgac13/pbs.12924.admin1.x8z/Gau-2992599.inp" -scrdir="/hpc/home/hpcmgac13/pbs.12924.admin1.x8z/"
 Default linda workers: n1
 Default is to use  32 SMP processors on each worker.
 Entering Link 1 = /hpc/softwares/Gaussian/g16/l1.exe PID=   2992600.
  
 Copyright (c) 1988-2021, Gaussian, Inc.  All Rights Reserved.
  
 This is part of the Gaussian(R) 16 program.  It is based on
 the Gaussian(R) 09 system (copyright 2009, Gaussian, Inc.),
 the Gaussian(R) 03 system (copyright 2003, Gaussian, Inc.),
 the Gaussian(R) 98 system (copyright 1998, Gaussian, Inc.),
 the Gaussian(R) 94 system (copyright 1995, Gaussian, Inc.),
 the Gaussian 92(TM) system (copyright 1992, Gaussian, Inc.),
 the Gaussian 90(TM) system (copyright 1990, Gaussian, Inc.),
 the Gaussian 88(TM) system (copyright 1988, Gaussian, Inc.),
 the Gaussian 86(TM) system (copyright 1986, Carnegie Mellon
 University), and the Gaussian 82(TM) system (copyright 1983,
 Carnegie Mellon University). Gaussian is a federally registered
 trademark of Gaussian, Inc.
  
 This software contains proprietary and confidential information,
 including trade secrets, belonging to Gaussian, Inc.
  
 This software is provided under written license and may be
 used, copied, transmitted, or stored only in accord with that
 written license.
  
 The following legend is applicable only to US Government
 contracts under FAR:
  
                    RESTRICTED RIGHTS LEGEND
  
 Use, reproduction and disclosure by the US Government is
 subject to restrictions as set forth in subparagraphs (a)
 and (c) of the Commercial Computer Software - Restricted
 Rights clause in FAR 52.227-19.
  
 Gaussian, Inc.
 340 Quinnipiac St., Bldg. 40, Wallingford CT 06492
  
  
 ---------------------------------------------------------------
 Warning -- This program may not be used in any manner that
 competes with the business of Gaussian, Inc. or will provide
 assistance to any competitor of Gaussian, Inc.  The licensee
 of this program is prohibited from giving any competitor of
 Gaussian, Inc. access to this program.  By using this program,
 the user acknowledges that Gaussian, Inc. is engaged in the
 business of creating and licensing software in the field of
 computational chemistry and represents and warrants to the
 licensee that it is not a competitor of Gaussian, Inc. and that
 it will not use this program in any manner prohibited above.
 ---------------------------------------------------------------
  

 Cite this work as:
 Gaussian 16, Revision C.02,
 M. J. Frisch, G. W. Trucks, H. B. Schlegel, G. E. Scuseria, 
 M. A. Robb, J. R. Cheeseman, G. Scalmani, V. Barone, 
 G. A. Petersson, H. Nakatsuji, X. Li, M. Caricato, A. V. Marenich, 
 J. Bloino, B. G. Janesko, R. Gomperts, B. Mennucci, H. P. Hratchian, 
 J. V. Ortiz, A. F. Izmaylov, J. L. Sonnenberg, D. Williams-Young, 
 F. Ding, F. Lipparini, F. Egidi, J. Goings, B. Peng, A. Petrone, 
 T. Henderson, D. Ranasinghe, V. G. Zakrzewski, J. Gao, N. Rega, 
 G. Zheng, W. Liang, M. Hada, M. Ehara, K. Toyota, R. Fukuda, 
 J. Hasegawa, M. Ishida, T. Nakajima, Y. Honda, O. Kitao, H. Nakai, 
 T. Vreven, K. Throssell, J. A. Montgomery, Jr., J. E. Peralta, 
 F. Ogliaro, M. J. Bearpark, J. J. Heyd, E. N. Brothers, K. N. Kudin, 
 V. N. Staroverov, T. A. Keith, R. Kobayashi, J. Normand, 
 K. Raghavachari, A. P. Rendell, J. C. Burant, S. S. Iyengar, 
 J. Tomasi, M. Cossi, J. M. Millam, M. Klene, C. Adamo, R. Cammi, 
 J. W. Ochterski, R. L. Martin, K. Morokuma, O. Farkas, 
 J. B. Foresman, and D. J. Fox, Gaussian, Inc., Wallingford CT, 2019.
 
 ******************************************
 Gaussian 16:  ES64L-G16RevC.02  7-Dec-2021
                 7-Aug-2025 
 ******************************************
 SetLPE:    new flags="-opt 'Tsnet.Node.lindarsharg: ssh'  -nodelist 'n1' -env GAUSS_MDEF=2415919104 -env GAUSS_EXEDIR="/hpc/softwares/Gaussian/g16/bsd:/hpc/softwares/Gaussian/g16""
 Will use up to    1 processors via Linda.
 -----------------------------------------
 # opt b3lyp/6-31+g(d,p) geom=connectivity
 -----------------------------------------
 1/18=20,19=15,26=3,38=1,57=2/1,3;
 2/9=110,12=2,17=6,18=5,40=1/2;
 3/5=1,6=6,7=111,11=2,25=1,30=1,71=1,74=-5/1,2,3;
 4//1;
 5/5=2,38=5/2;
 6/7=2,8=2,9=2,10=2,28=1/1;
 7//1,2,3,16;
 1/18=20,19=15,26=3/3(2);
 2/9=110/2;
 99//99;
 2/9=110/2;
 3/5=1,6=6,7=111,11=2,25=1,30=1,71=1,74=-5/1,2,3;
 4/5=5,16=3,69=1/1;
 5/5=2,38=5/2;
 7//1,2,3,16;
 1/18=20,19=15,26=3/3(-5);
 2/9=110/2;
 6/7=2,8=2,9=2,10=2,19=2,28=1/1;
 99/9=1/99;
 -------------------
 Title Card Required
 -------------------
 Symbolic Z-matrix:
 Charge =  0 Multiplicity = 1
 C                    -2.76233   0.13609   0.66864 
 C                    -1.42533   0.13609   0.66864 
 C                    -0.76883  -1.00101   0.66864 
 C                    -0.16283  -2.05061   0.66864 
 Si                    0.78117  -3.68571   0.66864 
 C                     0.32757  -4.67221  -0.86606 
 C                     2.62937  -3.34121   0.66754 
 C                     0.32687  -4.67131   2.20374 
 C                    -0.76883   1.27319   0.66864 
 C                    -0.16283   2.32279   0.66864 
 Si                    0.60531   3.65327   0.66864 
 C                     0.15171   4.63977   2.20344 
 C                     2.45351   3.30877   0.66974 
 C                     0.21373   4.50278  -0.6545 
 C                    -0.79307   3.71658  -1.4839 
 C                    -0.19117   2.40808  -1.8919 
 C                    -0.89917   1.54808  -2.6312 
 C                    -0.37127   0.40048  -2.9891 
 N                     0.09443  -0.61172  -3.3047 
 C                    -2.12257   1.85118  -2.9994 
 N                    -3.20147   2.11858  -3.3242 
 H                    -3.31233   1.08869   0.66864 
 H                    -3.31233  -0.81651   0.66864 
 H                     0.88407  -5.63611  -0.86606 
 H                    -0.76653  -4.87611  -0.86546 
 H                     0.59657  -4.08871  -1.77486 
 H                     3.18687  -4.30451   0.66754 
 H                     2.89797  -2.75771   1.57644 
 H                     2.89727  -2.75771  -0.24156 
 H                    -0.40893  -4.09671   2.80984 
 H                    -0.12193  -5.64361   1.90044 
 H                     1.24187  -4.85691   2.80954 
 H                     0.70821   5.60367   2.20344 
 H                    -0.94239   4.84367   2.20274 
 H                     0.42071   4.05627   3.11224 
 H                     3.01101   4.27207   0.66974 
 H                     2.72211   2.72527  -0.23916 
 H                     2.72141   2.72527   1.57894 
 H                    -0.23507   5.47508  -0.3511 
 H                     1.12873   4.68838  -1.2603 
 H                    -1.06087   4.30058  -2.3927 
 H                    -1.70817   3.53098  -0.8781 
 H                     0.83373   2.15418  -1.5834 
 

 GradGradGradGradGradGradGradGradGradGradGradGradGradGradGradGradGradGrad
 Berny optimization.
 Initialization pass.
                           ----------------------------
                           !    Initial Parameters    !
                           ! (Angstroms and Degrees)  !
 --------------------------                            --------------------------
 ! Name  Definition              Value          Derivative Info.                !
 --------------------------------------------------------------------------------
 ! R1    R(1,2)                  1.337          estimate D2E/DX2                !
 ! R2    R(1,22)                 1.1            estimate D2E/DX2                !
 ! R3    R(1,23)                 1.1            estimate D2E/DX2                !
 ! R4    R(2,3)                  1.313          estimate D2E/DX2                !
 ! R5    R(2,9)                  1.313          estimate D2E/DX2                !
 ! R6    R(3,4)                  1.212          estimate D2E/DX2                !
 ! R7    R(4,5)                  1.888          estimate D2E/DX2                !
 ! R8    R(5,6)                  1.88           estimate D2E/DX2                !
 ! R9    R(5,7)                  1.88           estimate D2E/DX2                !
 ! R10   R(5,8)                  1.88           estimate D2E/DX2                !
 ! R11   R(6,24)                 1.113          estimate D2E/DX2                !
 ! R12   R(6,25)                 1.1129         estimate D2E/DX2                !
 ! R13   R(6,26)                 1.113          estimate D2E/DX2                !
 ! R14   R(7,27)                 1.113          estimate D2E/DX2                !
 ! R15   R(7,28)                 1.113          estimate D2E/DX2                !
 ! R16   R(7,29)                 1.113          estimate D2E/DX2                !
 ! R17   R(8,30)                 1.1131         estimate D2E/DX2                !
 ! R18   R(8,31)                 1.113          estimate D2E/DX2                !
 ! R19   R(8,32)                 1.113          estimate D2E/DX2                !
 ! R20   R(9,10)                 1.212          estimate D2E/DX2                !
 ! R21   R(10,11)                1.5363         estimate D2E/DX2                !
 ! R22   R(11,12)                1.88           estimate D2E/DX2                !
 ! R23   R(11,13)                1.88           estimate D2E/DX2                !
 ! R24   R(11,14)                1.6204         estimate D2E/DX2                !
 ! R25   R(12,33)                1.113          estimate D2E/DX2                !
 ! R26   R(12,34)                1.1129         estimate D2E/DX2                !
 ! R27   R(12,35)                1.113          estimate D2E/DX2                !
 ! R28   R(13,36)                1.113          estimate D2E/DX2                !
 ! R29   R(13,37)                1.113          estimate D2E/DX2                !
 ! R30   R(13,38)                1.1131         estimate D2E/DX2                !
 ! R31   R(14,15)                1.523          estimate D2E/DX2                !
 ! R32   R(14,39)                1.113          estimate D2E/DX2                !
 ! R33   R(14,40)                1.113          estimate D2E/DX2                !
 ! R34   R(15,16)                1.497          estimate D2E/DX2                !
 ! R35   R(15,41)                1.113          estimate D2E/DX2                !
 ! R36   R(15,42)                1.113          estimate D2E/DX2                !
 ! R37   R(16,17)                1.3369         estimate D2E/DX2                !
 ! R38   R(16,43)                1.1            estimate D2E/DX2                !
 ! R39   R(17,18)                1.3129         estimate D2E/DX2                !
 ! R40   R(17,20)                1.3131         estimate D2E/DX2                !
 ! R41   R(18,19)                1.158          estimate D2E/DX2                !
 ! R42   R(20,21)                1.158          estimate D2E/DX2                !
 ! A1    A(2,1,22)             120.0007         estimate D2E/DX2                !
 ! A2    A(2,1,23)             120.0007         estimate D2E/DX2                !
 ! A3    A(22,1,23)            119.9985         estimate D2E/DX2                !
 ! A4    A(1,2,3)              119.9998         estimate D2E/DX2                !
 ! A5    A(1,2,9)              119.9998         estimate D2E/DX2                !
 ! A6    A(3,2,9)              120.0004         estimate D2E/DX2                !
 ! A7    A(4,5,6)              109.5001         estimate D2E/DX2                !
 ! A8    A(4,5,7)              109.4407         estimate D2E/DX2                !
 ! A9    A(4,5,8)              109.4633         estimate D2E/DX2                !
 ! A10   A(6,5,7)              109.4433         estimate D2E/DX2                !
 ! A11   A(6,5,8)              109.4619         estimate D2E/DX2                !
 ! A12   A(7,5,8)              109.518          estimate D2E/DX2                !
 ! A13   A(5,6,24)             109.4999         estimate D2E/DX2                !
 ! A14   A(5,6,25)             109.4447         estimate D2E/DX2                !
 ! A15   A(5,6,26)             109.4606         estimate D2E/DX2                !
 ! A16   A(24,6,25)            109.4429         estimate D2E/DX2                !
 ! A17   A(24,6,26)            109.462          estimate D2E/DX2                !
 ! A18   A(25,6,26)            109.5172         estimate D2E/DX2                !
 ! A19   A(5,7,27)             109.501          estimate D2E/DX2                !
 ! A20   A(5,7,28)             109.4412         estimate D2E/DX2                !
 ! A21   A(5,7,29)             109.4618         estimate D2E/DX2                !
 ! A22   A(27,7,28)            109.4432         estimate D2E/DX2                !
 ! A23   A(27,7,29)            109.4625         estimate D2E/DX2                !
 ! A24   A(28,7,29)            109.5177         estimate D2E/DX2                !
 ! A25   A(5,8,30)             109.4961         estimate D2E/DX2                !
 ! A26   A(5,8,31)             109.4456         estimate D2E/DX2                !
 ! A27   A(5,8,32)             109.4643         estimate D2E/DX2                !
 ! A28   A(30,8,31)            109.4387         estimate D2E/DX2                !
 ! A29   A(30,8,32)            109.4612         estimate D2E/DX2                !
 ! A30   A(31,8,32)            109.5215         estimate D2E/DX2                !
 ! A31   A(10,11,12)           109.4992         estimate D2E/DX2                !
 ! A32   A(10,11,13)           109.4407         estimate D2E/DX2                !
 ! A33   A(10,11,14)           109.4633         estimate D2E/DX2                !
 ! A34   A(12,11,13)           109.4424         estimate D2E/DX2                !
 ! A35   A(12,11,14)           109.4637         estimate D2E/DX2                !
 ! A36   A(13,11,14)           109.518          estimate D2E/DX2                !
 ! A37   A(11,12,33)           109.499          estimate D2E/DX2                !
 ! A38   A(11,12,34)           109.4393         estimate D2E/DX2                !
 ! A39   A(11,12,35)           109.4624         estimate D2E/DX2                !
 ! A40   A(33,12,34)           109.4429         estimate D2E/DX2                !
 ! A41   A(33,12,35)           109.462          estimate D2E/DX2                !
 ! A42   A(34,12,35)           109.5217         estimate D2E/DX2                !
 ! A43   A(11,13,36)           109.501          estimate D2E/DX2                !
 ! A44   A(11,13,37)           109.4412         estimate D2E/DX2                !
 ! A45   A(11,13,38)           109.4603         estimate D2E/DX2                !
 ! A46   A(36,13,37)           109.4432         estimate D2E/DX2                !
 ! A47   A(36,13,38)           109.461          estimate D2E/DX2                !
 ! A48   A(37,13,38)           109.5207         estimate D2E/DX2                !
 ! A49   A(11,14,15)           109.4986         estimate D2E/DX2                !
 ! A50   A(11,14,39)           109.4406         estimate D2E/DX2                !
 ! A51   A(11,14,40)           109.4643         estimate D2E/DX2                !
 ! A52   A(15,14,39)           109.4406         estimate D2E/DX2                !
 ! A53   A(15,14,40)           109.4592         estimate D2E/DX2                !
 ! A54   A(39,14,40)           109.524          estimate D2E/DX2                !
 ! A55   A(14,15,16)           109.5022         estimate D2E/DX2                !
 ! A56   A(14,15,41)           109.4428         estimate D2E/DX2                !
 ! A57   A(14,15,42)           109.4613         estimate D2E/DX2                !
 ! A58   A(16,15,41)           109.4422         estimate D2E/DX2                !
 ! A59   A(16,15,42)           109.4608         estimate D2E/DX2                !
 ! A60   A(41,15,42)           109.5181         estimate D2E/DX2                !
 ! A61   A(15,16,17)           120.0038         estimate D2E/DX2                !
 ! A62   A(15,16,43)           119.9958         estimate D2E/DX2                !
 ! A63   A(17,16,43)           120.0005         estimate D2E/DX2                !
 ! A64   A(16,17,18)           120.0048         estimate D2E/DX2                !
 ! A65   A(16,17,20)           119.9985         estimate D2E/DX2                !
 ! A66   A(18,17,20)           119.9968         estimate D2E/DX2                !
 ! A67   L(2,3,4,18,-1)        179.9998         estimate D2E/DX2                !
 ! A68   L(3,4,5,19,-1)        180.0003         estimate D2E/DX2                !
 ! A69   L(2,9,10,17,-1)       180.0001         estimate D2E/DX2                !
 ! A70   L(9,10,11,15,-1)      179.9994         estimate D2E/DX2                !
 ! A71   L(17,18,19,2,-1)      179.9973         estimate D2E/DX2                !
 ! A72   L(17,20,21,1,-1)      180.0057         estimate D2E/DX2                !
 ! A73   L(2,3,4,18,-2)        179.9993         estimate D2E/DX2                !
 ! A74   L(3,4,5,19,-2)        180.0012         estimate D2E/DX2                !
 ! A75   L(2,9,10,17,-2)       180.0007         estimate D2E/DX2                !
 ! A76   L(9,10,11,15,-2)      179.9989         estimate D2E/DX2                !
 ! A77   L(17,18,19,2,-2)      180.005          estimate D2E/DX2                !
 ! A78   L(17,20,21,1,-2)      179.9974         estimate D2E/DX2                !
 ! D1    D(22,1,2,3)           180.0            estimate D2E/DX2                !
 ! D2    D(22,1,2,9)             0.0            estimate D2E/DX2                !
 ! D3    D(23,1,2,3)             0.0            estimate D2E/DX2                !
 ! D4    D(23,1,2,9)           180.0            estimate D2E/DX2                !
 ! D5    D(1,2,5,6)             59.9995         estimate D2E/DX2                !
 ! D6    D(1,2,5,7)            179.9644         estimate D2E/DX2                !
 ! D7    D(1,2,5,8)            -60.0016         estimate D2E/DX2                !
 ! D8    D(9,2,5,6)           -120.0005         estimate D2E/DX2                !
 ! D9    D(9,2,5,7)             -0.0356         estimate D2E/DX2                !
 ! D10   D(9,2,5,8)            119.9984         estimate D2E/DX2                !
 ! D11   D(1,2,11,12)           60.0011         estimate D2E/DX2                !
 ! D12   D(1,2,11,13)          179.9644         estimate D2E/DX2                !
 ! D13   D(1,2,11,14)          -60.0016         estimate D2E/DX2                !
 ! D14   D(3,2,11,12)         -119.9989         estimate D2E/DX2                !
 ! D15   D(3,2,11,13)           -0.0356         estimate D2E/DX2                !
 ! D16   D(3,2,11,14)          119.9984         estimate D2E/DX2                !
 ! D17   D(4,5,6,24)           179.9997         estimate D2E/DX2                !
 ! D18   D(4,5,6,25)           -60.0337         estimate D2E/DX2                !
 ! D19   D(4,5,6,26)            59.9999         estimate D2E/DX2                !
 ! D20   D(7,5,6,24)            60.0365         estimate D2E/DX2                !
 ! D21   D(7,5,6,25)          -179.9969         estimate D2E/DX2                !
 ! D22   D(7,5,6,26)           -59.9633         estimate D2E/DX2                !
 ! D23   D(8,5,6,24)           -59.998          estimate D2E/DX2                !
 ! D24   D(8,5,6,25)            59.9686         estimate D2E/DX2                !
 ! D25   D(8,5,6,26)          -179.9979         estimate D2E/DX2                !
 ! D26   D(4,5,7,27)           180.0            estimate D2E/DX2                !
 ! D27   D(4,5,7,28)            60.0344         estimate D2E/DX2                !
 ! D28   D(4,5,7,29)           -59.9983         estimate D2E/DX2                !
 ! D29   D(6,5,7,27)           -60.0005         estimate D2E/DX2                !
 ! D30   D(6,5,7,28)          -179.966          estimate D2E/DX2                !
 ! D31   D(6,5,7,29)            60.0013         estimate D2E/DX2                !
 ! D32   D(8,5,7,27)            59.9997         estimate D2E/DX2                !
 ! D33   D(8,5,7,28)           -59.9659         estimate D2E/DX2                !
 ! D34   D(8,5,7,29)          -179.9986         estimate D2E/DX2                !
 ! D35   D(4,5,8,30)             0.0011         estimate D2E/DX2                !
 ! D36   D(4,5,8,31)           119.9608         estimate D2E/DX2                !
 ! D37   D(4,5,8,32)          -119.9976         estimate D2E/DX2                !
 ! D38   D(6,5,8,30)          -120.0236         estimate D2E/DX2                !
 ! D39   D(6,5,8,31)            -0.064          estimate D2E/DX2                !
 ! D40   D(6,5,8,32)           119.9777         estimate D2E/DX2                !
 ! D41   D(7,5,8,30)           119.9876         estimate D2E/DX2                !
 ! D42   D(7,5,8,31)          -120.0528         estimate D2E/DX2                !
 ! D43   D(7,5,8,32)            -0.0111         estimate D2E/DX2                !
 ! D44   D(10,11,12,33)        179.9997         estimate D2E/DX2                !
 ! D45   D(10,11,12,34)        -60.0375         estimate D2E/DX2                !
 ! D46   D(10,11,12,35)         59.9993         estimate D2E/DX2                !
 ! D47   D(13,11,12,33)         60.0376         estimate D2E/DX2                !
 ! D48   D(13,11,12,34)       -179.9996         estimate D2E/DX2                !
 ! D49   D(13,11,12,35)        -59.9628         estimate D2E/DX2                !
 ! D50   D(14,11,12,33)        -59.9975         estimate D2E/DX2                !
 ! D51   D(14,11,12,34)         59.9653         estimate D2E/DX2                !
 ! D52   D(14,11,12,35)       -179.9979         estimate D2E/DX2                !
 ! D53   D(10,11,13,36)        180.0            estimate D2E/DX2                !
 ! D54   D(10,11,13,37)         60.0344         estimate D2E/DX2                !
 ! D55   D(10,11,13,38)        -60.001          estimate D2E/DX2                !
 ! D56   D(12,11,13,36)        -60.0021         estimate D2E/DX2                !
 ! D57   D(12,11,13,37)       -179.9676         estimate D2E/DX2                !
 ! D58   D(12,11,13,38)         59.9969         estimate D2E/DX2                !
 ! D59   D(14,11,13,36)         59.9997         estimate D2E/DX2                !
 ! D60   D(14,11,13,37)        -59.9659         estimate D2E/DX2                !
 ! D61   D(14,11,13,38)        179.9987         estimate D2E/DX2                !
 ! D62   D(10,11,14,15)          0.0003         estimate D2E/DX2                !
 ! D63   D(10,11,14,39)        119.9608         estimate D2E/DX2                !
 ! D64   D(10,11,14,40)       -119.9976         estimate D2E/DX2                !
 ! D65   D(12,11,14,15)       -120.0245         estimate D2E/DX2                !
 ! D66   D(12,11,14,39)         -0.064          estimate D2E/DX2                !
 ! D67   D(12,11,14,40)        119.9777         estimate D2E/DX2                !
 ! D68   D(13,11,14,15)        119.9867         estimate D2E/DX2                !
 ! D69   D(13,11,14,39)       -120.0528         estimate D2E/DX2                !
 ! D70   D(13,11,14,40)         -0.0111         estimate D2E/DX2                !
 ! D71   D(11,14,15,16)        -59.9989         estimate D2E/DX2                !
 ! D72   D(11,14,15,41)       -179.9649         estimate D2E/DX2                !
 ! D73   D(11,14,15,42)         60.0012         estimate D2E/DX2                !
 ! D74   D(39,14,15,16)       -179.9595         estimate D2E/DX2                !
 ! D75   D(39,14,15,41)         60.0745         estimate D2E/DX2                !
 ! D76   D(39,14,15,42)        -59.9594         estimate D2E/DX2                !
 ! D77   D(40,14,15,16)         60.0021         estimate D2E/DX2                !
 ! D78   D(40,14,15,41)        -59.964          estimate D2E/DX2                !
 ! D79   D(40,14,15,42)       -179.9978         estimate D2E/DX2                !
 ! D80   D(14,15,16,17)        179.9986         estimate D2E/DX2                !
 ! D81   D(14,15,16,43)         -0.0024         estimate D2E/DX2                !
 ! D82   D(41,15,16,17)        -60.035          estimate D2E/DX2                !
 ! D83   D(41,15,16,43)        119.964          estimate D2E/DX2                !
 ! D84   D(42,15,16,17)         59.9982         estimate D2E/DX2                !
 ! D85   D(42,15,16,43)       -120.0028         estimate D2E/DX2                !
 ! D86   D(15,16,17,18)        179.9968         estimate D2E/DX2                !
 ! D87   D(15,16,17,20)         -0.0026         estimate D2E/DX2                !
 ! D88   D(43,16,17,18)         -0.0021         estimate D2E/DX2                !
 ! D89   D(43,16,17,20)        179.9985         estimate D2E/DX2                !
 --------------------------------------------------------------------------------
 Trust Radius=3.00D-01 FncErr=1.00D-07 GrdErr=1.00D-06 EigMax=2.50D+02 EigMin=1.00D-04
 Number of steps in this run=    219 maximum allowed number of steps=    258.
 GradGradGradGradGradGradGradGradGradGradGradGradGradGradGradGradGradGrad

                          Input orientation:                          
 ---------------------------------------------------------------------
 Center     Atomic      Atomic             Coordinates (Angstroms)
 Number     Number       Type             X           Y           Z
 ---------------------------------------------------------------------
      1          6           0       -2.762328    0.136088    0.668639
      2          6           0       -1.425328    0.136088    0.668639
      3          6           0       -0.768828   -1.001012    0.668639
      4          6           0       -0.162828   -2.050612    0.668639
      5         14           0        0.781172   -3.685712    0.668639
      6          6           0        0.327572   -4.672212   -0.866061
      7          6           0        2.629372   -3.341212    0.667539
      8          6           0        0.326872   -4.671312    2.203739
      9          6           0       -0.768828    1.273188    0.668639
     10          6           0       -0.162828    2.322788    0.668639
     11         14           0        0.605306    3.653272    0.668639
     12          6           0        0.151706    4.639772    2.203439
     13          6           0        2.453506    3.308772    0.669739
     14          6           0        0.213734    4.502784   -0.654500
     15          6           0       -0.793066    3.716584   -1.483900
     16          6           0       -0.191166    2.408084   -1.891900
     17          6           0       -0.899166    1.548084   -2.631200
     18          6           0       -0.371266    0.400484   -2.989100
     19          7           0        0.094434   -0.611716   -3.304700
     20          6           0       -2.122566    1.851184   -2.999400
     21          7           0       -3.201466    2.118584   -3.324200
     22          1           0       -3.312328    1.088688    0.668639
     23          1           0       -3.312328   -0.816512    0.668639
     24          1           0        0.884072   -5.636112   -0.866061
     25          1           0       -0.766528   -4.876112   -0.865461
     26          1           0        0.596572   -4.088712   -1.774861
     27          1           0        3.186872   -4.304512    0.667539
     28          1           0        2.897972   -2.757712    1.576439
     29          1           0        2.897272   -2.757712   -0.241561
     30          1           0       -0.408928   -4.096712    2.809839
     31          1           0       -0.121928   -5.643612    1.900439
     32          1           0        1.241872   -4.856912    2.809539
     33          1           0        0.708206    5.603672    2.203439
     34          1           0       -0.942394    4.843672    2.202739
     35          1           0        0.420706    4.056272    3.112239
     36          1           0        3.011006    4.272072    0.669739
     37          1           0        2.722106    2.725272   -0.239161
     38          1           0        2.721406    2.725272    1.578939
     39          1           0       -0.235066    5.475084   -0.351100
     40          1           0        1.128734    4.688384   -1.260300
     41          1           0       -1.060866    4.300584   -2.392700
     42          1           0       -1.708166    3.530984   -0.878100
     43          1           0        0.833734    2.154184   -1.583400
 ---------------------------------------------------------------------
                    Distance matrix (angstroms):
                    1          2          3          4          5
     1  C    0.000000
     2  C    1.337000   0.000000
     3  C    2.295003   1.313007   0.000000
     4  C    3.396919   2.524988   1.211980   0.000000
     5  Si   5.211770   4.413026   3.100018   1.888038   0.000000
     6  C    5.917984   5.343006   4.127361   3.077106   1.879957
     7  C    6.415765   5.341555   4.126051   3.076041   1.880033
     8  C    5.916991   5.342081   4.126523   3.076428   1.879981
     9  C    2.295003   1.313007   2.274200   3.378592   5.195497
    10  C    3.396919   2.524988   3.378592   4.373400   6.082204
    11  Si   4.869450   4.061288   4.852896   5.755373   7.341091
    12  C    5.579460   5.012566   5.917891   6.871374   8.489141
    13  C    6.104986   5.011116   5.381234   5.963908   7.191628
    14  C    5.447539   4.848222   5.745250   6.696230   8.314093
    15  C    4.618590   4.225296   5.185530   6.187986   7.868013
    16  C    4.281262   3.638885   4.302556   5.141705   6.681029
    17  C    4.044013   3.627605   4.171788   4.937787   6.411325
    18  C    4.377915   3.815758   3.937169   4.407990   5.603942
    19  N    4.950528   4.319295   4.084629   4.233678   5.070353
    20  C    4.099434   4.108796   4.839642   5.702551   7.248684
    21  N    4.479497   4.798720   5.620709   6.523670   8.092837
    22  H    1.099976   2.113815   3.291844   4.446859   6.289009
    23  H    1.099976   2.113815   2.550183   3.382655   4.998905
    24  H    6.997845   6.403665   5.154758   4.038207   2.483939
    25  H    5.608817   5.282956   4.167717   3.271294   2.483121
    26  H    5.924680   5.282775   4.167601   3.271274   2.483380
    27  H    7.423740   6.402446   5.153705   4.037395   2.484010
    28  H    6.421618   5.281013   4.165995   3.269952   2.483169
    29  H    6.421341   5.280853   4.165903   3.269964   2.483451
    30  H    5.295264   4.851227   3.781220   2.971839   2.483948
    31  H    6.472556   6.051538   4.846601   3.798507   2.483202
    32  H    6.748861   6.052062   4.847095   3.798941   2.483426
    33  H    6.655426   6.066470   6.939675   7.855086   9.415603
    34  H    5.275127   4.974740   6.045156   7.105796   8.835979
    35  H    5.609878   4.974622   5.741280   6.603463   8.126465
    36  H    7.101954   6.065264   6.487878   7.074571   8.264290
    37  H    6.132454   4.972845   5.186127   5.652965   6.759589
    38  H    6.132199   4.972718   5.186094   5.653010   6.759724
    39  H    5.994314   5.564303   6.577582   7.594813   9.273230
    40  H    6.291627   5.564839   6.300061   7.127623   8.600412
    41  H    5.441488   5.181472   6.128948   7.107458   8.749047
    42  H    3.876723   3.741352   4.879933   5.994554   7.789089
    43  H    4.698516   3.774620   4.194657   4.872897   6.259299
                    6          7          8          9         10
     6  C    0.000000
     7  C    3.069491   0.000000
     8  C    3.069800   3.070925   0.000000
     9  C    6.237402   5.730659   6.236519   0.000000
    10  C    7.178149   6.314846   7.177310   1.211980   0.000000
    11  Si   8.470308   7.281459   8.469519   2.748280   1.536300
    12  C    9.806416   8.496700   9.312731   3.812726   2.796955
    13  C    8.400856   6.652309   8.399849   3.811436   2.795956
    14  C    9.178141   8.313324   9.609702   3.625799   2.577766
    15  C    8.485838   8.133526   9.230912   3.256408   2.640699
    16  C    7.173007   6.896417   8.195149   2.859728   2.562116
    17  C    6.581237   6.872952   7.972496   3.313834   3.468616
    18  C    5.543276   6.031179   7.292193   3.781365   4.137361
    19  N    4.742250   5.445616   6.846696   4.481686   4.946203
    20  C    7.287592   7.936518   8.695709   3.952366   4.185390
    21  N    8.038125   8.929839   9.439807   4.751335   5.021731
    22  H    6.985137   7.411330   6.984118   2.550183   3.382655
    23  H    5.520018   6.455843   5.519039   3.291844   4.446859
    24  H    1.113012   3.265665   3.265729   7.268137   8.172845
    25  H    1.112938   4.029658   3.264576   6.337772   7.385261
    26  H    1.112992   3.264407   4.030064   6.048552   6.903239
    27  H    3.265383   1.112993   3.267117   6.838004   7.425739
    28  H    4.029649   1.112977   3.265873   5.524281   6.000340
    29  H    3.264762   1.112971   4.030920   5.524211   6.000346
    30  H    3.792871   3.793613   1.113070   5.792244   6.771653
    31  H    2.966343   3.793513   1.113005   7.055348   8.061174
    32  H    3.792109   2.968277   1.112954   6.797389   7.622646
    33  H   10.731286   9.276897  10.282058   4.826006   3.725387
    34  H   10.078809   9.061273   9.599268   3.889980   3.052219
    35  H    9.592808   8.097995   8.775243   3.889952   3.052320
    36  H    9.463599   7.622843   9.462655   4.824982   3.724639
    37  H    7.800613   6.134568   8.149501   3.888351   3.051056
    38  H    8.150536   6.135254   7.799591   3.888307   3.051139
    39  H   10.175920   9.325755  10.478183   4.356684   3.313918
    40  H    9.403087   8.393026  10.012315   4.357191   3.314360
    41  H    9.207033   9.021084  10.175853   4.315346   3.753657
    42  H    8.452029   8.272261   8.995375   2.893510   2.498041
    43  H    6.882620   6.204064   7.822194   2.901041   2.468450
                   11         12         13         14         15
    11  Si   0.000000
    12  C    1.880039   0.000000
    13  C    1.880033   3.069541   0.000000
    14  C    1.620400   2.861893   2.862840   0.000000
    15  C    2.567660   3.916802   3.917231   1.523043   0.000000
    16  C    2.956556   4.676515   3.790452   2.466348   1.496970
    17  C    4.193351   5.834090   5.023607   3.725069   2.455595
    18  C    4.991330   6.723654   5.461188   4.756201   3.666069
    19  N    5.851370   7.610585   6.060661   5.761589   4.778823
    20  C    4.913585   6.325984   6.043805   4.241207   2.746639
    21  N    5.726215   6.939376   7.024728   4.947252   3.426470
    22  H    4.682409   5.192816   6.178480   5.083293   4.229178
    23  H    5.943638   6.642754   7.089627   6.517570   5.615075
    24  H    9.419430  10.749511   9.210470  10.163234   9.521945
    25  H    8.774154  10.040585   8.928482   9.432344   8.614963
    26  H    8.118441   9.602667   8.009185   8.672691   7.933372
    27  H    8.366051   9.569296   7.648524   9.389132   9.209048
    28  H    6.868852   7.915672   6.149950   8.055869   8.056422
    29  H    6.868936   8.260685   6.150579   7.751561   7.555032
    30  H    8.104052   8.775431   8.222819   9.291969   8.923640
    31  H    9.406288  10.291485   9.396417  10.468511   9.975843
    32  H    8.798403   9.578247   8.527907  10.032973   9.802011
    33  H    2.484001   1.113012   3.265712   3.102301   4.405836
    34  H    2.483121   1.112938   4.029658   3.101073   3.857970
    35  H    2.483479   1.112992   3.264481   3.798754   4.765829
    36  H    2.484010   3.265430   1.112993   3.103477   4.406551
    37  H    2.483169   4.029710   1.112977   3.102255   3.858563
    38  H    2.483487   3.264762   1.113053   3.799502   4.766046
    39  H    2.250576   2.715328   3.600478   1.113032   2.164930
    40  H    2.250831   3.599227   2.717241   1.112954   2.165111
    41  H    3.544988   4.765488   4.765819   2.164909   1.112965
    42  H    2.785589   3.766221   4.445750   2.165200   1.113036
    43  H    2.714981   4.580771   3.005557   2.600611   2.257758
                   16         17         18         19         20
    16  C    0.000000
    17  C    1.336947   0.000000
    18  C    2.294938   1.312919   0.000000
    19  N    3.346156   2.470947   1.158028   0.000000
    20  C    2.294995   1.313068   2.274135   3.327788   0.000000
    21  N    3.346222   2.471094   3.327791   4.279939   1.158025
    22  H    4.247213   4.113798   4.743683   5.503165   3.930833
    23  H    5.166820   4.722669   4.848709   5.237881   4.688992
    24  H    8.180316   7.609752   6.521016   5.640482   8.345694
    25  H    7.378626   6.663762   5.701626   4.987606   7.186727
    26  H    6.545425   5.894405   4.750154   3.831716   6.646470
    27  H    7.938565   7.863222   6.940341   6.243284   8.917912
    28  H    6.946768   7.117749   6.442535   6.024171   8.208899
    29  H    6.240794   6.217973   5.310980   4.673758   7.351623
    30  H    8.029081   7.855505   7.338520   7.055931   8.488891
    31  H    8.900361   8.535827   7.778230   7.242946   9.175126
    32  H    8.771390   8.672350   7.991661   7.531415   9.490088
    33  H    5.271855   6.511925   7.429730   8.327506   7.011702
    34  H    4.823122   5.850618   6.857354   7.821007   6.116375
    35  H    5.303991   6.404698   7.156699   7.941893   6.977304
    36  H    4.504481   5.797047   6.309997   6.939304   6.758464
    37  H    3.364418   4.496803   4.747184   5.238099   5.643917
    38  H    4.542071   5.676230   5.986338   6.471970   6.722297
    39  H    3.432562   4.589250   5.720940   6.773585   4.869168
    40  H    2.709395   3.981611   4.860539   5.774115   4.652432
    41  H    2.142133   2.767541   4.005249   5.128075   2.737673
    42  H    2.142425   2.767622   4.005453   5.128325   2.737402
    43  H    1.100026   2.113808   2.550192   3.340605   3.291895
                   21         22         23         24         25
    21  N    0.000000
    22  H    4.125014   0.000000
    23  H    4.956798   1.905200   0.000000
    24  H    9.103262   8.073909   6.572185   0.000000
    25  H    7.803851   6.664338   5.031393   1.817163   0.000000
    26  H    7.440165   6.932219   5.653095   1.817421   1.817979
    27  H    9.899545   8.445484   7.376025   3.070501   4.278573
    28  H    9.219418   7.361163   6.569641   4.278643   4.886620
    29  H    8.394970   7.360869   6.569312   3.567655   4.277885
    30  H    9.168130   6.316870   4.875877   4.189731   3.774013
    31  H    9.850487   7.551149   5.915816   2.943742   2.941899
    32  H   10.296773   7.789374   6.453605   3.774283   4.188038
    33  H    7.614865   6.237418   7.729105  11.652703  11.019023
    34  H    6.563274   4.697867   6.325167  11.071557  10.194066
    35  H    7.635608   5.358477   6.606871  10.487320   9.849828
    36  H    7.693105   7.079442   8.116541  10.249616  10.015781
    37  H    6.706284   6.317983   7.055688   8.583945   8.387125
    38  H    7.712928   6.317674   7.055411   8.903177   8.713312
    39  H    5.376332   5.454345   7.077683  11.179281  10.377585
    40  H    5.441892   6.033378   7.331284  10.334916   9.758458
    41  H    3.195463   4.975656   6.373818  10.239694   9.307569
    42  H    3.195031   3.306138   4.885331   9.526567   8.459675
    43  H    4.394825   4.837023   5.575531   7.823415   7.245781
                   26         27         28         29         30
    26  H    0.000000
    27  H    3.566727   0.000000
    28  H    4.277758   1.817183   0.000000
    29  H    3.068516   1.817394   1.818000   0.000000
    30  H    4.693673   4.190753   3.774889   4.694137   0.000000
    31  H    4.054847   3.776425   4.189653   4.693842   1.817217
    32  H    4.692895   2.945562   2.944460   4.056624   1.817428
    33  H   10.477673  10.328353   8.666080   8.982359   9.783310
    34  H    9.898343  10.153666   8.539420   8.859947   8.976838
    35  H    9.500286   9.139526   7.411201   7.988224   8.200664
    36  H    9.039263   8.578387   7.088917   7.089518   9.290453
    37  H    7.301140   7.103237   5.778446   5.485782   8.101805
    38  H    7.886271   7.103884   5.485827   5.779988   7.606154
    39  H    9.704891  10.410945   9.017220   8.809226  10.081718
    40  H    8.808256   9.424684   8.162208   7.720745   9.803486
    41  H    8.573745  10.072537   9.013656   8.373398   9.899799
    42  H    8.010977   9.367251   8.172451   7.820673   8.571503
    43  H    6.250332   7.233169   6.194544   5.494128   7.740701
                   31         32         33         34         35
    31  H    0.000000
    32  H    1.818051   0.000000
    33  H   11.281947  10.491710   0.000000
    34  H   10.523672   9.961955   1.817163   0.000000
    35  H    9.790335   8.956047   1.817421   1.818029   0.000000
    36  H   10.471422   9.541851   3.070551   4.278573   3.566795
    37  H    9.094209   8.305130   4.278700   4.886620   4.277836
    38  H    8.844554   7.822590   3.567655   4.277870   3.068516
    39  H   11.344938  10.905096   2.726163   2.724167   3.799708
    40  H   10.876790  10.377334   3.607227   4.038109   4.474368
    41  H   10.871967  10.780799   5.094325   4.628935   5.706058
    42  H    9.716462   9.625913   4.430663   3.435277   4.553112
    43  H    8.593954   8.283716   5.123951   4.972205   5.083066
                   36         37         38         39         40
    36  H    0.000000
    37  H    1.817183   0.000000
    38  H    1.817444   1.818100   0.000000
    39  H    3.609201   4.039661   4.475181   0.000000
    40  H    2.727877   2.726787   3.801538   1.818101   0.000000
    41  H    5.095045   4.629278   5.706234   2.495902   2.495409
    42  H    5.021514   4.548046   5.129066   2.495451   3.087661
    43  H    3.781878   2.387272   3.726907   3.699902   2.571690
                   41         42         43
    41  H    0.000000
    42  H    1.818047   0.000000
    43  H    2.975149   2.975615   0.000000
 Stoichiometry    C17H22N2Si2
 Framework group  C1[X(C17H22N2Si2)]
 Deg. of freedom   123
 Full point group                 C1      NOp   1
 Largest Abelian subgroup         C1      NOp   1
 Largest concise Abelian subgroup C1      NOp   1
                         Standard orientation:                         
 ---------------------------------------------------------------------
 Center     Atomic      Atomic             Coordinates (Angstroms)
 Number     Number       Type             X           Y           Z
 ---------------------------------------------------------------------
      1          6           0       -0.143419    0.692791    2.741811
      2          6           0       -0.300354   -0.006058    1.612851
      3          6           0       -1.496154   -0.148085    1.089517
      4          6           0       -2.599940   -0.279192    0.606438
      5         14           0       -4.319446   -0.483411   -0.146077
      6          6           0       -5.029443    1.208062   -0.557251
      7          6           0       -4.197298   -1.509480   -1.716678
      8          6           0       -5.443197   -1.351842    1.085726
      9          6           0        0.741329   -0.550336    1.027490
     10          6           0        1.702853   -1.052741    0.487158
     11         14           0        2.921694   -1.689575   -0.197740
     12          6           0        3.738162   -2.906938    0.979524
     13          6           0        2.365669   -2.595611   -1.748372
     14          6           0        3.982205   -0.531705   -0.598176
     15          6           0        3.438924    0.825301   -0.170340
     16          6           0        2.136020    1.082388   -0.861184
     17          6           0        1.472885    2.221124   -0.635437
     18          6           0        0.330201    2.446651   -1.241379
     19          7           0       -0.677684    2.645463   -1.775861
     20          6           0        1.964435    3.114050    0.192338
     21          7           0        2.398037    3.901566    0.922290
     22          1           0        0.858359    0.811783    3.180248
     23          1           0       -1.016082    1.148767    3.232211
     24          1           0       -6.043102    1.087670   -1.000869
     25          1           0       -5.101709    1.815512    0.372487
     26          1           0       -4.364161    1.722158   -1.286536
     27          1           0       -5.210484   -1.630501   -2.161157
     28          1           0       -3.777536   -2.511077   -1.473116
     29          1           0       -3.531847   -0.994559   -2.445195
     30          1           0       -4.873390   -1.574339    2.015639
     31          1           0       -6.306145   -0.692336    1.328938
     32          1           0       -5.815044   -2.302501    0.642280
     33          1           0        4.621179   -3.368311    0.483328
     34          1           0        4.067288   -2.370534    1.897444
     35          1           0        3.009731   -3.702246    1.254524
     36          1           0        3.247979   -3.057401   -2.245397
     37          1           0        1.882852   -1.874809   -2.445544
     38          1           0        1.637313   -3.390678   -1.472230
     39          1           0        4.950498   -0.722119   -0.083403
     40          1           0        4.139250   -0.537586   -1.699978
     41          1           0        4.167706    1.619893   -0.446367
     42          1           0        3.281891    0.831234    0.931546
     43          1           0        1.724241    0.334304   -1.554629
 ---------------------------------------------------------------------
 Rotational constants (GHZ):           0.3486535           0.1504894           0.1273516
 Standard basis: 6-31+G(d,p) (6D, 7F)
 There are   517 symmetry adapted cartesian basis functions of A   symmetry.
 There are   517 symmetry adapted basis functions of A   symmetry.
   517 basis functions,   874 primitive gaussians,   517 cartesian basis functions
    83 alpha electrons       83 beta electrons
       nuclear repulsion energy      1798.4443120297 Hartrees.
 NAtoms=   43 NActive=   43 NUniq=   43 SFac= 1.00D+00 NAtFMM=   60 NAOKFM=F Big=F
 Integral buffers will be    131072 words long.
 Raffenetti 2 integral format.
 Two-electron integral symmetry is turned on.
 One-electron integrals computed using PRISM.
 NBasis=   517 RedAO= T EigKep=  2.41D-06  NBF=   517
 NBsUse=   513 1.00D-06 EigRej=  8.67D-07 NBFU=   513
 ExpMin= 3.31D-02 ExpMax= 1.61D+04 ExpMxC= 2.43D+03 IAcc=3 IRadAn=         5 AccDes= 0.00D+00
 Harris functional with IExCor=  402 and IRadAn=       5 diagonalized for initial guess.
 HarFok:  IExCor=  402 AccDes= 0.00D+00 IRadAn=         5 IDoV= 1 UseB2=F ITyADJ=14
 ICtDFT=  3500011 ScaDFX=  1.000000  1.000000  1.000000  1.000000
 FoFCou: FMM=F IPFlag=           0 FMFlag=      100000 FMFlg1=           0
         NFxFlg=           0 DoJE=T BraDBF=F KetDBF=T FulRan=T
         wScrn=  0.000000 ICntrl=       500 IOpCl=  0 I1Cent=   200000004 NGrid=           0
         NMat0=    1 NMatS0=      1 NMatT0=    0 NMatD0=    1 NMtDS0=    0 NMtDT0=    0
 Petite list used in FoFCou.
 Requested convergence on RMS density matrix=1.00D-08 within 128 cycles.
 Requested convergence on MAX density matrix=1.00D-06.
 Requested convergence on             energy=1.00D-06.
 No special actions if energy rises.
 SCF Done:  E(RB3LYP) =  -1349.33124808     A.U. after   17 cycles
            NFock= 17  Conv=0.58D-08     -V/T= 2.0052

 **********************************************************************

            Population analysis using the SCF Density.

 **********************************************************************

 Orbital symmetries:
       Occupied  (A) (A) (A) (A) (A) (A) (A) (A) (A) (A) (A) (A)
                 (A) (A) (A) (A) (A) (A) (A) (A) (A) (A) (A) (A)
                 (A) (A) (A) (A) (A) (A) (A) (A) (A) (A) (A) (A)
                 (A) (A) (A) (A) (A) (A) (A) (A) (A) (A) (A) (A)
                 (A) (A) (A) (A) (A) (A) (A) (A) (A) (A) (A) (A)
                 (A) (A) (A) (A) (A) (A) (A) (A) (A) (A) (A) (A)
                 (A) (A) (A) (A) (A) (A) (A) (A) (A) (A) (A)
       Virtual   (A) (A) (A) (A) (A) (A) (A) (A) (A) (A) (A) (A)
                 (A) (A) (A) (A) (A) (A) (A) (A) (A) (A) (A) (A)
                 (A) (A) (A) (A) (A) (A) (A) (A) (A) (A) (A) (A)
                 (A) (A) (A) (A) (A) (A) (A) (A) (A) (A) (A) (A)
                 (A) (A) (A) (A) (A) (A) (A) (A) (A) (A) (A) (A)
                 (A) (A) (A) (A) (A) (A) (A) (A) (A) (A) (A) (A)
                 (A) (A) (A) (A) (A) (A) (A) (A) (A) (A) (A) (A)
                 (A) (A) (A) (A) (A) (A) (A) (A) (A) (A) (A) (A)
                 (A) (A) (A) (A) (A) (A) (A) (A) (A) (A) (A) (A)
                 (A) (A) (A) (A) (A) (A) (A) (A) (A) (A) (A) (A)
                 (A) (A) (A) (A) (A) (A) (A) (A) (A) (A) (A) (A)
                 (A) (A) (A) (A) (A) (A) (A) (A) (A) (A) (A) (A)
                 (A) (A) (A) (A) (A) (A) (A) (A) (A) (A) (A) (A)
                 (A) (A) (A) (A) (A) (A) (A) (A) (A) (A) (A) (A)
                 (A) (A) (A) (A) (A) (A) (A) (A) (A) (A) (A) (A)
                 (A) (A) (A) (A) (A) (A) (A) (A) (A) (A) (A) (A)
                 (A) (A) (A) (A) (A) (A) (A) (A) (A) (A) (A) (A)
                 (A) (A) (A) (A) (A) (A) (A) (A) (A) (A) (A) (A)
                 (A) (A) (A) (A) (A) (A) (A) (A) (A) (A) (A) (A)
                 (A) (A) (A) (A) (A) (A) (A) (A) (A) (A) (A) (A)
                 (A) (A) (A) (A) (A) (A) (A) (A) (A) (A) (A) (A)
                 (A) (A) (A) (A) (A) (A) (A) (A) (A) (A) (A) (A)
                 (A) (A) (A) (A) (A) (A) (A) (A) (A) (A) (A) (A)
                 (A) (A) (A) (A) (A) (A) (A) (A) (A) (A) (A) (A)
                 (A) (A) (A) (A) (A) (A) (A) (A) (A) (A) (A) (A)
                 (A) (A) (A) (A) (A) (A) (A) (A) (A) (A) (A) (A)
                 (A) (A) (A) (A) (A) (A) (A) (A) (A) (A) (A) (A)
                 (A) (A) (A) (A) (A) (A) (A) (A) (A) (A) (A) (A)
                 (A) (A) (A) (A) (A) (A) (A) (A) (A) (A) (A) (A)
                 (A) (A) (A) (A) (A) (A) (A) (A) (A) (A) (A) (A)
                 (A) (A) (A) (A) (A) (A) (A) (A) (A) (A) (A) (A)
                 (A) (A) (A) (A) (A) (A) (A) (A) (A) (A) (A) (A)
                 (A) (A) (A) (A) (A) (A) (A) (A) (A) (A) (A) (A)
                 (A) (A) (A) (A) (A) (A) (A) (A) (A) (A) (A) (A)
                 (A) (A) (A) (A) (A) (A) (A) (A) (A) (A) (A) (A)
                 (A) (A) (A) (A) (A) (A) (A) (A) (A) (A)
 The electronic state is 1-A.
 Alpha  occ. eigenvalues --  -66.14358 -66.08799 -14.35802 -14.35257 -10.26513
 Alpha  occ. eigenvalues --  -10.25262 -10.24447 -10.24024 -10.23908 -10.23166
 Alpha  occ. eigenvalues --  -10.23113 -10.22249 -10.19721 -10.18675 -10.17741
 Alpha  occ. eigenvalues --  -10.17617 -10.17573 -10.17573 -10.17463 -10.17276
 Alpha  occ. eigenvalues --  -10.17059  -5.28640  -5.25562  -3.64645  -3.64465
 Alpha  occ. eigenvalues --   -3.64457  -3.61490  -3.61255  -3.61186  -0.95279
 Alpha  occ. eigenvalues --   -0.92257  -0.89668  -0.88275  -0.82777  -0.77724
 Alpha  occ. eigenvalues --   -0.74963  -0.73059  -0.71883  -0.69791  -0.68418
 Alpha  occ. eigenvalues --   -0.68103  -0.67862  -0.67341  -0.66308  -0.61633
 Alpha  occ. eigenvalues --   -0.61042  -0.55668  -0.53643  -0.50597  -0.49131
 Alpha  occ. eigenvalues --   -0.48981  -0.45861  -0.44218  -0.43043  -0.42659
 Alpha  occ. eigenvalues --   -0.42501  -0.42085  -0.41676  -0.41531  -0.41327
 Alpha  occ. eigenvalues --   -0.41195  -0.40347  -0.39945  -0.39819  -0.39639
 Alpha  occ. eigenvalues --   -0.38706  -0.38402  -0.38284  -0.37845  -0.36962
 Alpha  occ. eigenvalues --   -0.35995  -0.35919  -0.35610  -0.34654  -0.33749
 Alpha  occ. eigenvalues --   -0.32685  -0.31545  -0.31159  -0.30172  -0.28908
 Alpha  occ. eigenvalues --   -0.27757  -0.27258  -0.24837
 Alpha virt. eigenvalues --   -0.10234  -0.08032  -0.03091  -0.01823  -0.01345
 Alpha virt. eigenvalues --   -0.00912  -0.00546  -0.00105   0.00535   0.00773
 Alpha virt. eigenvalues --    0.01131   0.02429   0.02546   0.02673   0.03027
 Alpha virt. eigenvalues --    0.03267   0.03439   0.03710   0.04281   0.04473
 Alpha virt. eigenvalues --    0.04976   0.05567   0.05802   0.06069   0.06261
 Alpha virt. eigenvalues --    0.06426   0.06685   0.06735   0.06987   0.07546
 Alpha virt. eigenvalues --    0.07717   0.08028   0.08154   0.08731   0.08881
 Alpha virt. eigenvalues --    0.09095   0.09413   0.09884   0.10070   0.10276
 Alpha virt. eigenvalues --    0.10534   0.10606   0.10802   0.11561   0.11744
 Alpha virt. eigenvalues --    0.11863   0.12318   0.12422   0.12624   0.13217
 Alpha virt. eigenvalues --    0.13303   0.13818   0.13905   0.14311   0.14587
 Alpha virt. eigenvalues --    0.14950   0.15319   0.15552   0.15673   0.16183
 Alpha virt. eigenvalues --    0.16304   0.16675   0.16885   0.17067   0.17412
 Alpha virt. eigenvalues --    0.17791   0.18116   0.18376   0.18644   0.19077
 Alpha virt. eigenvalues --    0.19259   0.19431   0.19688   0.19852   0.20364
 Alpha virt. eigenvalues --    0.20469   0.21106   0.21251   0.21834   0.22124
 Alpha virt. eigenvalues --    0.22278   0.22387   0.23291   0.23530   0.23742
 Alpha virt. eigenvalues --    0.24074   0.24405   0.25047   0.25318   0.25699
 Alpha virt. eigenvalues --    0.26118   0.26332   0.26847   0.27042   0.27155
 Alpha virt. eigenvalues --    0.27643   0.27934   0.28165   0.28482   0.29018
 Alpha virt. eigenvalues --    0.29440   0.29920   0.30410   0.30725   0.30852
 Alpha virt. eigenvalues --    0.31259   0.31413   0.32101   0.32750   0.33229
 Alpha virt. eigenvalues --    0.33785   0.34211   0.34516   0.34867   0.34991
 Alpha virt. eigenvalues --    0.35427   0.36031   0.36605   0.37237   0.37930
 Alpha virt. eigenvalues --    0.38879   0.40195   0.41492   0.42507   0.43454
 Alpha virt. eigenvalues --    0.43863   0.45246   0.46098   0.46535   0.46966
 Alpha virt. eigenvalues --    0.48551   0.49649   0.51203   0.52950   0.54968
 Alpha virt. eigenvalues --    0.55460   0.55743   0.57269   0.60273   0.62555
 Alpha virt. eigenvalues --    0.63375   0.66042   0.67834   0.67987   0.68401
 Alpha virt. eigenvalues --    0.68690   0.70029   0.71136   0.72362   0.72436
 Alpha virt. eigenvalues --    0.72837   0.72963   0.74145   0.74723   0.75268
 Alpha virt. eigenvalues --    0.76150   0.76982   0.77579   0.77736   0.78008
 Alpha virt. eigenvalues --    0.78108   0.78849   0.79431   0.79666   0.80259
 Alpha virt. eigenvalues --    0.81085   0.81285   0.81382   0.81743   0.82135
 Alpha virt. eigenvalues --    0.82583   0.82630   0.83543   0.84437   0.85071
 Alpha virt. eigenvalues --    0.86118   0.86707   0.87008   0.88887   0.89541
 Alpha virt. eigenvalues --    0.90631   0.91630   0.91746   0.92070   0.92858
 Alpha virt. eigenvalues --    0.93724   0.94029   0.94564   0.95076   0.96397
 Alpha virt. eigenvalues --    0.96994   0.97325   0.97903   0.98227   0.98553
 Alpha virt. eigenvalues --    0.98795   0.99907   1.00137   1.01125   1.01448
 Alpha virt. eigenvalues --    1.01672   1.02257   1.03157   1.03645   1.04137
 Alpha virt. eigenvalues --    1.04288   1.05075   1.05896   1.06105   1.06674
 Alpha virt. eigenvalues --    1.08166   1.08228   1.09537   1.10529   1.11097
 Alpha virt. eigenvalues --    1.11702   1.13050   1.14094   1.14697   1.15429
 Alpha virt. eigenvalues --    1.16360   1.16743   1.17224   1.17677   1.19390
 Alpha virt. eigenvalues --    1.19621   1.22548   1.24802   1.26581   1.27576
 Alpha virt. eigenvalues --    1.29590   1.29932   1.30695   1.31041   1.31868
 Alpha virt. eigenvalues --    1.32695   1.33580   1.34997   1.35874   1.37469
 Alpha virt. eigenvalues --    1.39256   1.41210   1.42206   1.43373   1.44422
 Alpha virt. eigenvalues --    1.45023   1.45442   1.46696   1.47620   1.48456
 Alpha virt. eigenvalues --    1.48666   1.51573   1.52437   1.52884   1.54894
 Alpha virt. eigenvalues --    1.54957   1.55816   1.56945   1.58518   1.60272
 Alpha virt. eigenvalues --    1.61318   1.62071   1.62559   1.63757   1.63952
 Alpha virt. eigenvalues --    1.66341   1.67979   1.72575   1.74798   1.75561
 Alpha virt. eigenvalues --    1.76398   1.77575   1.79735   1.79908   1.80595
 Alpha virt. eigenvalues --    1.80884   1.83228   1.85757   1.87558   1.87887
 Alpha virt. eigenvalues --    1.89364   1.91433   1.92534   1.93349   1.93513
 Alpha virt. eigenvalues --    1.94792   1.95118   1.97328   1.98807   2.01620
 Alpha virt. eigenvalues --    2.02702   2.02765   2.02960   2.03051   2.03458
 Alpha virt. eigenvalues --    2.03509   2.03832   2.05908   2.06315   2.06428
 Alpha virt. eigenvalues --    2.06808   2.07401   2.07994   2.08281   2.08470
 Alpha virt. eigenvalues --    2.09385   2.09669   2.09880   2.10127   2.10772
 Alpha virt. eigenvalues --    2.11542   2.11712   2.12637   2.14003   2.14689
 Alpha virt. eigenvalues --    2.17186   2.20532   2.20823   2.21286   2.23778
 Alpha virt. eigenvalues --    2.25019   2.25652   2.27048   2.27728   2.30974
 Alpha virt. eigenvalues --    2.31767   2.33890   2.34270   2.34668   2.34928
 Alpha virt. eigenvalues --    2.35407   2.37241   2.37367   2.39188   2.39530
 Alpha virt. eigenvalues --    2.39626   2.42166   2.43584   2.46611   2.47498
 Alpha virt. eigenvalues --    2.48236   2.49923   2.50434   2.51453   2.52500
 Alpha virt. eigenvalues --    2.53563   2.56509   2.58903   2.59593   2.59972
 Alpha virt. eigenvalues --    2.62087   2.62159   2.63142   2.65930   2.66380
 Alpha virt. eigenvalues --    2.67432   2.70409   2.74480   2.77710   2.78502
 Alpha virt. eigenvalues --    2.78628   2.79368   2.79585   2.80099   2.80675
 Alpha virt. eigenvalues --    2.80923   2.81285   2.82153   2.82353   2.82537
 Alpha virt. eigenvalues --    2.83006   2.83396   2.83704   2.85284   2.92362
 Alpha virt. eigenvalues --    2.98868   2.99477   3.01200   3.02338   3.05269
 Alpha virt. eigenvalues --    3.12040   3.14308   3.18677   3.19208   3.19607
 Alpha virt. eigenvalues --    3.19954   3.20388   3.21961   3.23182   3.24614
 Alpha virt. eigenvalues --    3.29910   3.32430   3.35579   3.36358   3.40184
 Alpha virt. eigenvalues --    3.40464   3.40586   3.41122   3.41297   3.41631
 Alpha virt. eigenvalues --    3.41932   3.42211   3.42579   3.42878   3.43717
 Alpha virt. eigenvalues --    3.45905   3.50145   3.50896   3.59005   3.64249
 Alpha virt. eigenvalues --    3.72950   4.30110   4.32507   4.35368   4.43905
 Alpha virt. eigenvalues --    4.46315   4.47050   4.47682   4.47870   4.50579
 Alpha virt. eigenvalues --    4.51934   4.52528   4.53199   4.56238   4.62164
 Alpha virt. eigenvalues --    4.69769   4.72231   4.83231   4.96481   5.12582
          Condensed to atoms (all electrons):
               1          2          3          4          5          6
     1  C    8.697729  -1.487256  -0.016249  -0.379531  -0.041388   0.005853
     2  C   -1.487256   8.219160  -0.053925  -0.101882  -0.016081  -0.002776
     3  C   -0.016249  -0.053925   5.682250   0.127476  -0.150064  -0.014668
     4  C   -0.379531  -0.101882   0.127476   7.187830   0.292544  -0.058722
     5  Si  -0.041388  -0.016081  -0.150064   0.292544  12.283159   0.269212
     6  C    0.005853  -0.002776  -0.014668  -0.058722   0.269212   5.386803
     7  C   -0.006193  -0.001825  -0.015533  -0.051098   0.253358  -0.052672
     8  C    0.010185  -0.014247   0.003321  -0.068072   0.118907  -0.029066
     9  C   -0.273608   0.475586  -0.319114   0.084037   0.009241  -0.001764
    10  C   -0.620596  -0.286113   0.184618  -0.095221   0.000426  -0.001028
    11  Si  -0.165722  -0.196339   0.007120  -0.024967  -0.006175  -0.000259
    12  C    0.014263  -0.033846   0.006718  -0.005737  -0.000290   0.000005
    13  C   -0.023168  -0.017928   0.018766   0.001747   0.002058   0.000071
    14  C    0.003275   0.012339   0.012609   0.001569   0.001392   0.000032
    15  C    0.028450  -0.031156   0.079306   0.004007   0.003566  -0.000242
    16  C   -0.350067   0.104841  -0.136914  -0.005416  -0.023009   0.005049
    17  C    0.368732  -0.473375   0.243771  -0.023773   0.013836  -0.003362
    18  C    0.601357   0.133584  -0.180973  -0.062308  -0.039596  -0.001300
    19  N   -0.011463  -0.010377   0.001950  -0.005074   0.003203   0.000320
    20  C   -0.697432   0.307394  -0.011260   0.085002   0.032819  -0.001664
    21  N    0.027480  -0.035306   0.002389  -0.002609  -0.000862  -0.000020
    22  H    0.416688  -0.078453   0.015147  -0.005701  -0.000623  -0.000023
    23  H    0.452671  -0.093838  -0.009297   0.004915  -0.000932   0.000143
    24  H   -0.000032  -0.000434   0.003922   0.014464  -0.040703   0.391389
    25  H    0.000358  -0.001198   0.001229  -0.016566  -0.023478   0.388324
    26  H   -0.000350  -0.001367  -0.000738  -0.018626  -0.025763   0.397189
    27  H    0.000039   0.000246   0.002759   0.014340  -0.037783  -0.005386
    28  H   -0.000061  -0.001079  -0.000511  -0.010154  -0.028396   0.010428
    29  H   -0.000173  -0.002465   0.000254  -0.015137  -0.035864  -0.001759
    30  H   -0.000580  -0.000111   0.001825   0.001541  -0.041381   0.002597
    31  H    0.000118  -0.000795   0.003716  -0.004738  -0.029658   0.000997
    32  H   -0.000261   0.000035   0.000044   0.001485  -0.029585   0.000564
    33  H   -0.000225  -0.001202   0.000414  -0.000024  -0.000001  -0.000000
    34  H    0.001676  -0.002635   0.000092  -0.000093  -0.000002  -0.000000
    35  H   -0.001266  -0.002581  -0.000440   0.000019  -0.000013   0.000000
    36  H    0.000082  -0.000826   0.000139  -0.000090  -0.000001   0.000000
    37  H   -0.000445  -0.002834  -0.000128   0.000159   0.000166   0.000001
    38  H    0.000030  -0.002630   0.000305  -0.000408  -0.000166   0.000002
    39  H   -0.000129  -0.002749   0.000449  -0.000046   0.000000  -0.000000
    40  H   -0.000317  -0.002478   0.000448  -0.000028   0.000010  -0.000000
    41  H    0.000399  -0.000600  -0.000680  -0.000063  -0.000014   0.000000
    42  H    0.000590  -0.000566   0.000749   0.000591   0.000057  -0.000001
    43  H   -0.005831  -0.012056   0.005301   0.002699   0.001099   0.000001
               7          8          9         10         11         12
     1  C   -0.006193   0.010185  -0.273608  -0.620596  -0.165722   0.014263
     2  C   -0.001825  -0.014247   0.475586  -0.286113  -0.196339  -0.033846
     3  C   -0.015533   0.003321  -0.319114   0.184618   0.007120   0.006718
     4  C   -0.051098  -0.068072   0.084037  -0.095221  -0.024967  -0.005737
     5  Si   0.253358   0.118907   0.009241   0.000426  -0.006175  -0.000290
     6  C   -0.052672  -0.029066  -0.001764  -0.001028  -0.000259   0.000005
     7  C    5.392328  -0.019213   0.007277  -0.002812   0.001000  -0.000050
     8  C   -0.019213   5.562515  -0.000191  -0.002723   0.000668  -0.000029
     9  C    0.007277  -0.000191   6.795875  -0.877496  -0.689716  -0.041133
    10  C   -0.002812  -0.002723  -0.877496   8.719408   0.120087  -0.051043
    11  Si   0.001000   0.000668  -0.689716   0.120087  14.722315   0.241933
    12  C   -0.000050  -0.000029  -0.041133  -0.051043   0.241933   5.407125
    13  C   -0.000227  -0.000044  -0.042790  -0.010782   0.003210  -0.050294
    14  C   -0.000084  -0.000019   0.048612   0.080356  -0.294779  -0.090191
    15  C   -0.000137  -0.000119  -0.272410  -0.379821  -0.056248   0.016917
    16  C    0.003089   0.000081   0.358419   0.528878   0.050044   0.011208
    17  C   -0.002921   0.000217  -0.147162  -0.218489   0.148288  -0.003927
    18  C   -0.001004  -0.000586  -0.445559  -0.072679  -0.299262   0.010112
    19  N    0.001071   0.000135   0.010881  -0.000266   0.007233  -0.000383
    20  C    0.000023   0.000169   0.447566   0.055241  -0.009982  -0.011333
    21  N   -0.000010   0.000001  -0.006897  -0.003168   0.002685   0.000524
    22  H    0.000022  -0.000036  -0.007263   0.007839   0.000400   0.000457
    23  H    0.000072   0.000295   0.000906  -0.005122  -0.001499  -0.000050
    24  H   -0.007070  -0.003676   0.000207  -0.000013   0.000002  -0.000000
    25  H    0.010695  -0.001135   0.000116  -0.000059  -0.000004  -0.000000
    26  H   -0.001559   0.011340  -0.000054   0.000003   0.000009   0.000000
    27  H    0.390707  -0.005239  -0.000235   0.000023  -0.000049  -0.000000
    28  H    0.390146  -0.001816   0.000309  -0.000089  -0.000027   0.000001
    29  H    0.401863   0.011102   0.001476  -0.000334   0.000088  -0.000001
    30  H    0.002338   0.393868   0.000237   0.000038   0.000030  -0.000000
    31  H    0.000614   0.392429   0.000179  -0.000034  -0.000003  -0.000000
    32  H    0.000111   0.389588   0.000007   0.000024   0.000006   0.000000
    33  H   -0.000000  -0.000000   0.007858  -0.013260  -0.040056   0.409420
    34  H   -0.000000   0.000000   0.004208  -0.029151  -0.022362   0.406204
    35  H   -0.000000   0.000001  -0.012118  -0.016316  -0.029675   0.409935
    36  H   -0.000002  -0.000000   0.008756  -0.013498  -0.072951  -0.009946
    37  H   -0.000016   0.000001  -0.001962  -0.031225  -0.028388   0.009791
    38  H   -0.000013   0.000002  -0.003400  -0.029242  -0.036006  -0.004825
    39  H    0.000000  -0.000000   0.009276  -0.026384  -0.043932   0.007917
    40  H    0.000000  -0.000000   0.003182  -0.028686  -0.050135  -0.001605
    41  H   -0.000000   0.000000  -0.004678  -0.003240   0.038320   0.000469
    42  H    0.000000   0.000000   0.005452  -0.016563  -0.016529  -0.003697
    43  H   -0.000077   0.000004   0.019797  -0.063054   0.008955   0.000747
              13         14         15         16         17         18
     1  C   -0.023168   0.003275   0.028450  -0.350067   0.368732   0.601357
     2  C   -0.017928   0.012339  -0.031156   0.104841  -0.473375   0.133584
     3  C    0.018766   0.012609   0.079306  -0.136914   0.243771  -0.180973
     4  C    0.001747   0.001569   0.004007  -0.005416  -0.023773  -0.062308
     5  Si   0.002058   0.001392   0.003566  -0.023009   0.013836  -0.039596
     6  C    0.000071   0.000032  -0.000242   0.005049  -0.003362  -0.001300
     7  C   -0.000227  -0.000084  -0.000137   0.003089  -0.002921  -0.001004
     8  C   -0.000044  -0.000019  -0.000119   0.000081   0.000217  -0.000586
     9  C   -0.042790   0.048612  -0.272410   0.358419  -0.147162  -0.445559
    10  C   -0.010782   0.080356  -0.379821   0.528878  -0.218489  -0.072679
    11  Si   0.003210  -0.294779  -0.056248   0.050044   0.148288  -0.299262
    12  C   -0.050294  -0.090191   0.016917   0.011208  -0.003927   0.010112
    13  C    5.444246  -0.044154   0.064439   0.025868  -0.038044   0.043197
    14  C   -0.044154   6.104780  -0.027891  -0.404465   0.101386  -0.151470
    15  C    0.064439  -0.027891   8.350471  -2.846470   2.202206  -0.076383
    16  C    0.025868  -0.404465  -2.846470  17.077762  -5.009990  -2.415888
    17  C   -0.038044   0.101386   2.202206  -5.009990  16.867990  -4.539532
    18  C    0.043197  -0.151470  -0.076383  -2.415888  -4.539532  24.472995
    19  N   -0.001756   0.012102   0.020760  -0.046513   0.396791  -0.887292
    20  C   -0.023660   0.241713  -1.577251  -1.504876  -5.724067 -10.107067
    21  N    0.000331  -0.009003   0.069863  -0.015388   0.375571   0.547204
    22  H   -0.000031  -0.001610  -0.004244  -0.010450   0.015038   0.005913
    23  H    0.000065  -0.000103  -0.000914  -0.003500  -0.001582   0.003337
    24  H    0.000000  -0.000000   0.000000  -0.000028   0.000054   0.000125
    25  H    0.000000   0.000001   0.000000   0.000131   0.000276  -0.000902
    26  H    0.000001  -0.000001  -0.000009   0.000127  -0.002351   0.002176
    27  H    0.000003   0.000000  -0.000001  -0.000000  -0.000066   0.000126
    28  H   -0.000009   0.000002   0.000004   0.000041   0.000239  -0.000303
    29  H    0.000000  -0.000016   0.000015  -0.000083  -0.000379   0.000445
    30  H   -0.000001  -0.000001  -0.000000  -0.000021  -0.000006   0.000036
    31  H    0.000000  -0.000000   0.000000  -0.000001   0.000005  -0.000019
    32  H   -0.000000   0.000000  -0.000000   0.000005   0.000005  -0.000021
    33  H   -0.007589  -0.004719   0.008065  -0.003194   0.001989   0.000034
    34  H    0.006205  -0.008530   0.012056  -0.007564  -0.000922  -0.000089
    35  H   -0.002316   0.011261   0.001674   0.000926  -0.000958   0.000201
    36  H    0.432998   0.014527  -0.000637  -0.001179  -0.000639   0.001059
    37  H    0.399365  -0.011729  -0.007537   0.013916   0.009408   0.004336
    38  H    0.418503   0.012236   0.004227  -0.000681   0.000655   0.000312
    39  H   -0.002349   0.449979  -0.068765   0.017911  -0.003037   0.002656
    40  H    0.012564   0.447500  -0.066083   0.054819  -0.026057  -0.004544
    41  H   -0.000558  -0.064537   0.351736  -0.037419   0.082855   0.034007
    42  H    0.003055  -0.004227   0.468570  -0.061720  -0.004992  -0.044098
    43  H    0.006551   0.039592   0.005778   0.095476   0.186456  -0.068537
              19         20         21         22         23         24
     1  C   -0.011463  -0.697432   0.027480   0.416688   0.452671  -0.000032
     2  C   -0.010377   0.307394  -0.035306  -0.078453  -0.093838  -0.000434
     3  C    0.001950  -0.011260   0.002389   0.015147  -0.009297   0.003922
     4  C   -0.005074   0.085002  -0.002609  -0.005701   0.004915   0.014464
     5  Si   0.003203   0.032819  -0.000862  -0.000623  -0.000932  -0.040703
     6  C    0.000320  -0.001664  -0.000020  -0.000023   0.000143   0.391389
     7  C    0.001071   0.000023  -0.000010   0.000022   0.000072  -0.007070
     8  C    0.000135   0.000169   0.000001  -0.000036   0.000295  -0.003676
     9  C    0.010881   0.447566  -0.006897  -0.007263   0.000906   0.000207
    10  C   -0.000266   0.055241  -0.003168   0.007839  -0.005122  -0.000013
    11  Si   0.007233  -0.009982   0.002685   0.000400  -0.001499   0.000002
    12  C   -0.000383  -0.011333   0.000524   0.000457  -0.000050  -0.000000
    13  C   -0.001756  -0.023660   0.000331  -0.000031   0.000065   0.000000
    14  C    0.012102   0.241713  -0.009003  -0.001610  -0.000103  -0.000000
    15  C    0.020760  -1.577251   0.069863  -0.004244  -0.000914   0.000000
    16  C   -0.046513  -1.504876  -0.015388  -0.010450  -0.003500  -0.000028
    17  C    0.396791  -5.724067   0.375571   0.015038  -0.001582   0.000054
    18  C   -0.887292 -10.107067   0.547204   0.005913   0.003337   0.000125
    19  N    7.354281   0.621746  -0.025210  -0.000072  -0.000221  -0.000058
    20  C    0.621746  25.570998  -0.839768  -0.005853   0.006364  -0.000001
    21  N   -0.025210  -0.839768   7.347999   0.001054  -0.000279   0.000000
    22  H   -0.000072  -0.005853   0.001054   0.527931  -0.026641   0.000000
    23  H   -0.000221   0.006364  -0.000279  -0.026641   0.513601   0.000000
    24  H   -0.000058  -0.000001   0.000000   0.000000   0.000000   0.525047
    25  H    0.000232   0.000025  -0.000000   0.000000  -0.000001  -0.022703
    26  H    0.000455  -0.000326   0.000001  -0.000000   0.000000  -0.021628
    27  H   -0.000008  -0.000005   0.000000  -0.000000   0.000000   0.000400
    28  H    0.000007   0.000008  -0.000000  -0.000000  -0.000000   0.000011
    29  H    0.000234  -0.000072   0.000000  -0.000000  -0.000000   0.000014
    30  H   -0.000002   0.000003   0.000000  -0.000000  -0.000000   0.000024
    31  H    0.000000   0.000002  -0.000000   0.000000  -0.000000  -0.000066
    32  H    0.000001   0.000001  -0.000000   0.000000   0.000000   0.000061
    33  H    0.000000  -0.000231   0.000001  -0.000000   0.000000   0.000000
    34  H    0.000000  -0.000576   0.000010  -0.000001   0.000000   0.000000
    35  H   -0.000000  -0.000233   0.000001   0.000001   0.000000  -0.000000
    36  H   -0.000001  -0.000732   0.000001  -0.000000  -0.000000   0.000000
    37  H   -0.000220   0.002336  -0.000007  -0.000000  -0.000000   0.000000
    38  H    0.000004  -0.000560   0.000001   0.000000  -0.000000  -0.000000
    39  H   -0.000001  -0.001275  -0.000056  -0.000000   0.000000   0.000000
    40  H    0.000051  -0.005779   0.000016   0.000000   0.000000   0.000000
    41  H   -0.000351  -0.096639   0.008887   0.000001   0.000000  -0.000000
    42  H    0.000638  -0.028833   0.000770   0.000155  -0.000001   0.000000
    43  H    0.005313   0.039710  -0.000492  -0.000001   0.000000   0.000000
              25         26         27         28         29         30
     1  C    0.000358  -0.000350   0.000039  -0.000061  -0.000173  -0.000580
     2  C   -0.001198  -0.001367   0.000246  -0.001079  -0.002465  -0.000111
     3  C    0.001229  -0.000738   0.002759  -0.000511   0.000254   0.001825
     4  C   -0.016566  -0.018626   0.014340  -0.010154  -0.015137   0.001541
     5  Si  -0.023478  -0.025763  -0.037783  -0.028396  -0.035864  -0.041381
     6  C    0.388324   0.397189  -0.005386   0.010428  -0.001759   0.002597
     7  C    0.010695  -0.001559   0.390707   0.390146   0.401863   0.002338
     8  C   -0.001135   0.011340  -0.005239  -0.001816   0.011102   0.393868
     9  C    0.000116  -0.000054  -0.000235   0.000309   0.001476   0.000237
    10  C   -0.000059   0.000003   0.000023  -0.000089  -0.000334   0.000038
    11  Si  -0.000004   0.000009  -0.000049  -0.000027   0.000088   0.000030
    12  C   -0.000000   0.000000  -0.000000   0.000001  -0.000001  -0.000000
    13  C    0.000000   0.000001   0.000003  -0.000009   0.000000  -0.000001
    14  C    0.000001  -0.000001   0.000000   0.000002  -0.000016  -0.000001
    15  C    0.000000  -0.000009  -0.000001   0.000004   0.000015  -0.000000
    16  C    0.000131   0.000127  -0.000000   0.000041  -0.000083  -0.000021
    17  C    0.000276  -0.002351  -0.000066   0.000239  -0.000379  -0.000006
    18  C   -0.000902   0.002176   0.000126  -0.000303   0.000445   0.000036
    19  N    0.000232   0.000455  -0.000008   0.000007   0.000234  -0.000002
    20  C    0.000025  -0.000326  -0.000005   0.000008  -0.000072   0.000003
    21  N   -0.000000   0.000001   0.000000  -0.000000   0.000000   0.000000
    22  H    0.000000  -0.000000  -0.000000  -0.000000  -0.000000  -0.000000
    23  H   -0.000001   0.000000   0.000000  -0.000000  -0.000000  -0.000000
    24  H   -0.022703  -0.021628   0.000400   0.000011   0.000014   0.000024
    25  H    0.522335  -0.019234   0.000011  -0.000022   0.000004   0.000053
    26  H   -0.019234   0.500729   0.000008  -0.000000   0.000512  -0.000021
    27  H    0.000011   0.000008   0.522259  -0.022687  -0.021787   0.000027
    28  H   -0.000022  -0.000000  -0.022687   0.522749  -0.020657   0.000058
    29  H    0.000004   0.000512  -0.021787  -0.020657   0.513645  -0.000022
    30  H    0.000053  -0.000021   0.000027   0.000058  -0.000022   0.502848
    31  H   -0.000019   0.000051   0.000061   0.000023  -0.000021  -0.020226
    32  H    0.000020  -0.000020  -0.000042  -0.000016   0.000054  -0.020203
    33  H   -0.000000  -0.000000   0.000000   0.000000  -0.000000   0.000000
    34  H   -0.000000   0.000000   0.000000  -0.000000  -0.000000  -0.000000
    35  H   -0.000000  -0.000000  -0.000000   0.000000   0.000000  -0.000000
    36  H   -0.000000  -0.000000  -0.000000  -0.000000   0.000000   0.000000
    37  H   -0.000000   0.000000  -0.000000   0.000000   0.000000   0.000000
    38  H   -0.000000  -0.000000  -0.000000   0.000000   0.000000  -0.000000
    39  H   -0.000000   0.000000  -0.000000  -0.000000  -0.000000   0.000000
    40  H   -0.000000   0.000000  -0.000000   0.000000   0.000000   0.000000
    41  H   -0.000000  -0.000000   0.000000   0.000000   0.000000  -0.000000
    42  H    0.000000   0.000000  -0.000000   0.000000  -0.000000  -0.000000
    43  H    0.000000   0.000000   0.000000   0.000000   0.000000  -0.000000
              31         32         33         34         35         36
     1  C    0.000118  -0.000261  -0.000225   0.001676  -0.001266   0.000082
     2  C   -0.000795   0.000035  -0.001202  -0.002635  -0.002581  -0.000826
     3  C    0.003716   0.000044   0.000414   0.000092  -0.000440   0.000139
     4  C   -0.004738   0.001485  -0.000024  -0.000093   0.000019  -0.000090
     5  Si  -0.029658  -0.029585  -0.000001  -0.000002  -0.000013  -0.000001
     6  C    0.000997   0.000564  -0.000000  -0.000000   0.000000   0.000000
     7  C    0.000614   0.000111  -0.000000  -0.000000  -0.000000  -0.000002
     8  C    0.392429   0.389588  -0.000000   0.000000   0.000001  -0.000000
     9  C    0.000179   0.000007   0.007858   0.004208  -0.012118   0.008756
    10  C   -0.000034   0.000024  -0.013260  -0.029151  -0.016316  -0.013498
    11  Si  -0.000003   0.000006  -0.040056  -0.022362  -0.029675  -0.072951
    12  C   -0.000000   0.000000   0.409420   0.406204   0.409935  -0.009946
    13  C    0.000000  -0.000000  -0.007589   0.006205  -0.002316   0.432998
    14  C   -0.000000   0.000000  -0.004719  -0.008530   0.011261   0.014527
    15  C    0.000000  -0.000000   0.008065   0.012056   0.001674  -0.000637
    16  C   -0.000001   0.000005  -0.003194  -0.007564   0.000926  -0.001179
    17  C    0.000005   0.000005   0.001989  -0.000922  -0.000958  -0.000639
    18  C   -0.000019  -0.000021   0.000034  -0.000089   0.000201   0.001059
    19  N    0.000000   0.000001   0.000000   0.000000  -0.000000  -0.000001
    20  C    0.000002   0.000001  -0.000231  -0.000576  -0.000233  -0.000732
    21  N   -0.000000  -0.000000   0.000001   0.000010   0.000001   0.000001
    22  H    0.000000   0.000000  -0.000000  -0.000001   0.000001  -0.000000
    23  H   -0.000000   0.000000   0.000000   0.000000   0.000000  -0.000000
    24  H   -0.000066   0.000061   0.000000   0.000000  -0.000000   0.000000
    25  H   -0.000019   0.000020  -0.000000  -0.000000  -0.000000  -0.000000
    26  H    0.000051  -0.000020  -0.000000   0.000000  -0.000000  -0.000000
    27  H    0.000061  -0.000042   0.000000   0.000000  -0.000000  -0.000000
    28  H    0.000023  -0.000016   0.000000  -0.000000   0.000000  -0.000000
    29  H   -0.000021   0.000054  -0.000000  -0.000000   0.000000   0.000000
    30  H   -0.020226  -0.020203   0.000000  -0.000000  -0.000000   0.000000
    31  H    0.510736  -0.021549   0.000000  -0.000000   0.000000  -0.000000
    32  H   -0.021549   0.512514  -0.000000  -0.000000  -0.000000   0.000000
    33  H    0.000000  -0.000000   0.530120  -0.024039  -0.021213   0.000505
    34  H   -0.000000  -0.000000  -0.024039   0.531020  -0.020868   0.000012
    35  H    0.000000  -0.000000  -0.021213  -0.020868   0.523366   0.000042
    36  H   -0.000000   0.000000   0.000505   0.000012   0.000042   0.527686
    37  H   -0.000000  -0.000000   0.000014  -0.000021   0.000015  -0.023670
    38  H    0.000000  -0.000000   0.000053   0.000009   0.000322  -0.020761
    39  H    0.000000  -0.000000  -0.000123   0.000023   0.000214   0.000063
    40  H    0.000000   0.000000   0.000062   0.000045  -0.000027   0.000218
    41  H   -0.000000  -0.000000   0.000001  -0.000009   0.000001   0.000001
    42  H   -0.000000  -0.000000   0.000010   0.000089  -0.000010  -0.000002
    43  H   -0.000000  -0.000000   0.000000  -0.000001   0.000001  -0.000008
              37         38         39         40         41         42
     1  C   -0.000445   0.000030  -0.000129  -0.000317   0.000399   0.000590
     2  C   -0.002834  -0.002630  -0.002749  -0.002478  -0.000600  -0.000566
     3  C   -0.000128   0.000305   0.000449   0.000448  -0.000680   0.000749
     4  C    0.000159  -0.000408  -0.000046  -0.000028  -0.000063   0.000591
     5  Si   0.000166  -0.000166   0.000000   0.000010  -0.000014   0.000057
     6  C    0.000001   0.000002  -0.000000  -0.000000   0.000000  -0.000001
     7  C   -0.000016  -0.000013   0.000000   0.000000  -0.000000   0.000000
     8  C    0.000001   0.000002  -0.000000  -0.000000   0.000000   0.000000
     9  C   -0.001962  -0.003400   0.009276   0.003182  -0.004678   0.005452
    10  C   -0.031225  -0.029242  -0.026384  -0.028686  -0.003240  -0.016563
    11  Si  -0.028388  -0.036006  -0.043932  -0.050135   0.038320  -0.016529
    12  C    0.009791  -0.004825   0.007917  -0.001605   0.000469  -0.003697
    13  C    0.399365   0.418503  -0.002349   0.012564  -0.000558   0.003055
    14  C   -0.011729   0.012236   0.449979   0.447500  -0.064537  -0.004227
[...]
     5  Si   0.003055   0.010858  -0.000165   0.000020   0.000691  -0.036579
     6  C   -0.004522  -0.006203   0.000195   0.000000   0.000001   0.393272
     7  C    0.000193  -0.000417   0.000006   0.000007   0.000015  -0.002421
     8  C    0.000049  -0.000071   0.000001  -0.000023   0.000245  -0.002476
     9  C   -0.000099   0.022330  -0.000424  -0.091326  -0.064408   0.000527
    10  C    0.001061   0.001115   0.000221   0.010260   0.003101   0.000075
    11  Si   0.003576  -0.010036   0.000645   0.000834  -0.000048   0.000014
    12  C   -0.000043   0.001223   0.000024   0.000302  -0.000016  -0.000000
    13  C   -0.000887   0.006094   0.000033  -0.000003   0.000022  -0.000001
    14  C   -0.000241  -0.158982  -0.001363   0.000157  -0.000008  -0.000001
    15  C    0.020356  -0.824297   0.031255  -0.000068   0.000179   0.000010
    16  C    0.054559  -2.840930   0.220564  -0.000030  -0.000156  -0.000416
    17  C    0.159356  -0.558007   0.109765  -0.000046  -0.000081   0.000586
    18  C   -0.058842  -1.194574   0.046695   0.000010   0.000002  -0.000709
    19  N    7.179699   0.070457  -0.000828  -0.000000  -0.000000   0.000493
    20  C    0.070457  12.020348  -0.201561  -0.000004  -0.000002  -0.000080
    21  N   -0.000828  -0.201561   7.274772   0.000000   0.000000  -0.000000
    22  H   -0.000000  -0.000004   0.000000   0.522764  -0.030575  -0.000000
    23  H   -0.000000  -0.000002   0.000000  -0.030575   0.518370  -0.000000
    24  H    0.000493  -0.000080  -0.000000  -0.000000  -0.000000   0.521843
    25  H    0.000035   0.000453   0.000002   0.000000   0.000000  -0.023652
    26  H    0.001498  -0.000613   0.000008  -0.000000   0.000000  -0.021775
    27  H    0.000002  -0.000009   0.000000   0.000000  -0.000000   0.000278
    28  H   -0.000008  -0.000002  -0.000000  -0.000000   0.000000   0.000005
    29  H    0.000189  -0.000063   0.000000  -0.000000   0.000000   0.000030
    30  H   -0.000000   0.000000  -0.000000   0.000000  -0.000000   0.000007
    31  H   -0.000001   0.000002   0.000000   0.000000   0.000000   0.000003
    32  H    0.000001  -0.000000   0.000000   0.000000  -0.000000   0.000342
    33  H   -0.000000   0.000037  -0.000000  -0.000000   0.000000   0.000000
    34  H    0.000000  -0.000026   0.000000   0.000000   0.000000  -0.000000
    35  H    0.000000  -0.000018   0.000000   0.000000   0.000000  -0.000000
    36  H   -0.000010   0.000490  -0.000001  -0.000000  -0.000000  -0.000000
    37  H    0.000373   0.000213  -0.000015   0.000000  -0.000000  -0.000000
    38  H   -0.000008  -0.000009  -0.000001   0.000000  -0.000000  -0.000000
    39  H   -0.000000   0.000238   0.000094  -0.000000  -0.000000   0.000000
    40  H   -0.000010  -0.013979   0.000225   0.000000   0.000000   0.000000
    41  H    0.000331  -0.003211   0.004127  -0.000000  -0.000000  -0.000000
    42  H    0.000020  -0.004230   0.000039   0.000000   0.000000  -0.000000
    43  H    0.002328   0.048821  -0.000323  -0.000000   0.000000  -0.000000
              25         26         27         28         29         30
     1  C    0.000301  -0.000365   0.000038   0.000641  -0.000430  -0.000528
     2  C    0.000742  -0.005551   0.004348   0.001015  -0.002235   0.007276
     3  C   -0.002462   0.001967   0.004411  -0.002205   0.002235  -0.008117
     4  C   -0.010129  -0.010096  -0.002843  -0.008714  -0.013919  -0.016115
     5  Si  -0.022534  -0.005839  -0.036614  -0.027551  -0.024572  -0.019837
     6  C    0.386304   0.377230  -0.001105   0.012009  -0.003883   0.010402
     7  C    0.011572  -0.006298   0.394997   0.392396   0.392061  -0.003867
     8  C   -0.003609   0.010150  -0.003628  -0.004491   0.009385   0.391440
     9  C   -0.001597   0.001800   0.000535  -0.001760   0.003264   0.001058
    10  C    0.000070  -0.000456   0.000053   0.000007  -0.000152   0.000003
    11  Si  -0.000004  -0.000023  -0.000002  -0.000011  -0.000015  -0.000002
    12  C    0.000000  -0.000000  -0.000000   0.000000  -0.000000  -0.000000
    13  C   -0.000000   0.000007   0.000000   0.000001   0.000003   0.000000
    14  C    0.000002  -0.000055   0.000000   0.000000   0.000004  -0.000000
    15  C   -0.000231   0.000792   0.000001   0.000004   0.000053   0.000000
    16  C   -0.001304   0.002064   0.000092   0.000073   0.000745  -0.000003
    17  C    0.002249  -0.001967  -0.000137  -0.000084  -0.001562   0.000000
    18  C   -0.000879  -0.001125   0.000160   0.000083   0.000690   0.000005
    19  N    0.000035   0.001498   0.000002  -0.000008   0.000189  -0.000000
    20  C    0.000453  -0.000613  -0.000009  -0.000002  -0.000063   0.000000
    21  N    0.000002   0.000008   0.000000  -0.000000   0.000000  -0.000000
    22  H    0.000000  -0.000000   0.000000  -0.000000  -0.000000   0.000000
    23  H    0.000000   0.000000  -0.000000   0.000000   0.000000  -0.000000
    24  H   -0.023652  -0.021775   0.000278   0.000005   0.000030   0.000007
    25  H    0.523268  -0.021959   0.000004  -0.000018   0.000001  -0.000001
    26  H   -0.021959   0.502210   0.000018   0.000001   0.000419  -0.000017
    27  H    0.000004   0.000018   0.522381  -0.023793  -0.022466   0.000026
    28  H   -0.000018   0.000001  -0.023793   0.519529  -0.022411   0.000436
    29  H    0.000001   0.000419  -0.022466  -0.022411   0.510783   0.000005
    30  H   -0.000001  -0.000017   0.000026   0.000436   0.000005   0.518342
    31  H    0.000425   0.000002   0.000007   0.000002  -0.000017  -0.022449
    32  H    0.000018   0.000004   0.000339   0.000041   0.000009  -0.023591
    33  H    0.000000  -0.000000   0.000000   0.000000  -0.000000  -0.000000
    34  H    0.000000   0.000000  -0.000000  -0.000000  -0.000000  -0.000000
    35  H   -0.000000   0.000000  -0.000000   0.000000  -0.000000   0.000000
    36  H   -0.000000  -0.000000   0.000000   0.000000  -0.000000   0.000000
    37  H   -0.000000   0.000000  -0.000000  -0.000000   0.000000  -0.000000
    38  H    0.000000   0.000000  -0.000000  -0.000000   0.000000   0.000000
    39  H    0.000000   0.000000  -0.000000   0.000000  -0.000000  -0.000000
    40  H   -0.000000  -0.000000  -0.000000  -0.000000  -0.000000   0.000000
    41  H   -0.000000  -0.000000  -0.000000   0.000000   0.000000  -0.000000
    42  H   -0.000000   0.000000   0.000000  -0.000000   0.000000   0.000000
    43  H   -0.000001  -0.000006  -0.000000  -0.000000  -0.000000  -0.000000
              31         32         33         34         35         36
     1  C   -0.000354   0.000350   0.000199  -0.000069  -0.000506  -0.000032
     2  C    0.004137   0.004863   0.003304  -0.000692   0.004624   0.005281
     3  C   -0.006629   0.002544  -0.000072   0.000388   0.000566   0.001044
     4  C   -0.011427  -0.005048   0.000019  -0.000033   0.000003   0.000105
     5  Si  -0.020590  -0.027441   0.000001  -0.000003  -0.000003   0.000006
     6  C   -0.004047  -0.002941  -0.000000   0.000000   0.000000  -0.000001
     7  C    0.009267  -0.004504  -0.000000   0.000000   0.000000  -0.000001
     8  C    0.391483   0.393565   0.000000  -0.000000  -0.000000  -0.000000
     9  C    0.000454  -0.000252   0.006023   0.000766  -0.008012   0.010348
    10  C    0.000011   0.000029  -0.002242  -0.013207  -0.022164  -0.016445
    11  Si  -0.000006   0.000001  -0.037195  -0.018067  -0.017591  -0.048590
    12  C    0.000000   0.000000   0.401073   0.397083   0.398914  -0.007379
    13  C    0.000000  -0.000000  -0.007677   0.005694  -0.003677   0.415696
    14  C    0.000000  -0.000000  -0.001529  -0.005216   0.011701  -0.001944
    15  C   -0.000007  -0.000000   0.002009  -0.001201  -0.001172  -0.000200
    16  C   -0.000020  -0.000006  -0.000909   0.000175  -0.000305  -0.002555
    17  C    0.000015   0.000013  -0.001244  -0.001047   0.000198   0.004306
    18  C    0.000006  -0.000013  -0.000005  -0.000011  -0.000026   0.000817
    19  N   -0.000001   0.000001  -0.000000   0.000000   0.000000  -0.000010
    20  C    0.000002  -0.000000   0.000037  -0.000026  -0.000018   0.000490
    21  N    0.000000   0.000000  -0.000000   0.000000   0.000000  -0.000001
    22  H    0.000000   0.000000  -0.000000   0.000000   0.000000  -0.000000
    23  H    0.000000  -0.000000   0.000000   0.000000   0.000000  -0.000000
    24  H    0.000003   0.000342   0.000000  -0.000000  -0.000000  -0.000000
    25  H    0.000425   0.000018   0.000000   0.000000  -0.000000  -0.000000
    26  H    0.000002   0.000004  -0.000000   0.000000   0.000000  -0.000000
    27  H    0.000007   0.000339   0.000000  -0.000000  -0.000000   0.000000
    28  H    0.000002   0.000041   0.000000  -0.000000   0.000000   0.000000
    29  H   -0.000017   0.000009  -0.000000  -0.000000  -0.000000  -0.000000
    30  H   -0.022449  -0.023591  -0.000000  -0.000000   0.000000   0.000000
    31  H    0.517883  -0.023576  -0.000000   0.000000   0.000000  -0.000000
    32  H   -0.023576   0.522917  -0.000000  -0.000000  -0.000000   0.000000
    33  H   -0.000000  -0.000000   0.518831  -0.024093  -0.023226   0.000359
    34  H    0.000000  -0.000000  -0.024093   0.512045  -0.021782   0.000012
    35  H    0.000000  -0.000000  -0.023226  -0.021782   0.511450   0.000028
    36  H   -0.000000   0.000000   0.000359   0.000012   0.000028   0.519328
    37  H    0.000000  -0.000000   0.000012  -0.000016   0.000005  -0.023330
    38  H    0.000000   0.000000   0.000055   0.000013   0.000443  -0.023652
    39  H   -0.000000   0.000000  -0.000269   0.000384   0.000028   0.000034
    40  H    0.000000   0.000000   0.000163   0.000049  -0.000018   0.000397
    41  H    0.000000  -0.000000   0.000000  -0.000001   0.000000   0.000001
    42  H    0.000000  -0.000000   0.000000   0.000017  -0.000002  -0.000002
    43  H    0.000000  -0.000000   0.000000   0.000000   0.000000   0.000025
              37         38         39         40         41         42
     1  C   -0.000218  -0.000018   0.000844  -0.000038  -0.000162   0.003023
     2  C   -0.006515   0.001955   0.002177   0.004703  -0.004305   0.005415
     3  C   -0.000190   0.000230  -0.002001   0.000958   0.001000  -0.005683
     4  C   -0.000427   0.000009   0.000059   0.000070  -0.000242  -0.000118
     5  Si   0.000050  -0.000022  -0.000007  -0.000003  -0.000058   0.000169
     6  C    0.000006   0.000000   0.000001   0.000000   0.000013   0.000083
     7  C    0.000002   0.000002   0.000000   0.000000  -0.000001   0.000001
     8  C    0.000000  -0.000000   0.000000  -0.000000  -0.000000   0.000001
     9  C    0.001085  -0.001924  -0.003822   0.007833   0.003264   0.011077
    10  C    0.001881  -0.023969  -0.004752  -0.011257  -0.004030   0.006906
    11  Si  -0.026918  -0.038243  -0.004230  -0.036679   0.014923  -0.026640
    12  C    0.007329  -0.005760   0.002860  -0.005738  -0.000159  -0.003192
    13  C    0.388475   0.416198   0.001176   0.003587  -0.000994   0.000487
    14  C   -0.016287   0.013512   0.392648   0.393997  -0.020635  -0.051760
    15  C    0.008439   0.003974  -0.096826  -0.043859   0.425910   0.439171
    16  C    0.011217  -0.001755   0.027124   0.018754  -0.053153   0.010183
    17  C   -0.002497  -0.000366   0.013632   0.006613  -0.033954  -0.060771
    18  C   -0.002410   0.000525   0.001309  -0.000604  -0.009934  -0.014036
    19  N    0.000373  -0.000008  -0.000000  -0.000010   0.000331   0.000020
    20  C    0.000213  -0.000009   0.000238  -0.013979  -0.003211  -0.004230
    21  N   -0.000015  -0.000001   0.000094   0.000225   0.004127   0.000039
    22  H    0.000000   0.000000  -0.000000   0.000000  -0.000000   0.000000
    23  H   -0.000000  -0.000000  -0.000000   0.000000  -0.000000   0.000000
    24  H   -0.000000  -0.000000   0.000000   0.000000  -0.000000  -0.000000
    25  H   -0.000000   0.000000   0.000000  -0.000000  -0.000000  -0.000000
    26  H    0.000000   0.000000   0.000000  -0.000000  -0.000000   0.000000
    27  H   -0.000000  -0.000000  -0.000000  -0.000000  -0.000000   0.000000
    28  H   -0.000000  -0.000000   0.000000  -0.000000   0.000000  -0.000000
    29  H    0.000000   0.000000  -0.000000  -0.000000   0.000000   0.000000
    30  H   -0.000000   0.000000  -0.000000   0.000000  -0.000000   0.000000
    31  H    0.000000   0.000000  -0.000000   0.000000   0.000000   0.000000
    32  H   -0.000000   0.000000   0.000000   0.000000  -0.000000  -0.000000
    33  H    0.000012   0.000055  -0.000269   0.000163   0.000000   0.000000
    34  H   -0.000016   0.000013   0.000384   0.000049  -0.000001   0.000017
    35  H    0.000005   0.000443   0.000028  -0.000018   0.000000  -0.000002
    36  H   -0.023330  -0.023652   0.000034   0.000397   0.000001  -0.000002
    37  H    0.512697  -0.022036   0.000003   0.000004  -0.000005   0.000001
    38  H   -0.022036   0.507625  -0.000018   0.000020   0.000000  -0.000001
    39  H    0.000003  -0.000018   0.535340  -0.025862  -0.004503  -0.003925
    40  H    0.000004   0.000020  -0.025862   0.532414  -0.005232   0.004557
    41  H   -0.000005   0.000000  -0.004503  -0.005232   0.555075  -0.030168
    42  H    0.000001  -0.000001  -0.003925   0.004557  -0.030168   0.537619
    43  H    0.000289   0.000027  -0.000098  -0.000112   0.004037  -0.003468
              43
     1  C   -0.000524
     2  C   -0.023594
     3  C    0.006173
     4  C   -0.002220
     5  Si  -0.000400
     6  C    0.000272
     7  C   -0.000116
     8  C    0.000007
     9  C    0.019786
    10  C   -0.024076
    11  Si   0.044645
    12  C    0.001356
    13  C   -0.004851
    14  C   -0.002826
    15  C    0.029343
    16  C    0.145079
    17  C    0.120643
    18  C   -0.058637
    19  N    0.002328
    20  C    0.048821
    21  N   -0.000323
    22  H   -0.000000
    23  H    0.000000
    24  H   -0.000000
    25  H   -0.000001
    26  H   -0.000006
    27  H   -0.000000
    28  H   -0.000000
    29  H   -0.000000
    30  H   -0.000000
    31  H    0.000000
    32  H   -0.000000
    33  H    0.000000
    34  H    0.000000
    35  H    0.000000
    36  H    0.000025
    37  H    0.000289
    38  H    0.000027
    39  H   -0.000098
    40  H   -0.000112
    41  H    0.004037
    42  H   -0.003468
    43  H    0.527978
 Mulliken charges:
               1
     1  C   -0.380590
     2  C    0.173701
     3  C    0.351310
     4  C   -0.995653
     5  Si   1.222925
     6  C   -0.678210
     7  C   -0.651429
     8  C   -0.663169
     9  C    0.229382
    10  C   -1.039522
    11  Si   1.186191
    12  C   -0.672202
    13  C   -0.637805
    14  C   -0.651409
    15  C   -0.051193
    16  C    0.312031
    17  C    0.822649
    18  C   -0.285256
    19  N   -0.430868
    20  C   -0.355225
    21  N   -0.484017
    22  H    0.154088
    23  H    0.157083
    24  H    0.164676
    25  H    0.162936
    26  H    0.177977
    27  H    0.162907
    28  H    0.164804
    29  H    0.171850
    30  H    0.165529
    31  H    0.165425
    32  H    0.162336
    33  H    0.166377
    34  H    0.168840
    35  H    0.170540
    36  H    0.165866
    37  H    0.168786
    38  H    0.173194
    39  H    0.168361
    40  H    0.169047
    41  H    0.162066
    42  H    0.185226
    43  H    0.170448
 Sum of Mulliken charges =  -0.00000
 Mulliken charges with hydrogens summed into heavy atoms:
               1
     1  C   -0.069420
     2  C    0.173701
     3  C    0.351310
     4  C   -0.995653
     5  Si   1.222925
     6  C   -0.172621
     7  C   -0.151869
     8  C   -0.169880
     9  C    0.229382
    10  C   -1.039522
    11  Si   1.186191
    12  C   -0.166445
    13  C   -0.129960
    14  C   -0.314001
    15  C    0.296099
    16  C    0.482479
    17  C    0.822649
    18  C   -0.285256
    19  N   -0.430868
    20  C   -0.355225
    21  N   -0.484017
 Electronic spatial extent (au):  <R**2>=          10128.3107
 Charge=              0.0000 electrons
 Dipole moment (field-independent basis, Debye):
    X=              0.7163    Y=             -5.6544    Z=              0.6572  Tot=              5.7374
 Quadrupole moment (field-independent basis, Debye-Ang):
   XX=           -130.4078   YY=           -165.7537   ZZ=           -146.5505
   XY=            -11.3942   XZ=             -6.0261   YZ=             -3.2828
 Traceless Quadrupole moment (field-independent basis, Debye-Ang):
   XX=             17.1629   YY=            -18.1830   ZZ=              1.0202
   XY=            -11.3942   XZ=             -6.0261   YZ=             -3.2828
 Octapole moment (field-independent basis, Debye-Ang**2):
  XXX=            -17.9647  YYY=           -177.5041  ZZZ=              4.4892  XYY=            -62.0228
  XXY=            -40.2068  XXZ=            -23.9959  XZZ=              2.1259  YZZ=            -32.1197
  YYZ=              0.5540  XYZ=            -22.9557
 Hexadecapole moment (field-independent basis, Debye-Ang**3):
 XXXX=          -8308.1214 YYYY=          -5269.2290 ZZZZ=          -1226.6746 XXXY=           -263.1207
 XXXZ=            -22.1835 YYYX=           -270.2282 YYYZ=           -179.3769 ZZZX=            -24.9559
 ZZZY=             11.4064 XXYY=          -2413.3595 XXZZ=          -1636.8600 YYZZ=          -1080.9213
 XXYZ=            -83.3790 YYXZ=           -175.0030 ZZXY=            -46.4585
 N-N= 1.687099467729D+03 E-N=-6.534049899549D+03  KE= 1.339530338454D+03
 Unable to Open any file for archive entry.
 1\1\GINC-N1\FOpt\RB3LYP\6-31+G(d,p)\C17H22N2Si2\HPCMGAC13\07-Aug-2025\
 0\\# opt b3lyp/6-31+g(d,p) geom=connectivity\\Title Card Required\\0,1
 \C,-1.992985721,-0.0998298969,3.579553552\C,-1.1659379844,-0.014303564
 4,2.5107860899\C,-0.652817563,-1.1780849984,1.8458530327\C,-0.19943983
 75,-2.1503447516,1.2604940325\Si,0.4867761917,-3.6463080748,0.40917772
 98\C,0.1369887415,-3.4982351733,-1.4389121873\C,2.3446257051,-3.708898
 1682,0.7373432266\C,-0.3707190353,-5.1666461004,1.1315042335\C,-0.7522
 099705,1.2550316798,1.9807106224\C,-0.3776103505,2.3164454398,1.504498
 0615\Si,0.2260048376,3.8766810243,0.7311718283\C,-0.2308785519,5.34492
 33353,1.822591274\C,2.0998361004,3.7632743527,0.531439375\C,-0.6395060
 418,4.0673036069,-0.965566736\C,-1.1249287642,2.7895526405,-1.70415932
 13\C,-0.0374653684,1.8032472693,-1.9743515831\C,0.4181868596,1.4339895
 6,-3.1974701099\C,1.4659848563,0.4585327853,-3.3310383427\N,2.31175671
 72,-0.3345914417,-3.4241993521\C,-0.112079369,1.981859552,-4.417039970
 2\N,-0.539850737,2.428492621,-5.4021658558\H,-2.366014705,0.7945729454
 ,4.0655687488\H,-2.2950785982,-1.0653497454,3.9689640732\H,0.487571056
 3,-4.3931576106,-1.9667453457\H,-0.935847282,-3.3926214016,-1.63345983
 44\H,0.6500407777,-2.634961413,-1.8756584449\H,2.7897103948,-4.5888182
 885,0.2578601775\H,2.5569213758,-3.7647495016,1.8104187496\H,2.8463254
 079,-2.8206976128,0.3389682415\H,-0.1955100326,-5.2461351879,2.2098645
 837\H,-1.4531840294,-5.1261163474,0.9686289077\H,0.0067433557,-6.08186
 57189,0.660163455\H,0.0807840003,6.2870283624,1.3563019339\H,-1.311748
 1023,5.3927461345,1.9925359804\H,0.2605507943,5.2748648134,2.798871719
 1\H,2.4923289877,4.6764130216,0.0685153815\H,2.3997190835,2.9154221468
 ,-0.0930870818\H,2.5852664116,3.6446970964,1.5061247593\H,-1.520801905
 8,4.7029019035,-0.8110826794\H,0.0283176118,4.6353976598,-1.6268086651
 \H,-1.6237482346,3.0677143057,-2.6379513383\H,-1.8668273151,2.28403959
 02,-1.0713284282\H,0.4267667826,1.328066831,-1.1128126931\\Version=ES6
 4L-G16RevC.02\State=1-A\HF=-1349.5197594\RMSD=2.246e-09\RMSF=3.492e-06
 \Dipole=-0.7122994,0.6423201,2.0433504\Quadrupole=0.9317105,15.4092813
 ,-16.3409918,2.1648059,-0.236694,3.6680809\PG=C01 [X(C17H22N2Si2)]\\@
 The archive entry for this job was punched.


 ERROR IS THE FORCE THAT WELDS MEN TOGETHER....
 TRUTH IS COMMUNICATED TO MEN ONLY BY DEEDS OF TRUTH.
           TOLSTOI,MY RELIGION
 Job cpu time:       1 days  2 hours 23 minutes 38.6 seconds.
 Elapsed time:       0 days  0 hours 54 minutes 40.9 seconds.
 File lengths (MBytes):  RWF=    190 Int=      0 D2E=      0 Chk=     29 Scr=      2
 Normal termination of Gaussian 16 at Thu Aug  7 20:07:32 2025.
